<?xml version="1.0"?>
<VTKFile type="UnstructuredGrid"  version="0.1"  >
<UnstructuredGrid>
<Piece  NumberOfPoints="21337" NumberOfCells="41988">
<Points>
<DataArray  type="Float64"  NumberOfComponents="3"  format="ascii">0 0 0  0.77 0 0  0.77 0.15 0  0 0.15 0  0.002692307692302917 0 0  0.005384615384605834 0 0  0.008076923076908835 0 0  0.01076923076921186 0 0  0.01346153846151489 0 0  0.01615384615381792 0 0  0.01884615384612085 0 0  0.02153846153842357 0 0  0.02423076923072626 0 0  0.02692307692302838 0 0  0.02961538461533049 0 0  0.03230769230763287 0 0  0.03499999999993529 0 0  0.03769230769223771 0 0  0.04038461538454013 0 0  0.04307692307684255 0 0  0.04576923076914497 0 0  0.04846153846144754 0 0  0.05115384615375117 0 0  0.0538461538460548 0 0  0.05653846153835843 0 0  0.05923076923066205 0 0  0.06192307692296529 0 0  0.06461538461526832 0 0  0.06730769230757135 0 0  0.06999999999987438 0 0  0.07269230769217741 0 0  0.07538461538448044 0 0  0.07807692307678345 0 0  0.08076923076908764 0 0  0.08346153846139188 0 0  0.08615384615369612 0 0  0.08884615384600036 0 0  0.0915384615383034 0 0  0.09423076923060524 0 0  0.09692307692290673 0 0  0.09961538461520734 0 0  0.1023076923075079 0 0  0.1049999999998086 0 0  0.1076923076921091 0 0  0.1103846153844097 0 0  0.1130769230767103 0 0  0.1157692307690103 0 0  0.1184615384613097 0 0  0.1211538461536087 0 0  0.1238461538459068 0 0  0.126538461538205 0 0  0.1292307692305032 0 0  0.1319230769228014 0 0  0.1346153846151016 0 0  0.1373076923074022 0 0  0.1399999999997043 0 0  0.1426923076920073 0 0  0.1453846153843103 0 0  0.1480769230766134 0 0  0.150769230768916 0 0  0.1534615384612166 0 0  0.1561538461535172 0 0  0.1588461538458156 0 0  0.1615384615381138 0 0  0.164230769230412 0 0  0.1669230769227102 0 0  0.1696153846150083 0 0  0.1723076923073065 0 0  0.1749999999996047 0 0  0.1776923076919029 0 0  0.180384615384201 0 0  0.1830769230765016 0 0  0.1857692307688022 0 0  0.1884615384611046 0 0  0.1911538461534076 0 0  0.1938461538457106 0 0  0.1965384615380136 0 0  0.199230769230316 0 0  0.2019230769226166 0 0  0.2046153846149171 0 0  0.2073076923072153 0 0  0.2099999999995135 0 0  0.2126923076918116 0 0  0.2153846153841098 0 0  0.218076923076408 0 0  0.2207692307687062 0 0  0.2234615384610044 0 0  0.2261538461533025 0 0  0.2288461538456009 0 0  0.2315384615379015 0 0  0.2342307692302022 0 0  0.2369230769225048 0 0  0.2396153846148079 0 0  0.2423076923071109 0 0  0.2449999999994139 0 0  0.247692307691715 0 0  0.2503846153840132 0 0  0.2530769230763114 0 0  0.2557692307686096 0 0  0.2584615384609077 0 0  0.2611538461532104 0 0  0.2638461538455134 0 0  0.2665384615378165 0 0  0.2692307692301195 0 0  0.2719230769224225 0 0  0.2746153846147255 0 0  0.2773076923070275 0 0  0.2799999999993256 0 0  0.2826923076916238 0 0  0.285384615383922 0 0  0.2880769230762202 0 0  0.2907692307685183 0 0  0.2934615384608165 0 0  0.2961538461531147 0 0  0.2988461538454129 0 0  0.3015384615377124 0 0  0.3042307692300155 0 0  0.3069230769223185 0 0  0.3096153846146215 0 0  0.3123076923069245 0 0  0.3149999999992276 0 0  0.3176923076915306 0 0  0.3203846153838307 0 0  0.323076923076129 0 0  0.3257692307684272 0 0  0.3284615384607253 0 0  0.3311538461530235 0 0  0.3338461538453217 0 0  0.3365384615376198 0 0  0.339230769229918 0 0  0.3419230769222162 0 0  0.3446153846145144 0 0  0.3473076923068126 0 0  0.3499999999991107 0 0  0.3526923076914089 0 0  0.3553846153837079 0 0  0.3580769230760109 0 0  0.360769230768314 0 0  0.363461538460617 0 0  0.3661538461529201 0 0  0.3688461538452231 0 0  0.3715384615375261 0 0  0.3742307692298269 0 0  0.3769230769221251 0 0  0.3796153846144243 0 0  0.3823076923067274 0 0  0.3849999999990304 0 0  0.3876923076913432 0 0  0.3903846153836559 0 0  0.3930769230759686 0 0  0.3957692307682814 0 0  0.3984615384605941 0 0  0.4011538461529068 0 0  0.4038461538452195 0 0  0.4065384615375321 0 0  0.409230769229845 0 0  0.4119230769221576 0 0  0.4146153846144704 0 0  0.4173076923067831 0 0  0.4199999999990959 0 0  0.4226923076914115 0 0  0.425384615383729 0 0  0.4280769230760466 0 0  0.4307692307683642 0 0  0.4334615384606818 0 0  0.4361538461529995 0 0  0.438846153845317 0 0  0.4415384615376347 0 0  0.4442307692299522 0 0  0.4469230769222666 0 0  0.4496153846145793 0 0  0.4523076923068921 0 0  0.4549999999992048 0 0  0.4576923076915175 0 0  0.4603846153838302 0 0  0.463076923076143 0 0  0.4657692307684557 0 0  0.4684615384607684 0 0  0.471153846153081 0 0  0.4738461538453938 0 0  0.4765384615377089 0 0  0.4792307692300266 0 0  0.4819230769223441 0 0  0.4846153846146617 0 0  0.4873076923069792 0 0  0.489999999999292 0 0  0.4926923076916048 0 0  0.4953846153839174 0 0  0.4980769230762301 0 0  0.5007692307685402 0 0  0.5034615384608481 0 0  0.5061538461531575 0 0  0.5088461538454702 0 0  0.5115384615377837 0 0  0.5142307692301061 0 0  0.5169230769224287 0 0  0.5196153846147429 0 0  0.5223076923070555 0 0  0.5249999999993683 0 0  0.527692307691681 0 0  0.5303846153839974 0 0  0.5330769230763198 0 0  0.5357692307686409 0 0  0.5384615384609537 0 0  0.5411538461532663 0 0  0.5438461538455703 0 0  0.5465384615378733 0 0  0.5492307692301829 0 0  0.5519230769224956 0 0  0.5546153846148125 0 0  0.5573076923071351 0 0  0.5599999999994555 0 0  0.5626923076917683 0 0  0.5653846153840809 0 0  0.5680769230763936 0 0  0.5707692307687064 0 0  0.5734615384610262 0 0  0.5761538461533487 0 0  0.5788461538456712 0 0  0.5815384615379936 0 0  0.5842307692303135 0 0  0.5869230769226261 0 0  0.5896153846149389 0 0  0.5923076923072516 0 0  0.5949999999995643 0 0  0.5976923076918849 0 0  0.6003846153842073 0 0  0.6030769230765242 0 0  0.605769230768837 0 0  0.6084615384611465 0 0  0.6111538461534496 0 0  0.6138461538457535 0 0  0.6165384615380662 0 0  0.6192307692303789 0 0  0.6219230769227 0 0  0.6246153846150224 0 0  0.6273076923073388 0 0  0.6299999999996516 0 0  0.6326923076919642 0 0  0.6353846153842769 0 0  0.6380769230765913 0 0  0.6407692307689137 0 0  0.6434615384612361 0 0  0.6461538461535496 0 0  0.6488461538458623 0 0  0.6515384615381684 0 0  0.6542307692304714 0 0  0.6569230769227788 0 0  0.6596153846150916 0 0  0.6623076923074064 0 0  0.6649999999997288 0 0  0.6676923076920513 0 0  0.6703846153843642 0 0  0.6730769230766769 0 0  0.6757692307689896 0 0  0.6784615384613023 0 0  0.6811538461536201 0 0  0.6838461538459425 0 0  0.6865384615382623 0 0  0.689230769230575 0 0  0.6919230769228872 0 0  0.6946153846151903 0 0  0.6973076923074933 0 0  0.6999999999998043 0 0  0.702692307692117 0 0  0.7053846153844354 0 0  0.7080769230767577 0 0  0.7107692307690769 0 0  0.7134615384613896 0 0  0.7161538461537023 0 0  0.718846153846015 0 0  0.7215384615383277 0 0  0.724230769230649 0 0  0.7269230769229713 0 0  0.7296153846152876 0 0  0.7323076923076003 0 0  0.7349999999999092 0 0  0.7376923076922122 0 0  0.7403846153845167 0 0  0.7430769230768295 0 0  0.7457692307691423 0 0  0.748461538461464 0 0  0.7511538461537864 0 0  0.7538461538461021 0 0  0.7565384615384148 0 0  0.7592307692307275 0 0  0.7619230769230403 0 0  0.7646153846153552 0 0  0.7673076923076777 0 0  0.77 0.002678571428566427 0  0.77 0.005357142857132536 0  0.77 0.008035714285698086 0  0.77 0.01071428571426477 0  0.77 0.01339285714283192 0  0.77 0.01607142857139917 0  0.77 0.01874999999996588 0  0.77 0.02142857142853017 0  0.77 0.02410714285709379 0  0.77 0.0267857142856574 0  0.77 0.02946428571422236 0  0.77 0.03214285714278598 0  0.77 0.03482142857134959 0  0.77 0.0374999999999132 0  0.77 0.04017857142847682 0  0.77 0.04285714285704043 0  0.77 0.04553571428560405 0  0.77 0.04821428571416767 0  0.77 0.05089285714273128 0  0.77 0.05357142857129488 0  0.77 0.05624999999985985 0  0.77 0.05892857142842482 0  0.77 0.06160714285698844 0  0.77 0.06428571428555205 0  0.77 0.06696428571411567 0  0.77 0.06964285714267927 0  0.77 0.07232142857124288 0  0.77 0.07499999999980922 0  0.77 0.07767857142838523 0  0.77 0.08035714285696278 0  0.77 0.08303571428554266 0  0.77 0.08571428571411904 0  0.77 0.08839285714270011 0  0.77 0.09107142857127612 0  0.77 0.09374999999985754 0  0.77 0.09642857142843357 0  0.77 0.09910714285701384 0  0.77 0.101785714285591 0  0.77 0.1044642857141701 0  0.77 0.1071428571427485 0  0.77 0.1098214285713264 0  0.77 0.1124999999999059 0  0.77 0.1151785714284854 0  0.77 0.1178571428570634 0  0.77 0.1205357142856417 0  0.77 0.1232142857142209 0  0.77 0.1258928571427942 0  0.77 0.1285714285713702 0  0.77 0.1312499999999516 0  0.77 0.1339285714285276 0  0.77 0.1366071428571091 0  0.77 0.1392857142856851 0  0.77 0.1419642857142665 0  0.77 0.1446428571428425 0  0.77 0.1473214285714224 0  0.7673076923077067 0.15 0  0.7646153846154133 0.15 0  0.7619230769231125 0.15 0  0.7592307692308095 0.15 0  0.7565384615385063 0.15 0  0.7538461538462033 0.15 0  0.7511538461539002 0.15 0  0.7484615384615971 0.15 0  0.7457692307692941 0.15 0  0.743076923076991 0.15 0  0.7403846153846879 0.15 0  0.7376923076923849 0.15 0  0.7350000000000818 0.15 0  0.7323076923077787 0.15 0  0.7296153846154757 0.15 0  0.7269230769231726 0.15 0  0.7242307692308696 0.15 0  0.7215384615385665 0.15 0  0.7188461538462634 0.15 0  0.7161538461539604 0.15 0  0.7134615384616573 0.15 0  0.7107692307693542 0.15 0  0.7080769230770512 0.15 0  0.7053846153847481 0.15 0  0.702692307692445 0.15 0  0.700000000000142 0.15 0  0.6973076923078388 0.15 0  0.6946153846155358 0.15 0  0.6919230769232327 0.15 0  0.6892307692309296 0.15 0  0.6865384615386265 0.15 0  0.6838461538463235 0.15 0  0.6811538461540204 0.15 0  0.6784615384617174 0.15 0  0.6757692307694143 0.15 0  0.6730769230771112 0.15 0  0.6703846153848081 0.15 0  0.6676923076925051 0.15 0  0.665000000000202 0.15 0  0.662307692307899 0.15 0  0.6596153846155959 0.15 0  0.6569230769232928 0.15 0  0.6542307692309897 0.15 0  0.6515384615386867 0.15 0  0.6488461538463836 0.15 0  0.6461538461540804 0.15 0  0.6434615384617781 0.15 0  0.6407692307694848 0.15 0  0.6380769230771914 0.15 0  0.6353846153848981 0.15 0  0.6326923076926048 0.
[...]
<PointData  Scalars="pressure"> 
<DataArray  type="Float64"  Name="pressure"  format="ascii">1.6317394061342138e+04  3.9695984815192418e+00  3.9562699053832273e+00  1.6328733020095990e+04  1.1868132296919393e+04  1.6272056183356573e+04  1.6255700022126648e+04  1.6238778463603339e+04  1.6220802538572027e+04  1.6203887487894563e+04  1.6185272209207702e+04  1.6167933814234220e+04  1.6153167049898186e+04  1.1752317503903558e+04  1.1734668619914848e+04  1.1720325574272236e+04  1.1704212746048275e+04  1.1688518788416946e+04  1.1674133814141698e+04  1.1660472154138617e+04  1.1643564204574495e+04  1.1632208170518561e+04  1.1614472591090163e+04  1.1598938198438203e+04  1.1586382657037489e+04  1.1571130972908270e+04  1.1557330907619345e+04  1.1542654454203734e+04  1.1532943159341216e+04  1.1516453938141049e+04  1.1505554524582065e+04  1.1491868053144815e+04  1.1481038745866928e+04  1.1468098396638454e+04  1.1451073440768885e+04  1.1437086209674342e+04  1.1427206694729783e+04  1.1413503256218653e+04  1.1401527569272968e+04  1.1388352379579152e+04  1.1375529124607165e+04  1.1362175451870484e+04  1.1348463220465579e+04  1.1338383215233449e+04  1.1326207554105782e+04  1.1309997409773812e+04  1.1298970610357885e+04  1.1281622369418765e+04  1.1269481226103839e+04  1.1260344837458182e+04  1.1245007389563409e+04  1.1227215631531422e+04  1.1212255064906118e+04  1.1202126717188561e+04  1.1186722710187247e+04  1.1171060583134829e+04  1.1152344901387769e+04  1.1137552211316297e+04  1.1124355940589205e+04  1.1109439946145980e+04  1.1097740313414464e+04  1.1083523056087819e+04  1.1070780611236345e+04  1.1055442026147501e+04  1.5161177962886688e+04  1.1031623283488121e+04  1.1016374600997167e+04  1.1003047167968200e+04  1.5093531041495993e+04  1.0975959716537700e+04  1.0959847248466036e+04  1.0942802238558599e+04  1.0926458377212570e+04  1.0910995464708192e+04  1.0897365085372248e+04  1.0884244533047793e+04  1.0872499373374567e+04  1.0861442814845672e+04  1.0845937729020758e+04  1.0831117914467053e+04  1.0814991397492155e+04  1.0800001209174552e+04  1.0786080058079753e+04  1.0772175799542119e+04  1.0757684618127601e+04  1.0742154123432723e+04  1.0726453043917454e+04  1.0710727957803771e+04  1.0695306317626919e+04  1.0680091270644434e+04  1.0664917015963398e+04  1.0650698278956421e+04  1.0636766399067066e+04  1.0622557523091124e+04  1.0607660990343684e+04  1.0591911548259963e+04  1.0575512706607231e+04  1.0559186422885432e+04  1.0543970739870938e+04  1.0529034096207144e+04  1.0513903067671583e+04  1.0498046358353060e+04  1.0482968342645319e+04  1.0467141545385022e+04  1.0454774693191133e+04  1.0442769841955060e+04  1.0433280163951011e+04  1.0418707814144695e+04  1.0408605909874652e+04  1.0397758195915698e+04  1.0384569650099900e+04  1.0373999138121106e+04  1.0365757533286980e+04  1.0349242926928338e+04  1.0334302187917667e+04  1.0321031151270412e+04  1.0310348593480339e+04  1.0297760441605027e+04  1.0284843743196672e+04  1.0271193402116452e+04  1.0258142644476051e+04  1.0242964260738725e+04  1.0226520130075389e+04  1.0208537289919523e+04  1.0189655052190505e+04  1.0170804594469990e+04  1.0152539248540847e+04  1.0135222395417515e+04  1.0117336901400120e+04  1.0100218234890663e+04  1.0085436144016687e+04  1.0070488034896624e+04  1.0056937414985865e+04  1.0043565673153757e+04  1.0030854773735306e+04  1.0017415550641632e+04  1.0003960448821754e+04  9.9878919902146463e+03  9.9730333769272256e+03  9.9557127835879310e+03  9.9393106258467124e+03  9.9206089962102487e+03  9.9000486911140415e+03  9.8762671451688620e+03  9.8465992336929594e+03  9.8105070253668782e+03  9.7717551526353600e+03  9.7304821042003532e+03  9.6859617469821897e+03  9.6427395030293865e+03  9.5996172813434696e+03  9.5567217056747013e+03  9.5124528432015304e+03  9.4698874615140321e+03  9.4274844737768308e+03  9.3852958332951785e+03  9.3416355109992037e+03  9.3003773757552972e+03  9.2586106611989871e+03  9.2198972830437506e+03  9.1777101144363096e+03  9.1393294831209769e+03  9.0999670075363792e+03  9.0616404599066173e+03  9.0243130871582234e+03  8.9865408431676569e+03  8.9526540534336091e+03  8.9166420680179635e+03  8.8818879109081063e+03  8.8487869978268700e+03  8.8135972475613071e+03  8.7814919066674647e+03  8.7495622425225374e+03  8.7171334359961493e+03  8.6827412104193536e+03  8.6513998496384829e+03  8.6176438949611602e+03  8.5857299025631146e+03  8.5505881114332951e+03  8.5172527424227628e+03  8.4826539436773091e+03  8.4475697231384165e+03  8.4119280295341869e+03  8.3765271841710874e+03  8.3404391020906405e+03  8.3045447765457193e+03  8.2681010602079241e+03  8.2311278851221505e+03  8.1939286375553347e+03  8.1550126787263780e+03  8.1135775243633207e+03  8.0749119657355841e+03  8.0341303668057581e+03  7.9907591293691421e+03  7.9479559872884201e+03  7.9024891902162781e+03  7.8551478098055977e+03  7.8065568906887738e+03  7.7543126603113660e+03  7.7039429784442827e+03  7.6483865544144837e+03  7.5906915340627611e+03  7.5283907335577996e+03  7.4692571961749818e+03  7.4047876866368542e+03  7.3396627046349995e+03  7.2681796866516015e+03  7.1955963875617890e+03  7.1261402555175000e+03  7.0492843190063168e+03  6.9743202656116400e+03  6.8937379826237766e+03  6.8179927961023341e+03  6.7328310379610912e+03  6.6517112355696681e+03  6.5694435270180929e+03  6.4874372659833234e+03  6.4021179635481085e+03  6.3127134709415368e+03  6.2305438073785008e+03  6.1442843717452488e+03  6.0518768429412848e+03  5.9680324394178842e+03  5.8787455621756026e+03  5.7920560010290592e+03  5.7011467909201556e+03  5.6157548953924743e+03  5.5260488056364511e+03  5.4379557465082298e+03  5.3461342452086537e+03  5.2617457296706370e+03  5.1678814785850091e+03  5.0793406370435687e+03  4.9906707557607515e+03  4.9020588195966257e+03  4.8128461375311945e+03  4.7209491289721927e+03  4.6330092219601056e+03  4.5438613666119418e+03  4.4553356195362594e+03  4.3631712598683089e+03  4.2775725517572255e+03  4.1855770831381124e+03  4.0989089770256296e+03  4.0036556603423619e+03  3.9184866686528344e+03  3.8272177787676951e+03  3.7382941278496887e+03  3.6498063338084007e+03  3.5617898333517132e+03  3.4700560701772283e+03  3.3809380182689920e+03  3.2931670037461827e+03  3.2045927432137842e+03  3.1129204089660498e+03  3.0282480761653806e+03  2.9365326705201533e+03  2.8451610754330450e+03  2.7559734797684318e+03  2.6679971805529317e+03  2.5820883187241311e+03  2.4889500827535244e+03  2.4018247812923455e+03  2.3114845030425217e+03  2.2232812543433110e+03  2.1326585299054846e+03  2.0470419588754855e+03  1.9558176310832923e+03  1.8700078791524872e+03  1.7793821652069300e+03  1.6915589312483662e+03  1.5998213011588571e+03  1.5115775723051606e+03  1.4248391962454443e+03  1.3360027812522214e+03  1.2425682270763834e+03  1.1552777999757147e+03  1.0675003002280448e+03  9.7771313495539766e+02  8.9038119014036795e+02  7.9763050293313017e+02  7.1431717590875655e+02  6.2412303973258088e+02  5.3536744166203823e+02  4.4219502927429733e+02  3.5392817190236650e+02  2.6598933088938776e+02  1.7711482676076491e+02  8.7773774277324321e+01  -6.5127099650731035e-01  1.1065159285912765e-01  -6.4988772579893878e-03  5.4148668088354593e-04  -3.7995596159543735e-04  -1.2563256173364095e-04  -7.7299222349726352e-05  -5.2608087321606850e-05  -4.5714721113350425e-05  -1.3591611345015065e-04  2.0405675164288526e-04  -1.4194482921792197e-04  4.9315646731451871e-05  -3.2825036929790170e-04  1.0987433026478550e-04  9.3657167042513693e-05  -1.0050274256848031e-04  -1.6948866291906014e-04  8.6470461684373556e-05  1.5979125850006893e-04  7.6161529250268602e-05  1.0448243359691097e-04  -3.8342197685218320e-05  4.7984101883628459e-04  9.5576748953596252e-05  1.6584615350548432e-04  -1.1042114245407251e-04  -1.0484780641878233e-04  -2.2291617739073814e-04  4.0659211413289573e-04  1.0957366343389547e-04  -8.1637335801609089e-06  -3.0498277300886706e-05  1.2503591271323852e-04  5.6422018157118790e-05  -9.4537296539968477e-05  -3.8851198949627238e-05  3.4006544364386472e-04  6.3383186539809571e-06  1.4926422973282681e-04  -4.5348958171678922e-05  1.5625484302809342e-04  -7.8436274604388415e-05  1.0015084886863697e-04  -1.6721784029793203e-04  1.0583190020570446e-04  2.0371696747486900e-05  3.1778043695937730e-05  -1.9912672583198535e-05  3.4273057716871443e-07  -3.1586050791907220e-04  5.2480305250826207e-04  -6.3191456992315520e-03  1.1028360986282991e-01  -6.4915648598595110e-01  8.7478704008040751e+01  1.7651891045048032e+02  2.6509113014693315e+02  3.5272932870219256e+02  4.4068961307908211e+02  5.3353358313285446e+02  6.2197065590822046e+02  7.1183404809442129e+02  7.9483433167541182e+02  8.8722738579822988e+02  9.7421301273977747e+02  1.0636309410194681e+03  1.1510384273885056e+03  1.2379449103315756e+03  1.3309542830536070e+03  1.4193689450128491e+03  1.5056815511525222e+03  1.5934704358636636e+03  1.6847156125725141e+03  1.7720433556793148e+03  1.8621390503087134e+03  1.9474193440884612e+03  2.0380543966203454e+03  2.1230917542024613e+03  2.2130652188450708e+03  2.3006125283630690e+03  2.3902408327294538e+03  2.4766438020742980e+03  2.5689687506402283e+03  2.6540916162937024e+03  2.7412119723636979e+03  2.8294925503438726e+03  2.9198807309995177e+03  3.0105558736673970e+03  3.0942165353953415e+03  3.1847327158517987e+03  3.2721242860232242e+03  3.3586687909993138e+03  3.4464648857634088e+03  3.5367579660732636e+03  3.6233397943112077e+03  3.7102706949789135e+03  3.7975714938353422e+03  3.8870742680534918e+03  3.9705010569142355e+03  4.0636997640435952e+03  4.1484119798433094e+03  4.2382041105497865e+03  4.3216475963916719e+03  4.4113689903864888e+03  4.4974135746813936e+03  4.5839504252710958e+03  4.6691577345500418e+03  4.7580839783340634e+03  4.8442507703848069e+03  4.9296389054283245e+03  5.0150149756157725e+03  5.0998903333586877e+03  5.1881356905049515e+03  5.2719573247216576e+03  5.3590826652521600e+03  5.4404158163659422e+03  5.5296021607313642e+03  5.6114034433996349e+03  5.6963745578451544e+03  5.7824200987948852e+03  5.8612004234046362e+03  5.9477924695645424e+03  6.0301298171858525e+03  6.1082488933387604e+03  6.1920472812399321e+03  6.2729606053893558e+03  6.3513455446911366e+03  6.4306784177731142e+03  6.5118954895575125e+03  6.5871401995947263e+03  6.6643939063594789e+03  6.7458401066362367e+03  6.8181853335026262e+03  6.8955210058164494e+03  6.9679224899419050e+03  7.0449156998536037e+03  7.1135267909541844e+03  7.1836233430274669e+03  7.2576303323225948e+03  7.3230476608848176e+03  7.3935137656892548e+03  7.4586477548710527e+03  7.5227413340420344e+03  7.5889518812665046e+03  7.6482674782089771e+03  7.7128974517322486e+03  7.7713164408835464e+03  7.8325291890136441e+03  7.8895513353315664e+03  7.9471851682603046e+03  8.0029473694114522e+03  8.0577753383844329e+03  8.1134774684689373e+03  8.1660055884084986e+03  8.2190809798890095e+03  8.2739733435065900e+03  8.3242020573112204e+03  8.3784543861236434e+03  8.4325587590416944e+03  8.4818541363131917e+03  8.5365683300051278e+03  8.5888699426987587e+03  8.6422566574026714e+03  8.6932769472532091e+03  8.7461176557653871e+03  8.7990458414545301e+03  8.8508577947897666e+03  8.8990195947770135e+03  8.9498658303446264e+03  8.9994598626887346e+03  9.0459758388348382e+03  9.0896761364843624e+03  9.1328798202387843e+03  9.1723320953946459e+03  9.2117038713662678e+03  9.2474740603781029e+03  9.2787360816911987e+03  9.3100635802500983e+03  9.3389868317575747e+03  9.3677195057113422e+03  9.3938837043896783e+03  9.4223129322944533e+03  9.4515711591998825e+03  9.4802804189504714e+03  9.5142681049667735e+03  9.5467321794579711e+03  9.5821458804400954e+03  9.6054416606414597e+03  9.6208109954870724e+03  9.6321792228043651e+03  9.6433490055211732e+03  9.6543979084768471e+03  9.6676013473424809e+03  9.6828306698747128e+03  9.6998863704621344e+03  9.7128107861045864e+03  9.7284170764848932e+03  9.7401123099756642e+03  9.7506420432833438e+03  9.7655321911256178e+03  9.7817666693602641e+03  9.7965678806496144e+03  9.8125911227098495e+03  9.8260061951752123e+03  9.8417922884565032e+03  9.8549250940847687e+03  9.8719320614410481e+03  9.8911104191675440e+03  9.9089079907019604e+03  9.9286499896648311e+03  9.9482483048941504e+03  9.9668145704627714e+03  9.9871942226732172e+03  1.0008179274526015e+04  1.0029212073566159e+04  1.0051075903858920e+04  1.0072923702504515e+04  1.0092065472310493e+04  1.0112110914218978e+04  1.0127327613624786e+04  1.0141925275779955e+04  1.0158377416362318e+04  1.0173676812175712e+04  1.0192704082380847e+04  1.0208926238357537e+04  1.0226272597887029e+04  1.0242361167646261e+04  1.0253768788307420e+04  1.0269213985981754e+04  1.0286029551024470e+04  1.0301547080788894e+04  1.0315817306905750e+04  1.0331515876326825e+04  1.0345767259925729e+04  1.0362342087857784e+04  1.0378815165616874e+04  1.0394552202721037e+04  1.0410590530218797e+04  1.0426985876656348e+04  1.0443258032845994e+04  1.0458400826060770e+04  1.0476073213021220e+04  1.0492850586111115e+04  1.0510709228677177e+04  1.0526467386815999e+04  1.0543704161780417e+04  1.0561723654690570e+04  1.0579277878328363e+04  1.0596521952374093e+04  1.0615357459142482e+04  1.0633370901552424e+04  1.0650998863152507e+04  1.0667549956285620e+04  1.0683310791783240e+04  1.0698521880394041e+04  1.0712896361191437e+04  1.0730067223729084e+04  1.0746732402401774e+04  1.0761967072301544e+04  1.0774516164594552e+04  1.0787897836585353e+04  1.0803064070900007e+04  1.0820775252089034e+04  1.0830504951797215e+04  1.0843884210322096e+04  1.0854677452024765e+04  1.0870608177458533e+04  1.0880571715146803e+04  1.0897129609560981e+04  1.0914840840773251e+04  1.0930795793036068e+04  1.0948637490586270e+04  1.0956571543705189e+04  1.0966524478130856e+04  1.0980699158190924e+04  1.0993822858828384e+04  1.1006179007801207e+04  1.1017644200004019e+04  1.1030485261959453e+04  1.1042227122465569e+04  1.1054257201101032e+04  1.1066339306390239e+04  1.1075684927324453e+04  1.1087899703521000e+04  1.1102381842393008e+04  1.1116765833724094e+04  1.1129101594726380e+04  1.1142784913040830e+04  1.1156354757528698e+04  1.1168914565459547e+04  1.1183275856186629e+04  1.1198575768048802e+04  1.1213257827580303e+04  1.1227739646547549e+04  1.1242953313157428e+04  1.1258124045333894e+04  1.1273428408371201e+04  1.1290519670454043e+04  1.1307954242268304e+04  1.1326638109764121e+04  1.1343881602819327e+04  1.1362211440084826e+04  1.1379558275311876e+04  1.1395395667085666e+04  1.1412494144574048e+04  1.1427328355624668e+04  1.1440864769613296e+04  1.1454088100174757e+04  1.1466409728037373e+04  1.1477440477693135e+04  1.1490117882096181e+04  1.1502080473747572e+04  1.1515796145141994e+04  1.1530399760573224e+04  1.1547230448495324e+04  1.1559714301461929e+04  1.1574625211638669e+04  1.1588007985944834e+04  1.1603418150756885e+04  1.1618826249071388e+04  1.1630241410395616e+04  1.1643519932682304e+04  1.1663352520062454e+04  1.1677736235220955e+04  1.1690307595384871e+04  1.1703655188456843e+04  1.1718025439774025e+04  1.1732554397975326e+04  1.1745252243041137e+04  1.1758740888169512e+04  1.1772192461657860e+04  1.1787413377229372e+04  1.6200179732186863e+04  1.6215235743383593e+04  1.6231331686057401e+04  1.6249286858894813e+04  1.6266444794823852e+04  1.6283090670151800e+04  1.1876358278143591e+04  1.6321321707596057e+04  1.6318879270882971e+04  1.6318434165061184e+04  1.6317963893175431e+04  1.6317568041078261e+04  1.6317057465885549e+04  1.6316573185771009e+04  1.6316187274300191e+04  1.6315997420282383e+04  1.6315997511599022e+04  1.6315992835560533e+04  1.6315830719482392e+04  1.6315230710026255e+04  1.6314057690552723e+04  1.6312575920897625e+04  1.6310975872197359e+04  1.6309579345607528e+04  1.6308325771313999e+04  1.6307404052626449e+04  1.6306834065248046e+04  1.6306472224022875e+04  1.6306394579728176e+04  1.6306456888952978e+04  1.6306498953917135e+04  1.6306321866524853e+04  1.6305760118932232e+04  1.6304731429257239e+04  1.6303670357453080e+04  1.6302761612570641e+04  1.6302108641980298e+04  1.6301710927993629e+04  1.6301593393879746e+04  1.6301554936855980e+04  1.6301433330998712e+04  1.6300990361136133e+04  1.6300165772743872e+04  1.6299003641693173e+04  1.6297829354580281e+04  1.6296778979635988e+04  1.6296060654710232e+04  1.6295581701968807e+04  1.6295408167192023e+04  1.6295512740307942e+04  1.6295859544416866e+04  1.6296499065035845e+04  1.6297358539182473e+04  1.6298457323545425e+04  1.6299729837553454e+04  1.6301203709563692e+04  1.6302688427824713e+04  1.6304161238817875e+04  1.6305353447656245e+04  1.6306402670998879e+04  1.6307296894907797e+04  1.6309917072257545e+04  2.4703934711517163e+03  1.5785159768353073e+04  7.7424073443968864e+03  5.0102153621498892e+03  1.5173867954934894e+04  1.4532230516265488e+04  1.3935507268878762e+04  8.8595108446711038e+03  1.3393273558138835e+04  1.1355263061431642e+04  1.4847295495077633e+04  1.4867779507441073e+04  1.5495525599311077e+04  1.5483113223189435e+04  1.1303896136479396e+04  6.2741933433442910e+03  6.3708333306268578e+03  3.7340685472448449e+03  3.7510979826035441e+03  1.3029039337407628e+04  1.4270506828900821e+04  1.4236540068472157e+04  1.3523127424320746e+04  1.4504619934089790e+03  1.6005570447011718e+04  1.6001427002961589e+04  1.4331601938105850e+03  1.3758827189724765e+04  9.1377181191173149e+03  8.6860877338875325e+03  7.7148002710394585e+03  9.0356345872550664e+03  1.4585279710653345e+04  1.5120569581703463e+04  1.4598163932718227e+04  1.5127756262759536e+04  1.5737574630936388e+04  1.1470955717856255e+04  7.8697773680768942e+03  5.0825635381249067e+03  5.1311068853825664e+03  1.3875445269970998e+04  2.6114409176127238e+03  2.6243602977829501e+03  1.4026605624730879e+04  1.0751273890817065e+03  1.6083829436200969e+04  9.8511501544685107e+03  9.9278826883874481e+03  1.2812604280895144e+04  1.1609300926723921e+04  1.5332804847639245e+04  1.4741290407494473e+04  1.5315475494084985e+04  1.4311892153591782e+04  6.8994425338836554e+03  1.3322855630940952e+04  3.4338948743247524e+03  6.6969237512022482e+03  1.1159567838390329e+04  1.4963645733779165e+04  1.5597988953387754e+04  1.2870828846111797e+04  1.4377602523324347e+04  1.5386684081723510e+04  1.4407683147915912e+04  6.9663501658456062e+03  8.5258994945859104e+03  1.3282580157461105e+04  4.2878355811213178e+03  4.3317725842119380e+03  1.4768090058408568e+04  8.3912935688411144e+03  1.4785450363134212e+04  1.5577427198668922e+04  1.5564341606450875e+04  8.0662529293080524e+03  1.6146179121895100e+04  1.6130905571173122e+04  8.4271217443727926e+02  8.4015998977815775e+02  1.3669719216532116e+04  1.4970632855556456e+04  5.7991808419554291e+03  5.8941755181941435e+03  1.5276944183314452e+04  7.3214569396683682e+03  1.4097447602519140e+04  1.4436715953109331e+04  1.4943903080918622e+04  1.4423796353259713e+04  5.8392920682895865e+03  7.0782075248168549e+03  8.0703388316396367e+03  1.2804264952846686e+04  3.3402694644815592e+03  3.3594320090464253e+03  4.2294093624773495e+03  1.1564649468596997e+04  1.5893368413778473e+04  8.9049420050254230e+03  1.5276813414879040e+04  4.5534362377828775e+03  9.4847972510802374e+03  1.4137125396314081e+04  5.6086877615270405e+03  1.9049347792014780e+03  1.9092559279219872e+03  9.9921059374524502e+03  1.4204949831231406e+04  1.0236218221467541e+04  1.5927166718191202e+04  1.7828362354664328e+03  1.5852208517887670e+04  1.3101619665866996e+04  2.9482632841804580e+03  2.9548316118277148e+03  2.1266200809943066e+03  7.6294371158408296e+02  1.6155446104361858e+04  7.5210332760321705e+02  1.6144963914000096e+04  1.2178840872858962e+04  1.0124824545471280e+04  8.5928093213751636e+03  1.3883446751471893e+04  1.0974549760546404e+04  1.0707407539323134e+04  1.5692230374486933e+04  1.5688264234547114e+04  1.5070012069805485e+04  1.0006016641362337e+04  1.5075523563408800e+04  9.5059002630226805e+03  4.4640434674758026e+03  1.0662542167403939e+04  7.9655995937542812e+03  1.3592306385658205e+04  1.1607903249327483e+04  1.3494264450237102e+04  1.5202876220890963e+04  7.3739611381074119e+03  1.5189986235673452e+04  1.5864333437651423e+04  9.240252