<?xml version="1.0"?>
<VTKFile type="UnstructuredGrid"  version="0.1"  >
<UnstructuredGrid>
<Piece  NumberOfPoints="12263" NumberOfCells="24015">
<Points>
<DataArray  type="Float64"  NumberOfComponents="3"  format="ascii">0 0 0  0.7 0 0  0.7 0.25 0  0 0.25 0  0.004999999999990235 0 0  0.009999999999980452 0 0  0.01499999999997117 0 0  0.01999999999996156 0 0  0.024999999999951 0 0  0.02999999999993964 0 0  0.03499999999992773 0 0  0.03999999999991589 0 0  0.04499999999990548 0 0  0.04999999999989713 0 0  0.05499999999988982 0 0  0.05999999999988251 0 0  0.06499999999987401 0 0  0.06999999999986654 0 0  0.07499999999985923 0 0  0.07999999999985022 0 0  0.08499999999984044 0 0  0.08999999999982942 0 0  0.09499999999981613 0 0  0.0999999999998014 0 0  0.1049999999997872 0 0  0.1099999999997749 0 0  0.1149999999997626 0 0  0.1199999999997479 0 0  0.1249999999997331 0 0  0.1299999999997225 0 0  0.1349999999997128 0 0  0.1399999999996997 0 0  0.144999999999685 0 0  0.1499999999996702 0 0  0.1549999999996555 0 0  0.1599999999996407 0 0  0.164999999999626 0 0  0.1699999999996112 0 0  0.1749999999995965 0 0  0.1799999999995818 0 0  0.184999999999567 0 0  0.1899999999995522 0 0  0.1949999999995375 0 0  0.1999999999995228 0 0  0.204999999999508 0 0  0.2099999999994933 0 0  0.2149999999994802 0 0  0.2199999999994705 0 0  0.22499999999946 0 0  0.2299999999994452 0 0  0.2349999999994304 0 0  0.2399999999994157 0 0  0.2449999999994009 0 0  0.2499999999993862 0 0  0.2549999999993715 0 0  0.2599999999993567 0 0  0.2649999999993419 0 0  0.2699999999993272 0 0  0.2749999999993125 0 0  0.2799999999992978 0 0  0.284999999999283 0 0  0.2899999999992683 0 0  0.2949999999992535 0 0  0.2999999999992388 0 0  0.3049999999992241 0 0  0.3099999999992092 0 0  0.3149999999991945 0 0  0.3199999999991798 0 0  0.324999999999165 0 0  0.3299999999991503 0 0  0.3349999999991355 0 0  0.3399999999991208 0 0  0.344999999999107 0 0  0.3499999999991022 0 0  0.3549999999991172 0 0  0.3599999999991322 0 0  0.3649999999991391 0 0  0.3699999999991513 0 0  0.3749999999991663 0 0  0.3799999999991814 0 0  0.3849999999991964 0 0  0.389999999999208 0 0  0.3949999999992155 0 0  0.3999999999992306 0 0  0.4049999999992456 0 0  0.4099999999992606 0 0  0.4149999999992756 0 0  0.4199999999992819 0 0  0.4249999999992947 0 0  0.4299999999993097 0 0  0.4349999999993247 0 0  0.4399999999993398 0 0  0.4449999999993547 0 0  0.4499999999993698 0 0  0.4549999999993826 0 0  0.459999999999389 0 0  0.4649999999994039 0 0  0.4699999999994189 0 0  0.4749999999994339 0 0  0.479999999999449 0 0  0.4849999999994565 0 0  0.4899999999994681 0 0  0.4949999999994831 0 0  0.4999999999994935 0 0  0.5049999999994985 0 0  0.5099999999995036 0 0  0.5149999999995087 0 0  0.5199999999995156 0 0  0.5249999999995404 0 0  0.5299999999995654 0 0  0.5349999999995723 0 0  0.5399999999995774 0 0  0.5449999999995824 0 0  0.5499999999995999 0 0  0.5549999999996248 0 0  0.559999999999641 0 0  0.564999999999646 0 0  0.5699999999996511 0 0  0.5749999999996592 0 0  0.5799999999996842 0 0  0.584999999999709 0 0  0.5899999999997148 0 0  0.5949999999997199 0 0  0.5999999999997249 0 0  0.6049999999997436 0 0  0.6099999999997685 0 0  0.6149999999997834 0 0  0.6199999999997885 0 0  0.6249999999997936 0 0  0.6299999999998029 0 0  0.6349999999998279 0 0  0.6399999999998521 0 0  0.6449999999998572 0 0  0.6499999999998622 0 0  0.6549999999998674 0 0  0.6599999999998872 0 0  0.6649999999999123 0 0  0.669999999999926 0 0  0.6749999999999312 0 0  0.6799999999999361 0 0  0.684999999999947 0 0  0.6899999999999717 0 0  0.6949999999999948 0 0  0.7 0.004999999999990592 0  0.7 0.009999999999980465 0  0.7 0.01499999999996959 0  0.7 0.0199999999999613 0  0.7 0.02499999999995366 0  0.7 0.02999999999994579 0  0.7 0.0349999999999332 0  0.7 0.03999999999991863 0  0.7 0.04499999999990405 0  0.7 0.04999999999988947 0  0.7 0.05499999999987491 0  0.7 0.05999999999986033 0  0.7 0.06499999999984575 0  0.7 0.06999999999983118 0  0.7 0.0749999999998166 0  0.7 0.07999999999980204 0  0.7 0.08499999999978745 0  0.7 0.08999999999977287 0  0.7 0.09499999999975831 0  0.7 0.09999999999974372 0  0.7 0.1049999999997292 0  0.7 0.1099999999997146 0  0.7 0.1149999999997 0  0.7 0.1199999999996854 0  0.7 0.1249999999996736 0  0.7 0.129999999999684 0  0.7 0.1349999999996972 0  0.7 0.1399999999997104 0  0.7 0.1449999999997235 0  0.7 0.1499999999997367 0  0.7 0.1549999999997499 0  0.7 0.159999999999763 0  0.7 0.1649999999997762 0  0.7 0.1699999999997893 0  0.7 0.1749999999998025 0  0.7 0.1799999999998157 0  0.7 0.1849999999998289 0  0.7 0.189999999999842 0  0.7 0.1949999999998552 0  0.7 0.1999999999998683 0  0.7 0.2049999999998815 0  0.7 0.2099999999998947 0  0.7 0.2149999999999078 0  0.7 0.219999999999921 0  0.7 0.2249999999999342 0  0.7 0.2299999999999474 0  0.7 0.2349999999999605 0  0.7 0.2399999999999737 0  0.7 0.2449999999999869 0  0.6949999999999955 0.25 0  0.6900000000000089 0.25 0  0.6850000000000404 0.25 0  0.6800000000000613 0.25 0  0.6750000000000642 0.25 0  0.6700000000000598 0.25 0  0.6650000000000639 0.25 0  0.6600000000000861 0.25 0  0.6550000000001163 0.25 0  0.6500000000001285 0.25 0  0.645000000000124 0.25 0  0.6400000000001195 0.25 0  0.6350000000001342 0.25 0  0.6300000000001669 0.25 0  0.6250000000001865 0.25 0  0.6200000000001883 0.25 0  0.6150000000001837 0.25 0  0.6100000000001892 0.25 0  0.6050000000002126 0.25 0  0.6000000000002416 0.25 0  0.5950000000002525 0.25 0  0.590000000000248 0.25 0  0.5850000000002442 0.25 0  0.5800000000002595 0.25 0  0.5750000000002934 0.25 0  0.5700000000003118 0.25 0  0.5650000000003124 0.25 0  0.5600000000003078 0.25 0  0.5550000000003145 0.25 0  0.5500000000003391 0.25 0  0.5450000000003669 0.25 0  0.5400000000003766 0.25 0  0.5350000000003721 0.25 0  0.5300000000003695 0.25 0  0.5250000000003848 0.25 0  0.52000000000042 0.25 0  0.5150000000004371 0.25 0  0.5100000000004363 0.25 0  0.5050000000004319 0.25 0  0.5000000000004399 0.25 0  0.4950000000004604 0.25 0  0.490000000000477 0.25 0  0.485000000000479 0.25 0  0.480000000000477 0.25 0  0.4750000000004855 0.25 0  0.4700000000005108 0.25 0  0.465000000000536 0.25 0  0.460000000000542 0.25 0  0.4550000000005475 0.25 0  0.4500000000005606 0.25 0  0.445000000000576 0.25 0  0.4400000000005913 0.25 0  0.4350000000006066 0.25 0  0.430000000000622 0.25 0  0.4250000000006373 0.25 0  0.4200000000006526 0.25 0  0.415000000000668 0.25 0  0.4100000000006833 0.25 0  0.4050000000006987 0.25 0  0.400000000000714 0.25 0  0.3950000000007293 0.25 0  0.3900000000007446 0.25 0  0.38500000000076 0.25 0  0.3800000000007753 0.25 0  0.3750000000007907 0.25 0  0.370000000000806 0.25 0  0.3650000000008213 0.25 0  0.3600000000008367 0.25 0  0.355000000000851 0.25 0  0.3500000000008565 0.25 0  0.345000000000842 0.25 0  0.3400000000008276 0.25 0  0.3350000000008213 0.25 0  0.3300000000008096 0.25 0  0.3250000000007953 0.25 0  0.3200000000007808 0.25 0  0.3150000000007664 0.25 0  0.3100000000007553 0.25 0  0.3050000000007484 0.25 0  0.300000000000734 0.25 0  0.2950000000007196 0.25 0  0.2900000000007051 0.25 0  0.2850000000006907 0.25 0  0.280000000000685 0.25 0  0.2750000000006728 0.25 0  0.2700000000006584 0.25 0  0.2650000000006439 0.25 0  0.2600000000006295 0.25 0  0.2550000000006151 0.25 0  0.2500000000006007 0.25 0  0.2450000000005884 0.25 0  0.2400000000005827 0.25 0  0.2350000000005683 0.25 0  0.2300000000005538 0.25 0  0.2250000000005395 0.25 0  0.2200000000005251 0.25 0  0.2150000000005181 0.25 0  0.2100000000005071 0.25 0  0.2050000000004926 0.25 0  0.2000000000004829 0.25 0  0.1950000000004785 0.25 0  0.1900000000004739 0.25 0  0.1850000000004695 0.25 0  0.1800000000004631 0.25 0  0.1750000000004388 0.25 0  0.1700000000004145 0.25 0  0.1650000000004082 0.25 0  0.1600000000004037 0.25 0  0.1550000000003993 0.25 0  0.1500000000003824 0.25 0  0.1450000000003581 0.25 0  0.1400000000003424 0.25 0  0.135000000000338 0.25 0  0.1300000000003335 0.25 0  0.1250000000003259 0.25 0  0.1200000000003015 0.25 0  0.1150000000002773 0.25 0  0.1100000000002722 0.25 0  0.1050000000002677 0.25 0  0.1000000000002632 0.25 0  0.09500000000024511 0.25 0  0.0900000000002209 0.25 0  0.08500000000020647 0.25 0  0.08000000000020191 0.25 0  0.07500000000019746 0.25 0  0.07000000000018869 0.25 0  0.06500000000016448 0.25 0  0.06000000000014072 0.25 0  0.05500000000013616 0.25 0  0.05000000000013183 0.25 0  0.04500000000012738 0.25 0  0.04000000000010784 0.25 0  0.03500000000008352 0.25 0  0.03000000000007041 0.25 0  0.02500000000006586 0.25 0  0.02000000000006141 0.25 0  0.01500000000005131 0.25 0  0.01000000000002688 0.25 0  0.005000000000004445 0.25 0  0 0.2486033519553014 0  0 0.2472067039106029 0  0 0.2458100558659043 0  0 0.2444134078212058 0  0 0.2430167597765072 0  0 0.2416201117318087 0  0 0.2402234636871101 0  0 0.2388268156424116 0  0 0.237430167597713 0  0 0.2360335195530145 0  0 0.2346368715083159 0  0 0.2332402234636174 0  0 0.2318435754189188 0  0 0.2304469273742203 0  0 0.2290502793295217 0  0 0.2276536312848232 0  0 0.2262569832401246 0  0 0.224860335195426 0  0 0.2234636871507275 0  0 0.2220670391060289 0  0 0.2206703910613305 0  0 0.2192737430166358 0  0 0.217877094971946 0  0 0.2164804469272599 0  0 0.2150837988825769 0  0 0.2136871508378938 0  0 0.2122905027932108 0  0 0.2108938547485278 0  0 0.2094972067038447 0  0 0.2081005586591617 0  0 0.2067039106144786 0  0 0.2053072625697956 0  0 0.2039106145251125 0  0 0.2025139664804295 0  0 0.2011173184357464 0  0 0.1997206703910634 0  0 0.1983240223463804 0  0 0.1969273743016973 0  0 0.1955307262570143 0  0 0.1941340782123312 0  0 0.1927374301676482 0  0 0.1913407821229651 0  0 0.1899441340782821 0  0 0.188547486033599 0  0 0.187150837988916 0  0 0.1857541899442329 0  0 0.1843575418995499 0  0 0.1829608938548668 0  0 0.1815642458101838 0  0 0.1801675977655007 0  0 0.1787709497208177 0  0 0.1773743016761346 0  0 0.1759776536314516 0  0 0.1745810055867685 0  0 0.1731843575420855 0  0 0.1717877094974025 0  0 0.1703910614527194 0  0 
[...]
<PointData  Scalars="pressure"> 
<DataArray  type="Float64"  Name="pressure"  format="ascii">4.9935500870199612e-01  5.8505410224004033e-04  5.7198792654269081e-04  4.9937439336988365e-01  4.9779131772942403e-01  4.9691965173586494e-01  4.9608755165713792e-01  4.9532111789790773e-01  4.9458191004357255e-01  4.9403309496813502e-01  4.9390847280729461e-01  4.9432065736975117e-01  5.0122534250984141e-01  4.8912930231043678e-01  4.8202344604446112e-01  4.7582974016869001e-01  4.6957390300229918e-01  4.6470538053309585e-01  4.6092245333453463e-01  4.5716121086529576e-01  4.5332720482782402e-01  4.4924654240810719e-01  4.4500571446053439e-01  4.4077097250262481e-01  4.3664362105974958e-01  4.3265352097346960e-01  4.2879116088284924e-01  4.2493735765284901e-01  4.2103715704798911e-01  4.1704131361032154e-01  4.1293711627453356e-01  4.0874039990387262e-01  4.0450001633982291e-01  4.0025572873625237e-01  3.9603712652625794e-01  3.9186497604345605e-01  3.8778676281768215e-01  3.8375961423832744e-01  3.7980316593907992e-01  3.7588739245412645e-01  3.7199780267846239e-01  3.6813650969568307e-01  3.6429618175879303e-01  3.6048593219922775e-01  3.5671024938961116e-01  3.5297107040964337e-01  3.4926633324128115e-01  3.4560530164001796e-01  3.4197720045929114e-01  3.3840102223475915e-01  3.3486906828101648e-01  3.3137655835997099e-01  3.2791691268304907e-01  3.2447441127387833e-01  3.2104998637922533e-01  3.1763005722240811e-01  3.1421668148879900e-01  3.1080107830264064e-01  3.0737968792430809e-01  3.0395423064839955e-01  3.0052535177493744e-01  2.9710211992417673e-01  2.9369186703521544e-01  2.9029876072737176e-01  2.8692454873008111e-01  2.8356231439706842e-01  2.8020910919272740e-01  2.7685634467629677e-01  2.7349550790913818e-01  2.7012433523246204e-01  2.6674302603561856e-01  2.6334718380209460e-01  2.5994097841396652e-01  2.5652450744686106e-01  2.5310109853673596e-01  2.4967275560445631e-01  2.4623952192125151e-01  2.4280457637117839e-01  2.3936659881282410e-01  2.3592726670559264e-01  2.3248541310642828e-01  2.2904105440627431e-01  2.2559524625647170e-01  2.2214992253388857e-01  2.1870643857853758e-01  2.1526640992089854e-01  2.1182886606239992e-01  2.0838925025732763e-01  2.0494512450084179e-01  2.0148806780260808e-01  1.9801651812803872e-01  1.9452470731301882e-01  1.9101558211932937e-01  1.8748919960247817e-01  1.8395027872468953e-01  1.8040458927069641e-01  1.7685749387376279e-01  1.7331421010635736e-01  1.6977451442019084e-01  1.6624348375205758e-01  1.6271837298198455e-01  1.5919671721595008e-01  1.5567507646632908e-01  1.5214759382556292e-01  1.4860809449856141e-01  1.4505179393045833e-01  1.4147437161365187e-01  1.3786504462984994e-01  1.3422523293973831e-01  1.3054766861919773e-01  1.2682845674220231e-01  1.2306842922346947e-01  1.1926387805039891e-01  1.1542134633923648e-01  1.1154163767297522e-01  1.0763627643797001e-01  1.0370135034764433e-01  9.9756880262893949e-02  9.5803523753798484e-02  9.1845431942620279e-02  8.7895398181968995e-02  8.3953750308199238e-02  8.0023164609354602e-02  7.6114894289524462e-02  7.2227279065665465e-02  6.8357926302947819e-02  6.4514943065557578e-02  6.0697902085819246e-02  5.6904094428714413e-02  5.3132128940233309e-02  4.9379880745945688e-02  4.5646019641085361e-02  4.1927487266430724e-02  3.8226706030334512e-02  3.4538961842965975e-02  3.0866075880526107e-02  2.7203932004813098e-02  2.3549782422734908e-02  1.9903007491391983e-02  1.6251531986146154e-02  1.2568735287066594e-02  8.8437469339365214e-03  5.0416121070118343e-03  3.7330108330147714e-04  5.2541093666388862e-04  6.1068602268016085e-04  6.9601737145260202e-04  7.7247479655618407e-04  8.4970838201493760e-04  9.2641983520128026e-04  1.0048149939900202e-03  1.0660920344010161e-03  1.1007262820396096e-03  1.0876856178201359e-03  1.0032289216868014e-03  8.3944556470262838e-04  6.5003560095261306e-04  2.0863517234246684e-03  -2.7539504164943943e-03  -2.7885676429734250e-04  -1.0907027294934232e-03  -7.9858651864417123e-04  -7.4345112364458774e-04  -6.5432504149043260e-04  -5.6742985336700460e-04  -5.0665847340339136e-04  -4.7565945071908165e-04  -4.7634517777865809e-04  -5.5013326963411816e-04  -7.6786568530860691e-04  -4.2806610805646948e-04  -1.8306366651211143e-03  8.3921529790586158e-04  5.9348515975544849e-04  7.5575943073631006e-04  7.8669312356960104e-04  8.0474726914098464e-04  8.2966126945620993e-04  8.5368502765360030e-04  8.7375969985550189e-04  8.8393295182243590e-04  8.8724105408752914e-04  8.8095383698072536e-04  8.6498987538718064e-04  8.3989086673102867e-04  8.0978507655198148e-04  7.7024893933017242e-04  7.2261525083809294e-04  6.6694645600506126e-04  5.8304328135012743e-04  5.2274401950395271e-04  4.0378774801963637e-04  5.2272297134939557e-03  9.2242243735114662e-03  1.3143838020935720e-02  1.7012171599166764e-02  2.0842918039283016e-02  2.4657262972847607e-02  2.8452545021037300e-02  3.2237487805153314e-02  3.6009133935016348e-02  3.9768698263609424e-02  4.3519377521384142e-02  4.7256193067016658e-02  5.0985309883779327e-02  5.4702406721559606e-02  5.8410602090721096e-02  6.2108332900381681e-02  6.5797694445242486e-02  6.9479266346217344e-02  7.3152549242704520e-02  7.6818831802558288e-02  8.0479654283853563e-02  8.4133637000693817e-02  8.7784490614340169e-02  9.1429934269371946e-02  9.5072146284415210e-02  9.8711104353047946e-02  1.0234742626407399e-01  1.0598013585921878e-01  1.0961017461875473e-01  1.1323746881552345e-01  1.1686166532423370e-01  1.2048176425868688e-01  1.2409945786367017e-01  1.2771175813509597e-01  1.3132029646320179e-01  1.3492431172205452e-01  1.3852280234781497e-01  1.4211577012283474e-01  1.4570212140943795e-01  1.4928285257851720e-01  1.5285612304675381e-01  1.5642256000455021e-01  1.5998248272202620e-01  1.6353464061994996e-01  1.6708183990413444e-01  1.7062312650742384e-01  1.7416154189639627e-01  1.7769604181054274e-01  1.8122941646114740e-01  1.8476302365315145e-01  1.8829766854027313e-01  1.9183464887531562e-01  1.9537409194279237e-01  1.9891679950736318e-01  2.0246287568018145e-01  2.0601141700626169e-01  2.0956202067096544e-01  2.1311349686228276e-01  2.1666426706069225e-01  2.2021331902703281e-01  2.2375798437560912e-01  2.2729861915632671e-01  2.3083215234263452e-01  2.3435960418941684e-01  2.3788335762138030e-01  2.4140427578651899e-01  2.4492482060786652e-01  2.4844986217547929e-01  2.5198250485909102e-01  2.5552405974676629e-01  2.5907982625358311e-01  2.6264553133709884e-01  2.6622998578027535e-01  2.6982557730956913e-01  2.7343378751070302e-01  2.7705121266232480e-01  2.8067480605136663e-01  2.8430112700231941e-01  2.8792622162401837e-01  2.9154498233999959e-01  2.9515680757803775e-01  2.9875562478406015e-01  3.0233839750220159e-01  3.0590446707228136e-01  3.0945237075099213e-01  3.1297642938507453e-01  3.1647898235912081e-01  3.1996184764438124e-01  3.2342492743809054e-01  3.2687721656880836e-01  3.3032569675949397e-01  3.3378249932111431e-01  3.3725590738761746e-01  3.4075664316418020e-01  3.4428937386035513e-01  3.4785348544923417e-01  3.5145500779454236e-01  3.5507741312847124e-01  3.5872976385228583e-01  3.6240514929194934e-01  3.6610540001385206e-01  3.6982594018721421e-01  3.7357789589502377e-01  3.7735381940048618e-01  3.8115399441506703e-01  3.8497201415790405e-01  3.8880535685800038e-01  3.9265333304017302e-01  3.9652410285757894e-01  4.0042095289961588e-01  4.0435714206572743e-01  4.0833725849711261e-01  4.1235627183128010e-01  4.1640352784562540e-01  4.2045621140853445e-01  4.2450436516927292e-01  4.2854094677072396e-01  4.3253963731804584e-01  4.3650598457262602e-01  4.4045157927325984e-01  4.4439463524821421e-01  4.4832692351289999e-01  4.5226558618703644e-01  4.5616408552157373e-01  4.6013075911593110e-01  4.6410277599799932e-01  4.6906369930916164e-01  4.7532014170458792e-01  4.8151854821846507e-01  4.8872112698048209e-01  5.0101453367681337e-01  4.9403658516469068e-01  4.9365680928298750e-01  4.9382222765819589e-01  4.9441709143066676e-01  4.9520262570479401e-01  4.9601335289608434e-01  4.9688633457766906e-01  4.9779564578229929e-01  4.9976384702453919e-01  4.9964664942182963e-01  4.9959941599796809e-01  4.9955466879161997e-01  4.9952515788725821e-01  4.9949512063935858e-01  4.9947381856944539e-01  4.9945736708576094e-01  4.9944296317699849e-01  4.9943385881561037e-01  4.9942855543212450e-01  4.9942648872525963e-01  4.9942819638628300e-01  4.9943273641271807e-01  4.9944047521366614e-01  4.9945071762006976e-01  4.9946317809737667e-01  4.9947811155975519e-01  4.9949521617626941e-01  4.9951325626426424e-01  4.9953346210522848e-01  4.9955418279010771e-01  4.9957684459970503e-01  4.9959958322692272e-01  4.9962384358691680e-01  4.9964768203173138e-01  4.9967286882923018e-01  4.9969722354207724e-01  4.9972238206184361e-01  4.9974711510378217e-01  4.9977278657741214e-01  4.9979739121489530e-01  4.9982195379256478e-01  4.9984605410765398e-01  4.9987004416972719e-01  4.9989496777966447e-01  4.9991696686249870e-01  4.9993905311551518e-01  4.9996157592934004e-01  4.9998399911454061e-01  5.0000522956368920e-01  5.0002611081683235e-01  5.0004600619116557e-01  5.0006627957662353e-01  5.0008500114492349e-01  5.0010389302438640e-01  5.0012196077040605e-01  5.0013970118666407e-01  5.0015696229185702e-01  5.0017387918998724e-01  5.0018955571507295e-01  5.0020522180259608e-01  5.0022090274347020e-01  5.0023506057034350e-01  5.0024940478287283e-01  5.0026299784952566e-01  5.0027585566043664e-01  5.0028885328272699e-01  5.0030103231789025e-01  5.0031260498775987e-01  5.0032412515848201e-01  5.0033486638727898e-01  5.0034559994925398e-01  5.0035504788927954e-01  5.0036500014142249e-01  5.0037426093852488e-01  5.0038281873461821e-01  5.0039109956706307e-01  5.0039913776294120e-01  5.0040639138193121e-01  5.0041373927207822e-01  5.0042007964304802e-01  5.0042648613721785e-01  5.0043240226762031e-01  5.0043769845801722e-01  5.0044300077649040e-01  5.0044758799555822e-01  5.0045190808060747e-01  5.0045588340966607e-01  5.0045929676468315e-01  5.0046255075578994e-01  5.0046533226818235e-01  5.0046766831158607e-01  5.0046973894536229e-01  5.0047140810815582e-01  5.0047267553647601e-01  5.0047359951620818e-01  5.0047410848245288e-01  5.0047426359103819e-01  5.0047404754710467e-01  5.0047347692405997e-01  5.0047244428578963e-01  5.0047118916630762e-01  5.0046936484747129e-01  5.0046738927501722e-01  5.0046492863328207e-01  5.0046206976013896e-01  5.0045871144774978e-01  5.0045512603294040e-01  5.0045114210978692e-01  5.0044677713290653e-01  5.0044212627894347e-01  5.0043681395199968e-01  5.0043155299449327e-01  5.0042526274425303e-01  5.0041873273515647e-01  5.0041201337562935e-01  5.0040481290898375e-01  5.0039733026591837e-01  5.0038917993295695e-01  5.0038018806764328e-01  5.0037209438353947e-01  5.0036306618344284e-01  5.0035312882818617e-01  5.0034269047065016e-01  5.0033196135821834e-01  5.0032101667341100e-01  5.0030951828690251e-01  5.0029769842790328e-01  5.0028517005019946e-01  5.0027176302335075e-01  5.0025899881740488e-01  5.0024476127742457e-01  5.0023122578559842e-01  5.0021581862766629e-01  5.0020062146999744e-01  5.0018462007085496e-01  5.0016835811322546e-01  5.0015152616606151e-01  5.0013442726390933e-01  5.0011600895061037e-01  5.0009819971176450e-01  5.0007920651573579e-01  5.0006043686060742e-01  5.0004038138502649e-01  5.0002041357887350e-01  4.9999923839563570e-01  4.9997795354982355e-01  4.9995580037958098e-01  4.9993432486150163e-01  4.9991098635594972e-01  4.9988848688278797e-01  4.9986436633789211e-01  4.9984097677012318e-01  4.9981663618691996e-01  4.9979223883666779e-01  4.9976756807524220e-01  4.9974297108932531e-01  4.9971735580335641e-01  4.9969272146587096e-01  4.9966773323868330e-01  4.9964359646558626e-01  4.9961870307616846e-01  4.9959519469218727e-01  4.9957133948497223e-01  4.9954903227619785e-01  4.9952687356042696e-01  4.9950666579608899e-01  4.9948704326727023e-01  4.9946958496927168e-01  4.9945313686161108e-01  4.9943886439983104e-01  4.9942709306683003e-01  4.9941753548994960e-01  4.9941052755371901e-01  4.9940671955648014e-01  4.9940574576301627e-01  4.9940857967622387e-01  4.9941465141261998e-01  4.9942453483169053e-01  4.9943978763896413e-01  4.9945706436012871e-01  4.9947924848729902e-01  4.9951033793974209e-01  4.9954085656510772e-01  4.9958702300164781e-01  4.9963572773543391e-01  4.9975655429362464e-01  4.2251486626313517e-01  4.6543768564003929e-01  4.6506210174718721e-01  1.3501112906875143e-01  3.0446725205178515e-01  4.7213273980532200e-01  2.2042930640085298e-01  4.8788664647657892e-01  4.8840459163068084e-01  4.8333632064906745e-01  4.8329119725885750e-01  6.8629937138620076e-02  3.6026763371826120e-01  3.5570695802807650e-01  8.4941313502095397e-02  2.6137202606981180e-01  1.8113685392309961e-01  1.7339896058552862e-01  2.6181103190591265e-01  4.8702181954840851e-01  4.9088730837648226e-01  4.9062435552327394e-01  4.1192894785042822e-01  4.1739626925412748e-01  4.8955821806940175e-01  1.1258934499731478e-01  3.1657673648911266e-01  3.0917146763898756e-01  1.3037778745746675e-01  4.9547060309959284e-01  4.9526840587713938e-01  2.1808980139491585e-01  2.1478690617396370e-01  4.7158244217852481e-02  4.9468286081234214e-01  4.9449073636464408e-01  4.9213706322572554e-01  4.9185927328688794e-01  4.0052758626720614e-02  4.1778262835215817e-02  4.9341993861383909e-01  3.8262227953476963e-01  1.8659448187207830e-01  2.5494302373596200e-01  9.8911324050138319e-02  3.3946657037241063e-01  1.4593253676085866e-01  4.5005984335733618e-01  2.8194115180460322e-01  3.7539878651328473e-01  8.1674590410079753e-02  3.8085609022875960e-01  4.5333364627351408e-01  3.7215351969664079e-02  4.9455685702830782e-01  4.6763172678075693e-01  4.7473490425117582e-01  4.9333992552058442e-01  3.3778309109917570e-01  1.5849947989533406e-01  3.3632524439941197e-01  2.8252005588671614e-01  1.0116895058927967e-01  2.4255505139742078e-01  4.9413587286156596e-01  2.8938181812727787e-01  2.4426403676780004e-01  1.9310306159152754e-01  4.6792018541838076e-01  1.8838436080860957e-01  4.9567009393817746e-01  4.9695002357238388e-01  4.9684283564238002e-01  4.9557428039300722e-01  1.5319224659591932e-01  3.9142488560130773e-01  1.5320870038660306e-01  2.3577413218643423e-01  2.0634725643785673e-01  6.8947134009638145e-02  2.9073548179945119e-01  2.3493643217246193e-01  4.7944497414639003e-01  4.8012542720248319e-01  4.3899896587532344e-01  2.0181285894414491e-01  1.1586647737281099e-01  4.3867204591140241e-01  4.9460120515350081e-01  4.9749200499115681e-01  4.9741233073439728e-01  3.9005325136447000e-01  3.2906357667672842e-01  4.6951670475615320e-01  4.2880428345901472e-01  4.3063522455844011e-01  7.2250660973855949e-02  4.9605222534146437e-01  2.7944368314802109e-01  4.7969085226919334e-01  1.6017767289894982e-01  3.3487974368323620e-01  3.2499931472638147e-02  1.1738791922069906e-01  4.7846395678177905e-01  1.2370575659780465e-01  6.1071352935093588e-02  3.0560316448463326e-01  3.9861112448893082e-01  9.2046182918039066e-02  4.9574861831398492e-01  4.0200843764259048e-01  4.1617735346861168e-01  4.9742806062718392e-01  4.9748882068855810e-01  1.6734027747122618e-01  4.9567487695494689e-01  6.0517031919738791e-02  1.3771250601966289e-01  3.1151682864833952e-01  3.1629842337170172e-01  2.3566489715092565e-02  4.1609100636989410e-01  2.6534537047966705e-01  2.4890972970772002e-02  2.5328581039614939e-02  1.0219356486437629e-01  2.2250058386529709e-01  3.5789070385129818e-01  2.2495152381616229e-01  3.6131884837995359e-01  4.9625027973144537e-01  4.9679348118726219e-01  4.7640191375757740e-01  4.7609468974454344e-01  2.6275300658087647e-01  4.9740832342961055e-01  4.9733375591805568e-01  4.9613867907290682e-01  4.8882052584944757e-01  2.3274089204124354e-02  6.2891310261569106e-02  4.5265756325814921e-01  4.5488963823334511e-01  3.2555218366939120e-01  1.7280532924616329e-01  4.8547478335938954e-01  1.0721143970192998e-01  4.8759208994803582e-01  4.8698662875280613e-01  2.6879470892249063e-01  4.9810762007398722e-02  1.7574467426206039e-01  4.8431300373206720e-01  5.5711411015878995e-02  3.6170224519632449e-01  2.4381273587319857e-01  1.9616022442493775e-01  4.9663213418187824e-01  4.0112064261623742e-01  3.0944255027185413e-01  4.8827291856970656e-01  4.9642019385783803e-01  4.3579209232340427e-01  4.9757024680418649e-01  4.9751840848141587e-01  1.3220277029077088e-01  4.5886751491859146e-01  1.1826715781566877e-01  3.6530727778768218e-01  2.6571678466925258e-01  4.8700102818876828e-01  2.9782823451302404e-01  4.9686790422934235e-01  1.9247199166500643e-02  3.5925198606504560e-01  1.7394056523098181e-01  2.9893673297849238e-01  1.9068661880542964e-01  3.9219716682339295e-01  4.8967497945214161e-01  4.8990118560715812e-01  3.5876707158179172e-01  2.0438913590936075e-01  5.0872600214052544e-02  1.6540450622555330e-01  4.7578172416165521e-01  2.3770707226432095e-01  2.0755893047513579e-01  8.6395651524574416e-02  3.4326390609133178e-01  2.0420291608801383e-01  9.7045114177631842e-02  2.1917890518208319e-01  3.2204492838309978e-01  4.7562880531747842e-01  2.9252938088010227e-01  2.7816958021312166e-01  4.8960386696663938e-01  1.5627572587846111e-01  2.3297149956649485e-01  3.3445465800654134e-01  1.3477621395589431e-01  1.7345288277194662e-01  1.1663728231087661e-01  4.5692539487543332e-01  1.4031418935072601e-01  4.3366120162972294e-01  4.9684234708722819e-01  4.2913798152908446e-02  8.5726618421423095e-02  8.3799226571215746e-02  3.4572254631395405e-01  7.3187295891631282e-02  2.8986769061005702e-01  1.8960792573197491e-01  3.8252204623997227e-01  2.5277440522850392e-01  3.7748408148128171e-01  3.9814291048880490e-01  3.9044339817650298e-01  4.4274256185035488e-01  3.8312642491635807e-01  7.7437613899621477e-02  9.5516433401631767e-02  2.5972631841941873e-01  4.9815278988632605e-01  4.9810684894228580e-01  4.9758886695742977e-01  3.7298684649475139e-01  4.8527598666051941e-01  2.2090235425537383e-01  2.6631223161044770e-01  4.5276828348310921e-01  3.7434824753910312e-01  7.8851326388287069e-02  3.2585396563111557e-01  1.3444768581567573e-01  4.4152059361816476e-01  4.4295392462659411e-01  1.7449153537213247e-01  4.9748987121315980e-01  1.4585347308053392e-01  1.6831724585788212e-02  1.5267560679241518e-01  4.3128252794861083e-01  4.9770956147304313e-01  2.2282738512132658e-01  5.6860283373751187e-02  3.3067967607276416e-01  1.9083189801568447e-02  2.4971424582056123e-01  4.8995373264481862e-01  1.4973648438244436e-01  3.4858762138254357e-01  4.9290396336014097e-01  4.9208233270586060e-01  4.9320084292778427e-01  4.9247648712372882e-01  2.9165343384761855e-01  4.8127803934318364e-01  4.3487085945515047e-01  2.4766371952942703e-01  4.9823148356089730e-01  4.9819019909919560e-01  3.4107481007295820e-01  4.9745916402285051e-01  1.8077790428167700e-01  2.7753055549334704e-01  4.8358803308653547e-01  4.8331516226637261e-01  4.1479660708657851e-01  2.3716935140463244e-01  4.9720321794262784e-01  1.7458163211319253e-02  2.5204968771191216e-01  2.8319178439980919e-01  2.9253609142349452e-01  4.1706127423875761e-01  1.1787369812221696e-01  4.8559273921104384e-01  3.2477037225323702e-01  4.5261211981890648e-02  4.9737523860124522e-01  4.7733654762901889e-01  4.9265912780090482e-01  4.6643170127658745e-01  4.1406299813300851e-02  2.0705027561038555e-01  4.6565915766196569e-01  1.9002676913351782e-01  1.0228389778088656e-01  4.9752326497835497e-01  1.8872997313915651e-01  4.8917217116214257e-01  4.7012394036636279e-01  2.0304025938495932e-01  2.3358903291388444e-01  1.4061540221652813e-01  2.3070571472677359e-01  4.9131099239358184e-01  3.4922142985948385e-01  1.0285461375243291e-01  4.9355167759320223e-01  2.9993970447424262e-01  2.3766371152995749e-01  3.7975450336106997e-01  6.5397313346552230e-02  1.5468497001451981e-01  4.0427646813403789e-01  8.5938389172582938e-02  4.9271019036542929e-01  4.9280722783697611e-01  1.5856402827356997e-01  4.9832240606594774e-01  4.9829076209347456e-01  7.3186048695116759e-02  1.4807208893174428e-01  4.1364693850915646e-01  1.2088567102912330e-0