<?xml version="1.0"?>
<VTKFile type="UnstructuredGrid"  version="0.1"  >
<UnstructuredGrid>
<Piece  NumberOfPoints="12263" NumberOfCells="24015">
<Points>
<DataArray  type="Float64"  NumberOfComponents="3"  format="ascii">0 0 0  0.7 0 0  0.7 0.25 0  0 0.25 0  0.004999999999990235 0 0  0.009999999999980452 0 0  0.01499999999997117 0 0  0.01999999999996156 0 0  0.024999999999951 0 0  0.02999999999993964 0 0  0.03499999999992773 0 0  0.03999999999991589 0 0  0.04499999999990548 0 0  0.04999999999989713 0 0  0.05499999999988982 0 0  0.05999999999988251 0 0  0.06499999999987401 0 0  0.06999999999986654 0 0  0.07499999999985923 0 0  0.07999999999985022 0 0  0.08499999999984044 0 0  0.08999999999982942 0 0  0.09499999999981613 0 0  0.0999999999998014 0 0  0.1049999999997872 0 0  0.1099999999997749 0 0  0.1149999999997626 0 0  0.1199999999997479 0 0  0.1249999999997331 0 0  0.1299999999997225 0 0  0.1349999999997128 0 0  0.1399999999996997 0 0  0.144999999999685 0 0  0.1499999999996702 0 0  0.1549999999996555 0 0  0.1599999999996407 0 0  0.164999999999626 0 0  0.1699999999996112 0 0  0.1749999999995965 0 0  0.1799999999995818 0 0  0.184999999999567 0 0  0.1899999999995522 0 0  0.1949999999995375 0 0  0.1999999999995228 0 0  0.204999999999508 0 0  0.2099999999994933 0 0  0.2149999999994802 0 0  0.2199999999994705 0 0  0.22499999999946 0 0  0.2299999999994452 0 0  0.2349999999994304 0 0  0.2399999999994157 0 0  0.2449999999994009 0 0  0.2499999999993862 0 0  0.2549999999993715 0 0  0.2599999999993567 0 0  0.2649999999993419 0 0  0.2699999999993272 0 0  0.2749999999993125 0 0  0.2799999999992978 0 0  0.284999999999283 0 0  0.2899999999992683 0 0  0.2949999999992535 0 0  0.2999999999992388 0 0  0.3049999999992241 0 0  0.3099999999992092 0 0  0.3149999999991945 0 0  0.3199999999991798 0 0  0.324999999999165 0 0  0.3299999999991503 0 0  0.3349999999991355 0 0  0.3399999999991208 0 0  0.344999999999107 0 0  0.3499999999991022 0 0  0.3549999999991172 0 0  0.3599999999991322 0 0  0.3649999999991391 0 0  0.3699999999991513 0 0  0.3749999999991663 0 0  0.3799999999991814 0 0  0.3849999999991964 0 0  0.389999999999208 0 0  0.3949999999992155 0 0  0.3999999999992306 0 0  0.4049999999992456 0 0  0.4099999999992606 0 0  0.4149999999992756 0 0  0.4199999999992819 0 0  0.4249999999992947 0 0  0.4299999999993097 0 0  0.4349999999993247 0 0  0.4399999999993398 0 0  0.4449999999993547 0 0  0.4499999999993698 0 0  0.4549999999993826 0 0  0.459999999999389 0 0  0.4649999999994039 0 0  0.4699999999994189 0 0  0.4749999999994339 0 0  0.479999999999449 0 0  0.4849999999994565 0 0  0.4899999999994681 0 0  0.4949999999994831 0 0  0.4999999999994935 0 0  0.5049999999994985 0 0  0.5099999999995036 0 0  0.5149999999995087 0 0  0.5199999999995156 0 0  0.5249999999995404 0 0  0.5299999999995654 0 0  0.5349999999995723 0 0  0.5399999999995774 0 0  0.5449999999995824 0 0  0.5499999999995999 0 0  0.5549999999996248 0 0  0.559999999999641 0 0  0.564999999999646 0 0  0.5699999999996511 0 0  0.5749999999996592 0 0  0.5799999999996842 0 0  0.584999999999709 0 0  0.5899999999997148 0 0  0.5949999999997199 0 0  0.5999999999997249 0 0  0.6049999999997436 0 0  0.6099999999997685 0 0  0.6149999999997834 0 0  0.6199999999997885 0 0  0.6249999999997936 0 0  0.6299999999998029 0 0  0.6349999999998279 0 0  0.6399999999998521 0 0  0.6449999999998572 0 0  0.6499999999998622 0 0  0.6549999999998674 0 0  0.6599999999998872 0 0  0.6649999999999123 0 0  0.669999999999926 0 0  0.6749999999999312 0 0  0.6799999999999361 0 0  0.684999999999947 0 0  0.6899999999999717 0 0  0.6949999999999948 0 0  0.7 0.004999999999990592 0  0.7 0.009999999999980465 0  0.7 0.01499999999996959 0  0.7 0.0199999999999613 0  0.7 0.02499999999995366 0  0.7 0.02999999999994579 0  0.7 0.0349999999999332 0  0.7 0.03999999999991863 0  0.7 0.04499999999990405 0  0.7 0.04999999999988947 0  0.7 0.05499999999987491 0  0.7 0.05999999999986033 0  0.7 0.06499999999984575 0  0.7 0.06999999999983118 0  0.7 0.0749999999998166 0  0.7 0.07999999999980204 0  0.7 0.08499999999978745 0  0.7 0.08999999999977287 0  0.7 0.09499999999975831 0  0.7 0.09999999999974372 0  0.7 0.1049999999997292 0  0.7 0.1099999999997146 0  0.7 0.1149999999997 0  0.7 0.1199999999996854 0  0.7 0.1249999999996736 0  0.7 0.129999999999684 0  0.7 0.1349999999996972 0  0.7 0.1399999999997104 0  0.7 0.1449999999997235 0  0.7 0.1499999999997367 0  0.7 0.1549999999997499 0  0.7 0.159999999999763 0  0.7 0.1649999999997762 0  0.7 0.1699999999997893 0  0.7 0.1749999999998025 0  0.7 0.1799999999998157 0  0.7 0.1849999999998289 0  0.7 0.189999999999842 0  0.7 0.1949999999998552 0  0.7 0.1999999999998683 0  0.7 0.2049999999998815 0  0.7 0.2099999999998947 0  0.7 0.2149999999999078 0  0.7 0.219999999999921 0  0.7 0.2249999999999342 0  0.7 0.2299999999999474 0  0.7 0.2349999999999605 0  0.7 0.2399999999999737 0  0.7 0.2449999999999869 0  0.6949999999999955 0.25 0  0.6900000000000089 0.25 0  0.6850000000000404 0.25 0  0.6800000000000613 0.25 0  0.6750000000000642 0.25 0  0.6700000000000598 0.25 0  0.6650000000000639 0.25 0  0.6600000000000861 0.25 0  0.6550000000001163 0.25 0  0.6500000000001285 0.25 0  0.645000000000124 0.25 0  0.6400000000001195 0.25 0  0.6350000000001342 0.25 0  0.6300000000001669 0.25 0  0.6250000000001865 0.25 0  0.6200000000001883 0.25 0  0.6150000000001837 0.25 0  0.6100000000001892 0.25 0  0.6050000000002126 0.25 0  0.6000000000002416 0.25 0  0.5950000000002525 0.25 0  0.590000000000248 0.25 0  0.5850000000002442 0.25 0  0.5800000000002595 0.25 0  0.5750000000002934 0.25 0  0.5700000000003118 0.25 0  0.5650000000003124 0.25 0  0.5600000000003078 0.25 0  0.5550000000003145 0.25 0  0.5500000000003391 0.25 0  0.5450000000003669 0.25 0  0.5400000000003766 0.25 0  0.5350000000003721 0.25 0  0.5300000000003695 0.25 0  0.5250000000003848 0.25 0  0.52000000000042 0.25 0  0.5150000000004371 0.25 0  0.5100000000004363 0.25 0  0.5050000000004319 0.25 0  0.5000000000004399 0.25 0  0.4950000000004604 0.25 0  0.490000000000477 0.25 0  0.485000000000479 0.25 0  0.480000000000477 0.25 0  0.4750000000004855 0.25 0  0.4700000000005108 0.25 0  0.465000000000536 0.25 0  0.460000000000542 0.25 0  0.4550000000005475 0.25 0  0.4500000000005606 0.25 0  0.445000000000576 0.25 0  0.4400000000005913 0.25 0  0.4350000000006066 0.25 0  0.430000000000622 0.25 0  0.4250000000006373 0.25 0  0.4200000000006526 0.25 0  0.415000000000668 0.25 0  0.4100000000006833 0.25 0  0.4050000000006987 0.25 0  0.400000000000714 0.25 0  0.3950000000007293 0.25 0  0.3900000000007446 0.25 0  0.38500000000076 0.25 0  0.3800000000007753 0.25 0  0.3750000000007907 0.25 0  0.370000000000806 0.25 0  0.3650000000008213 0.25 0  0.3600000000008367 0.25 0  0.355000000000851 0.25 0  0.3500000000008565 0.25 0  0.345000000000842 0.25 0  0.3400000000008276 0.25 0  0.3350000000008213 0.25 0  0.3300000000008096 0.25 0  0.3250000000007953 0.25 0  0.3200000000007808 0.25 0  0.3150000000007664 0.25 0  0.3100000000007553 0.25 0  0.3050000000007484 0.25 0  0.300000000000734 0.25 0  0.2950000000007196 0.25 0  0.2900000000007051 0.25 0  0.2850000000006907 0.25 0  0.280000000000685 0.25 0  0.2750000000006728 0.25 0  0.2700000000006584 0.25 0  0.2650000000006439 0.25 0  0.2600000000006295 0.25 0  0.2550000000006151 0.25 0  0.2500000000006007 0.25 0  0.2450000000005884 0.25 0  0.2400000000005827 0.25 0  0.2350000000005683 0.25 0  0.2300000000005538 0.25 0  0.2250000000005395 0.25 0  0.2200000000005251 0.25 0  0.2150000000005181 0.25 0  0.2100000000005071 0.25 0  0.2050000000004926 0.25 0  0.2000000000004829 0.25 0  0.1950000000004785 0.25 0  0.1900000000004739 0.25 0  0.1850000000004695 0.25 0  0.1800000000004631 0.25 0  0.1750000000004388 0.25 0  0.1700000000004145 0.25 0  0.1650000000004082 0.25 0  0.1600000000004037 0.25 0  0.1550000000003993 0.25 0  0.1500000000003824 0.25 0  0.1450000000003581 0.25 0  0.1400000000003424 0.25 0  0.135000000000338 0.25 0  0.1300000000003335 0.25 0  0.1250000000003259 0.25 0  0.1200000000003015 0.25 0  0.1150000000002773 0.25 0  0.1100000000002722 0.25 0  0.1050000000002677 0.25 0  0.1000000000002632 0.25 0  0.09500000000024511 0.25 0  0.0900000000002209 0.25 0  0.08500000000020647 0.25 0  0.08000000000020191 0.25 0  0.07500000000019746 0.25 0  0.07000000000018869 0.25 0  0.06500000000016448 0.25 0  0.06000000000014072 0.25 0  0.05500000000013616 0.25 0  0.05000000000013183 0.25 0  0.04500000000012738 0.25 0  0.04000000000010784 0.25 0  0.03500000000008352 0.25 0  0.03000000000007041 0.25 0  0.02500000000006586 0.25 0  0.02000000000006141 0.25 0  0.01500000000005131 0.25 0  0.01000000000002688 0.25 0  0.005000000000004445 0.25 0  0 0.2486033519553014 0  0 0.2472067039106029 0  0 0.2458100558659043 0  0 0.2444134078212058 0  0 0.2430167597765072 0  0 0.2416201117318087 0  0 0.2402234636871101 0  0 0.2388268156424116 0  0 0.237430167597713 0  0 0.2360335195530145 0  0 0.2346368715083159 0  0 0.2332402234636174 0  0 0.2318435754189188 0  0 0.2304469273742203 0  0 0.2290502793295217 0  0 0.2276536312848232 0  0 0.2262569832401246 0  0 0.224860335195426 0  0 0.2234636871507275 0  0 0.2220670391060289 0  0 0.2206703910613305 0  0 0.2192737430166358 0  0 0.217877094971946 0  0 0.2164804469272599 0  0 0.2150837988825769 0  0 0.2136871508378938 0  0 0.2122905027932108 0  0 0.2108938547485278 0  0 0.2094972067038447 0  0 0.2081005586591617 0  0 0.2067039106144786 0  0 0.2053072625697956 0  0 0.2039106145251125 0  0 0.2025139664804295 0  0 0.2011173184357464 0  0 0.1997206703910634 0  0 0.1983240223463804 0  0 0.1969273743016973 0  0 0.1955307262570143 0  0 0.1941340782123312 0  0 0.1927374301676482 0  0 0.1913407821229651 0  0 0.1899441340782821 0  0 0.188547486033599 0  0 0.187150837988916 0  0 0.1857541899442329 0  0 0.1843575418995499 0  0 0.1829608938548668 0  0 0.1815642458101838 0  0 0.1801675977655007 0  0 0.1787709497208177 0  0 0.1773743016761346 0  0 0.1759776536314516 0  0 0.1745810055867685 0  0 0.1731843575420855 0  0 0.1717877094974025 0  0 0.1703910614527194 0  0 
[...]
<PointData  Scalars="pressure"> 
<DataArray  type="Float64"  Name="pressure"  format="ascii">4.9935699981040232e-01  9.7119148440196108e-04  6.6692946677848264e-04  4.9936849833445657e-01  4.9771790424282158e-01  4.9676844043580487e-01  4.9585840577184415e-01  4.9501418411264503e-01  4.9419770706113603e-01  4.9357178483231368e-01  4.9336740107469723e-01  4.9369727239708866e-01  5.0041386616353156e-01  4.8848530871209278e-01  4.8142963748594597e-01  4.7528841502351482e-01  4.6908353515679990e-01  4.6422858294094321e-01  4.6043258878387316e-01  4.5666050430741995e-01  4.5282166730727730e-01  4.4874593377892102e-01  4.4451697852069721e-01  4.4029579247165290e-01  4.3618043673910839e-01  4.3219995392912286e-01  4.2834593065309962e-01  4.2450313588788374e-01  4.2061855993063280e-01  4.1664440316474682e-01  4.1256834890981470e-01  4.0840522132704887e-01  4.0420152460440978e-01  3.9999536771611655e-01  3.9581497010613342e-01  3.9167999369600309e-01  3.8763606070805284e-01  3.8364139026747845e-01  3.7971498883718896e-01  3.7582765499008636e-01  3.7196548682012787e-01  3.6813037474041804e-01  3.6431519073670166e-01  3.6052858714477226e-01  3.5677470265623901e-01  3.5305534147381984e-01  3.4936830041607853e-01  3.4572240087153200e-01  3.4210738514777767e-01  3.3854127260470190e-01  3.3501668111791588e-01  3.3152911190672046e-01  3.2807211027211725e-01  3.2463072148995520e-01  3.2120568597786697e-01  3.1778430192362539e-01  3.1436820731063947e-01  3.1094934813603647e-01  3.0752383205018030e-01  3.0409377285931499e-01  3.0065947397347087e-01  2.9722988125569028e-01  2.9381194338625521e-01  2.9040965683088127e-01  2.8702472170496446e-01  2.8365058002735671e-01  2.8028424710353683e-01  2.7691753952507880e-01  2.7354266603713090e-01  2.7015692060767399e-01  2.6676104253706007e-01  2.6335061492153933e-01  2.5992987890098873e-01  2.5649873937313267e-01  2.5306035804974647e-01  2.4961710501560502e-01  2.4616847125468838e-01  2.4271790932655080e-01  2.3926395338565293e-01  2.3580807603071205e-01  2.3234955935733573e-01  2.2888814017523523e-01  2.2542470777558171e-01  2.2196154935900575e-01  2.1849974628581081e-01  2.1504081334643160e-01  2.1158397912114077e-01  2.0812493637128646e-01  2.0466125860176895e-01  2.0118501687208412e-01  1.9769478051616976e-01  1.9418506601632418e-01  1.9065882860108527e-01  1.8711621374124782e-01  1.8356170397491614e-01  1.8000101100519963e-01  1.7643915165629218e-01  1.7288134209829056e-01  1.6932722391442442e-01  1.6578180600093270e-01  1.6224248089442025e-01  1.5870706102287238e-01  1.5517231782171043e-01  1.5163285533732307e-01  1.4808305138458250e-01  1.4451852780712138e-01  1.4093534639602762e-01  1.3732390144443243e-01  1.3368554039774244e-01  1.3001385906571225e-01  1.2630563070095074e-01  1.2256195869406383e-01  1.1877999797426940e-01  1.1496626949011750e-01  1.1112209159430436e-01  1.0725816943648536e-01  1.0337329971369713e-01  9.9483210907528541e-02  9.5591868620716072e-02  9.1702748444680210e-02  8.7824667451877225e-02  8.3963693106141657e-02  8.0115377533958226e-02  7.6293725575105401e-02  7.2497365977715014e-02  6.8722083819309776e-02  6.4970478668252687e-02  6.1246201981931710e-02  5.7544757366113371e-02  5.3861267523442898e-02  5.0193849214247965e-02  4.6539764964168825e-02  4.2892446825010477e-02  3.9255573578335291e-02  3.5624086642475676e-02  3.1994479800866713e-02  2.8365557351199475e-02  2.4727063629892559e-02  2.1085559185059319e-02  1.7423327139443581e-02  1.3699270501710095e-02  9.9016657522715927e-03  5.9781855870734294e-03  6.2020953548003980e-04  8.7091615221061391e-04  1.0053769019668598e-03  1.1339782575662206e-03  1.2399232973768766e-03  1.3396484161610899e-03  1.4304045926894521e-03  1.5174588883091072e-03  1.5795262235060660e-03  1.6122162353026984e-03  1.5961727933586649e-03  1.5118482388334225e-03  1.3391587644625725e-03  1.1015127515678440e-03  2.1421776219521819e-03  -2.2291703696718391e-03  -4.2672823140419580e-04  -1.3894722930616831e-03  -1.2230355478825940e-03  -1.1451197362211359e-03  -1.0305769596172783e-03  -9.1407448862861377e-04  -8.1357404427351363e-04  -7.3113979734693165e-04  -6.7451910472253419e-04  -6.8774911827364097e-04  -8.3503174073749323e-04  -4.6251050366119930e-04  -1.7290373528904032e-03  7.8721246961702075e-04  5.7441658157107018e-04  7.4972335536601232e-04  7.9908893283145877e-04  8.3456604542145589e-04  8.7410818244849431e-04  9.1126906018522001e-04  9.4277740713123118e-04  9.6294505642458613e-04  9.7484978645442553e-04  9.7581383573913899e-04  9.6538130898281001e-04  9.4420162963384526e-04  9.1658560165365336e-04  8.7744614021011841e-04  8.2806890622650860e-04  7.6850757430192793e-04  6.7495965647102754e-04  6.0768547936528180e-04  4.7045838385750084e-04  5.3995125031302618e-03  9.3644115187961757e-03  1.3238844898266077e-02  1.7054125711224895e-02  2.0827249492824888e-02  2.4583626566086484e-02  2.8320424665647496e-02  3.2048940147277001e-02  3.5766727465063756e-02  3.9474669689619442e-02  4.3177179080826793e-02  4.6869852992749046e-02  5.0557713355473016e-02  5.4238206777381434e-02  5.7913517803123891e-02  6.1582555734590060e-02  6.5247093629884900e-02  6.8907403132036929e-02  7.2563458542786188e-02  7.6216316802785525e-02  7.9866482378913944e-02  8.3514169636889790e-02  8.7160662276600145e-02  9.0805033410071651e-02  9.4448998192993461e-02  9.8091895168441356e-02  1.0173394041659997e-01  1.0537454638631495e-01  1.0901458353279520e-01  1.1265331086374958e-01  1.1628949981470067e-01  1.1992385499739634e-01  1.2355632107080662e-01  1.2718407964464384e-01  1.3080939886685980e-01  1.3443060680478666e-01  1.3804643220848634e-01  1.4165747938518886e-01  1.4526225707666104e-01  1.4886158648164377e-01  1.5245349551039900e-01  1.5603872911780109e-01  1.5961727238179008e-01  1.6318811323399682e-01  1.6675378590571266e-01  1.7031327511605449e-01  1.7386913196813056e-01  1.7742070663949483e-01  1.8097072010034029e-01  1.8451998039905013e-01  1.8806964846217750e-01  1.9162067944267444e-01  1.9517366883844420e-01  1.9872888952464562e-01  2.0228662365558786e-01  2.0584614083977321e-01  2.0940706385929286e-01  2.1296846680855130e-01  2.1652838092821125e-01  2.2008632265527531e-01  2.2363960350561951e-01  2.2718857835980699e-01  2.3072995144041741e-01  2.3426556846365082e-01  2.3779668401412168e-01  2.4132443974935855e-01  2.4485140550495332e-01  2.4838185154805023e-01  2.5191894169453416e-01  2.5546401942469016e-01  2.5902201298381816e-01  2.6258909328836011e-01  2.6617331198222122e-01  2.6976809648479766e-01  2.7337446320724429e-01  2.7698948024207137e-01  2.8061021623729121e-01  2.8423357232825702e-01  2.8785571156588585e-01  2.9147190771051090e-01  2.9508162410808542e-01  2.9867904321514249e-01  3.0226112045408909e-01  3.0582760018152916e-01  3.0937684359923923e-01  3.1290304144964781e-01  3.1640911379447512e-01  3.1989579702312249e-01  3.2336349588980612e-01  3.2682039302358962e-01  3.3027323398197467e-01  3.3373323964509688e-01  3.3720852834223636e-01  3.4070913488910937e-01  3.4423969135143634e-01  3.4779957982733611e-01  3.5139462814398043e-01  3.5500924939328132e-01  3.5865190782111095e-01  3.6231610572054734e-01  3.6600402318342040e-01  3.6971091103801151e-01  3.7344780499421582e-01  3.7720754980860471e-01  3.8099062271622891e-01  3.8479089589844573e-01  3.8860607895320254e-01  3.9243553417824417e-01  3.9628708898714887e-01  4.0016411715841710e-01  4.0407926360715346e-01  4.0803721835371504e-01  4.1203322249580909e-01  4.1605727378361357e-01  4.2008737152591163e-01  4.2411476897088679e-01  4.2813214900385765e-01  4.3211513697137943e-01  4.3606875609644968e-01  4.4000525586230455e-01  4.4394139868052201e-01  4.4787017619292696e-01  4.5180758702523161e-01  4.5570822126004573e-01  4.5967738026278476e-01  4.6365333102215150e-01  4.6859194689922873e-01  4.7478887192186847e-01  4.8092648432378254e-01  4.8806913368724830e-01  5.0017686702609232e-01  4.9339425269777448e-01  4.9309572302299015e-01  4.9333988503216875e-01  4.9401094711997473e-01  4.9487328451987284e-01  4.9576184403494089e-01  4.9671390411776817e-01  4.9770320021753595e-01  4.9976162648938854e-01  4.9964332208756629e-01  4.9959563538924950e-01  4.9955044902392232e-01  4.9952062893978094e-01  4.9949026009077174e-01  4.9946869447520659e-01  4.9945200167203607e-01  4.9943735449344395e-01  4.9942804248765249e-01  4.9942254550989024e-01  4.9942029549980854e-01  4.9942184865964068e-01  4.9942624075678765e-01  4.9943384553261960e-01  4.9944398674382084e-01  4.9945635081953221e-01  4.9947120802132949e-01  4.9948824357249128e-01  4.9950625908380059e-01  4.9952643321588308e-01  4.9954716205006083e-01  4.9956982496668328e-01  4.9959260102305542e-01  4.9961689517732527e-01  4.9964080212755130e-01  4.9966604985459800e-01  4.9969050423090539e-01  4.9971575840915433e-01  4.9974060538692522e-01  4.9976638230249582e-01  4.9979112057871045e-01  4.9981582073429359e-01  4.9984006906368472e-01  4.9986420820217936e-01  4.9988925743603690e-01  4.9991144061572623e-01  4.9993370371215223e-01  4.9995638882677501e-01  4.9997896548997367e-01  5.0000036718206597e-01  5.0002141660004407e-01  5.0004149196107961e-01  5.0006192426004104e-01  5.0008083062360087e-01  5.0009988822025719e-01  5.0011812568584968e-01  5.0013603523067907e-01  5.0015346258874671e-01  5.0017053569856684e-01  5.0018639192477110e-01  5.0020221715970747e-01  5.0021804322525998e-01  5.0023237646376950e-01  5.0024687406627566e-01  5.0026062381271585e-01  5.0027364647319561e-01  5.0028678949922190e-01  5.0029912247499753e-01  5.0031085110059337e-01  5.0032251385118853e-01  5.0033340957595429e-01  5.0034427879772658e-01  5.0035389012534170e-01  5.0036397448270253e-01  5.0037337468231180e-01  5.0038207903426424e-01  5.0039050094923299e-01  5.0039867481678368e-01  5.0040607392500869e-01  5.0041355031575108e-01  5.0042004049146860e-01  5.0042657759378362e-01  5.0043262747336081e-01  5.0043806527654899e-01  5.0044349452215464e-01  5.0044821879663559e-01  5.0045267227696144e-01  5.0045677845300640e-01  5.0046032746798086e-01  5.0046370970403442e-01  5.0046662104314599e-01  5.0046908903922194e-01  5.0047128792024520e-01  5.0047308525669187e-01  5.0047447951617374e-01  5.0047552958372499e-01  5.0047616390955685e-01  5.0047644299016225e-01  5.0047635110215094e-01  5.0047590112466400e-01  5.0047499148921626e-01  5.0047385255798027e-01  5.0047215004582601e-01  5.0047028605969834e-01  5.0046793930877975e-01  5.0046519460929983e-01  5.0046194932231503e-01  5.0045847270321286e-01  5.0045459317205288e-01  5.0045033072974843e-01  5.0044577609051999e-01  5.0044056681807725e-01  5.0043539138058313e-01  5.0042920352572662e-01  5.0042276935776553e-01  5.0041613272247709e-01  5.0040901459640141e-01  5.0040160719169369e-01  5.0039353440674916e-01  5.0038463105558406e-01  5.0037657946521075e-01  5.0036760483460296e-01  5.0035772913522802e-01  5.0034735118338225e-01  5.0033667331112897e-01  5.0032576566036269e-01  5.0031430260184007e-01  5.0030250862105052e-01  5.0029000663692369e-01  5.0027663285558732e-01  5.0026386251322419e-01  5.0024964384588733e-01  5.0023608307876966e-01  5.0022068520633234e-01  5.0020547261618153e-01  5.0018945302553564e-01  5.0017316428427450e-01  5.0015629682049745e-01  5.0013914900580692e-01  5.0012069585453567e-01  5.0010282045510723e-01  5.0008376849356184e-01  5.0006491530919539e-01  5.0004478809989383e-01  5.0002473096230715e-01  5.0000347284622315e-01  4.9998209388277048e-01  4.9995985100206652e-01  4.9993825327325492e-01  4.9991482020562150e-01  4.9989219472047697e-01  4.9986797085571077e-01  4.9984445359810908e-01  4.9981999583113246e-01  4.9979547631881660e-01  4.9977068365880489e-01  4.9974596108383268e-01  4.9972023769268353e-01  4.9969548351039905e-01  4.9967038413545600e-01  4.9964612695090677e-01  4.9962113981034845e-01  4.9959752594066931e-01  4.9957358751349051e-01  4.9955118939868454e-01  4.9952896276295444e-01  4.9950867719820274e-01  4.9948900156576431e-01  4.9947148046795442e-01  4.9945499505768726e-01  4.9944068654117302e-01  4.9942888564960203e-01  4.9941929766309545e-01  4.9941227206332439e-01  4.9940844817303287e-01  4.9940745395936692e-01  4.9941027196202220e-01  4.9941632408610070e-01  4.9942618267533051e-01  4.9944140445321988e-01  4.9945864416002062e-01  4.9948077654008444e-01  4.9951179771668036e-01  4.9954223771757428e-01  4.9958827795472699e-01  4.9963684381711371e-01  4.9975730295485482e-01  4.2213878204638916e-01  4.6486450262347706e-01  4.6447994204867771e-01  1.3444263280367988e-01  3.0441737127422447e-01  4.7176912011237898e-01  2.2022072877886426e-01  4.8734760940618821e-01  4.8785877545714068e-01  4.8301043573408553e-01  4.8297306744541729e-01  6.8154908318594540e-02  3.6020991665921404e-01  3.5553776688605976e-01  8.4269581496240503e-02  2.6127969567632808e-01  1.8061494402761424e-01  1.7324373708613131e-01  2.6178984944807637e-01  4.8681059348828226e-01  4.9059282753044281e-01  4.9032815127668378e-01  4.1165755036006008e-01  4.1696392076733274e-01  4.8937847733687573e-01  1.1220899702672393e-01  3.1664883481845296e-01  3.0916226036220645e-01  1.2957480531944932e-01  4.9508170820362796e-01  4.9486874601314446e-01  2.1792514498870588e-01  2.1472895589382440e-01  4.6732457401880312e-02  4.9440866121525850e-01  4.9421141093470455e-01  4.9196856964135333e-01  4.9169963544761064e-01  4.0164948028802487e-02  4.1376590947413722e-02  4.9325288773667963e-01  3.8240178477963988e-01  1.8623844423094299e-01  2.5482365285687147e-01  9.8236401011818103e-02  3.3937780056297273e-01  1.4563935882184456e-01  4.4960823308439535e-01  2.8207534711997345e-01  3.7534427847086799e-01  8.1176909103687828e-02  3.8060656188876874e-01  4.5287857547787486e-01  3.6673352443769236e-02  4.9440785454085345e-01  4.6688724131417825e-01  4.7382474314248196e-01  4.9322566985140365e-01  3.3802689870180941e-01  1.5796703238676851e-01  3.3633705865165975e-01  2.8248569770858462e-01  1.0053714551526446e-01  2.4251136711026039e-01  4.9403007722303310e-01  2.8935924257941403e-01  2.4419358630048979e-01  1.9274347754928628e-01  4.6747971519692161e-01  1.8823170315122048e-01  4.9549805507310374e-01  4.9674434648198346e-01  4.9662848609343613e-01  4.9539833900812852e-01  1.5252838481752284e-01  3.9121620269018642e-01  1.5259009561185163e-01  2.3556669786992637e-01  2.0599785035531099e-01  6.8703115688670338e-02  2.9069177198524276e-01  2.3488376024735599e-01  4.7896122237698491e-01  4.7963758670510942e-01  4.3850445274571048e-01  2.0158116278437754e-01  1.1516290174800957e-01  4.3818223029393066e-01  4.9449593699521421e-01  4.9729922311059388e-01  4.9720825483518194e-01  3.8979907554700965e-01  3.2896092788661141e-01  4.6909480235001616e-01  4.2850805701858463e-01  4.3021527007338600e-01  7.1598999218635828e-02  4.9592645825871928e-01  2.7937443700832493e-01  4.7938106339454556e-01  1.5972411974171727e-01  3.3487560754969026e-01  3.2101543537448665e-02  1.1680032707256051e-01  4.7813647277444771e-01  1.2328580425369125e-01  6.0625655292047768e-02  3.0570913452252441e-01  3.9841818019389363e-01  9.1635527906284861e-02  4.9565347079174948e-01  4.0172288522625843e-01  4.1580051674560736e-01  4.9723910000035987e-01  4.9731380732662295e-01  1.6709308938399511e-01  4.9559522677348739e-01  6.0041931212599202e-02  1.3710101544266595e-01  3.1151829731493486e-01  3.1625414144086322e-01  2.4118964818591271e-02  4.1575302009984921e-01  2.6535538025403815e-01  2.4699189430923939e-02  2.4960292009268747e-02  1.0169848110932442e-01  2.2241112322433454e-01  3.5783514979589925e-01  2.2478308435619193e-01  3.6118941651859265e-01  4.9615608398472832e-01  4.9668456640245023e-01  4.7573542849195355e-01  4.7544657608604640e-01  2.6271377098449422e-01  4.9726705732142029e-01  4.9718499241176767e-01  4.9606230061365192e-01  4.8855508086514088e-01  2.3010759583175902e-02  6.2396097370043431e-02  4.5202201524021612e-01  4.5418007567313934e-01  3.2566536769030424e-01  1.7229417690396234e-01  4.8522039026267755e-01  1.0643766449032609e-01  4.8687670653765913e-01  4.8627773895964843e-01  2.6870412616758665e-01  5.0076198405957069e-02  1.7531059270090191e-01  4.8406898071321408e-01  5.5027525790315925e-02  3.6168300119658153e-01  2.4362568359177264e-01  1.9588190773707609e-01  4.9655603068417131e-01  4.0083750962598436e-01  3.0937212256740071e-01  4.8798048202506322e-01  4.9635525504164968e-01  4.3535441141321374e-01  4.9745932029143247e-01  4.9740098275876621e-01  1.3190044604526666e-01  4.5844172149828777e-01  1.1768067264246322e-01  3.6513316763195286e-01  2.6562363547219042e-01  4.8676217294045182e-01  2.9777368254762732e-01  4.9678140357757139e-01  1.9617247962296105e-02  3.5925559183100009e-01  1.7360643384920552e-01  2.9895445698417500e-01  1.9059849261039497e-01  3.9199230784466482e-01  4.8927490873067275e-01  4.8949193929434581e-01  3.5869345099020966e-01  2.0425342431242643e-01  5.0394734265174962e-02  1.6470940597971917e-01  4.7534976403176615e-01  2.3756571861162307e-01  2.0729341675805069e-01  8.6092730350765201e-02  3.4296336508178760e-01  2.0390516396936403e-01  9.6324554817867378e-02  2.1900720069886925e-01  3.2197238807271450e-01  4.7518860279439740e-01  2.9246840507104815e-01  2.7814241831470277e-01  4.8937994681627117e-01  1.5605467160176234e-01  2.3290341213003241e-01  3.3449931543874539e-01  1.3410898645184419e-01  1.7301947400669826e-01  1.1599806017483520e-01  4.5641978187723881e-01  1.3993222501815916e-01  4.3323872829107041e-01  4.9678405695897754e-01  4.2559387428263942e-02  8.5023246618102552e-02  8.3168230435552729e-02  3.4558066398653170e-01  7.2548765540070587e-02  2.8996436145630466e-01  1.8918814345142757e-01  3.8237463313740078e-01  2.5265311214630931e-01  3.7731613127216773e-01  3.9785203175649436e-01  3.9035893999811166e-01  4.4231093338931771e-01  3.8297705631136741e-01  7.6907733062483885e-02  9.5068499293735703e-02  2.5966355405971453e-01  4.9803174079931584e-01  4.9797613601594493e-01  4.9750026808710951e-01  3.7278217986502260e-01  4.8490132418340531e-01  2.2063914865371323e-01  2.6630575218723879e-01  4.5225381135733689e-01  3.7426237341625690e-01  7.8366064389784648e-02  3.2581542844921291e-01  1.3395444463953426e-01  4.4121047060202034e-01  4.4257520216450652e-01  1.7431600239328485e-01  4.9741239153596800e-01  1.4520374378774170e-01  1.6615728562221047e-02  1.5214131315288573e-01  4.3081860106333592e-01  4.9761840968612669e-01  2.2253281904246844e-01  5.6613320411894555e-02  3.3064355911389592e-01  1.8854808057374946e-02  2.4956952647381911e-01  4.8977662190906901e-01  1.4916054403907242e-01  3.4852716884709212e-01  4.9247890980241521e-01  4.9148301132810396e-01  4.9277972318730778e-01  4.9188229416882900e-01  2.9159539074229529e-01  4.8099615781639976e-01  4.3434365931064728e-01  2.4767218184483344e-01  4.9812693733620517e-01  4.9807674948072256e-01  3.4116326274684899e-01  4.9739582528490811e-01  1.8056011964482893e-01  2.7748082907103155e-01  4.8305368174980629e-01  4.8279136426458080e-01  4.1451258919932266e-01  2.3709770880326561e-01  4.9714956253511233e-01  1.7304532974954240e-02  2.5200507011985657e-01  2.8297717178331866e-01  2.9249432170999107e-01  4.1667830033142095e-01  1.1712192660355374e-01  4.8519484845206223e-01  3.2472795783995012e-01  4.5015956201850123e-02  4.9732180488528233e-01  4.7697167833400989e-01  4.9244444911601348e-01  4.6593930361338037e-01  4.0889718105979245e-02  2.0678510594060526e-01  4.6525016173171574e-01  1.8966376862158552e-01  1.0184663506026559e-01  4.9746978713223827e-01  1.8843894184996277e-01  4.8899398803677080e-01  4.6973189645826446e-01  2.0293753845155901e-01  2.3339753132956381e-01  1.3989244035215656e-01  2.3055295963654557e-01  4.9116400969257273e-01  3.4922730956375275e-01  1.0218843812252104e-01  4.9335032797355693e-01  2.9989593685704447e-01  2.3755453414715014e-01  3.7953320230299387e-01  6.5493766895714997e-02  1.5435215829191692e-01  4.0401187441213132e-01  8.5252784302609089e-02  4.9241657105678355e-01  4.9251274450050636e-01  1.5839240130125765e-01  4.9821594350543280e-01  4.9817362412054428e-01  7.2588125531707196e-02  1.4761166847210391e-01  4.1341148902737035e-01  1.2056917416415405e-0