<?xml version="1.0"?>
<VTKFile type="UnstructuredGrid"  version="0.1"  >
<UnstructuredGrid>
<Piece  NumberOfPoints="12263" NumberOfCells="24015">
<Points>
<DataArray  type="Float64"  NumberOfComponents="3"  format="ascii">0 0 0  0.7 0 0  0.7 0.25 0  0 0.25 0  0.004999999999990235 0 0  0.009999999999980452 0 0  0.01499999999997117 0 0  0.01999999999996156 0 0  0.024999999999951 0 0  0.02999999999993964 0 0  0.03499999999992773 0 0  0.03999999999991589 0 0  0.04499999999990548 0 0  0.04999999999989713 0 0  0.05499999999988982 0 0  0.05999999999988251 0 0  0.06499999999987401 0 0  0.06999999999986654 0 0  0.07499999999985923 0 0  0.07999999999985022 0 0  0.08499999999984044 0 0  0.08999999999982942 0 0  0.09499999999981613 0 0  0.0999999999998014 0 0  0.1049999999997872 0 0  0.1099999999997749 0 0  0.1149999999997626 0 0  0.1199999999997479 0 0  0.1249999999997331 0 0  0.1299999999997225 0 0  0.1349999999997128 0 0  0.1399999999996997 0 0  0.144999999999685 0 0  0.1499999999996702 0 0  0.1549999999996555 0 0  0.1599999999996407 0 0  0.164999999999626 0 0  0.1699999999996112 0 0  0.1749999999995965 0 0  0.1799999999995818 0 0  0.184999999999567 0 0  0.1899999999995522 0 0  0.1949999999995375 0 0  0.1999999999995228 0 0  0.204999999999508 0 0  0.2099999999994933 0 0  0.2149999999994802 0 0  0.2199999999994705 0 0  0.22499999999946 0 0  0.2299999999994452 0 0  0.2349999999994304 0 0  0.2399999999994157 0 0  0.2449999999994009 0 0  0.2499999999993862 0 0  0.2549999999993715 0 0  0.2599999999993567 0 0  0.2649999999993419 0 0  0.2699999999993272 0 0  0.2749999999993125 0 0  0.2799999999992978 0 0  0.284999999999283 0 0  0.2899999999992683 0 0  0.2949999999992535 0 0  0.2999999999992388 0 0  0.3049999999992241 0 0  0.3099999999992092 0 0  0.3149999999991945 0 0  0.3199999999991798 0 0  0.324999999999165 0 0  0.3299999999991503 0 0  0.3349999999991355 0 0  0.3399999999991208 0 0  0.344999999999107 0 0  0.3499999999991022 0 0  0.3549999999991172 0 0  0.3599999999991322 0 0  0.3649999999991391 0 0  0.3699999999991513 0 0  0.3749999999991663 0 0  0.3799999999991814 0 0  0.3849999999991964 0 0  0.389999999999208 0 0  0.3949999999992155 0 0  0.3999999999992306 0 0  0.4049999999992456 0 0  0.4099999999992606 0 0  0.4149999999992756 0 0  0.4199999999992819 0 0  0.4249999999992947 0 0  0.4299999999993097 0 0  0.4349999999993247 0 0  0.4399999999993398 0 0  0.4449999999993547 0 0  0.4499999999993698 0 0  0.4549999999993826 0 0  0.459999999999389 0 0  0.4649999999994039 0 0  0.4699999999994189 0 0  0.4749999999994339 0 0  0.479999999999449 0 0  0.4849999999994565 0 0  0.4899999999994681 0 0  0.4949999999994831 0 0  0.4999999999994935 0 0  0.5049999999994985 0 0  0.5099999999995036 0 0  0.5149999999995087 0 0  0.5199999999995156 0 0  0.5249999999995404 0 0  0.5299999999995654 0 0  0.5349999999995723 0 0  0.5399999999995774 0 0  0.5449999999995824 0 0  0.5499999999995999 0 0  0.5549999999996248 0 0  0.559999999999641 0 0  0.564999999999646 0 0  0.5699999999996511 0 0  0.5749999999996592 0 0  0.5799999999996842 0 0  0.584999999999709 0 0  0.5899999999997148 0 0  0.5949999999997199 0 0  0.5999999999997249 0 0  0.6049999999997436 0 0  0.6099999999997685 0 0  0.6149999999997834 0 0  0.6199999999997885 0 0  0.6249999999997936 0 0  0.6299999999998029 0 0  0.6349999999998279 0 0  0.6399999999998521 0 0  0.6449999999998572 0 0  0.6499999999998622 0 0  0.6549999999998674 0 0  0.6599999999998872 0 0  0.6649999999999123 0 0  0.669999999999926 0 0  0.6749999999999312 0 0  0.6799999999999361 0 0  0.684999999999947 0 0  0.6899999999999717 0 0  0.6949999999999948 0 0  0.7 0.004999999999990592 0  0.7 0.009999999999980465 0  0.7 0.01499999999996959 0  0.7 0.0199999999999613 0  0.7 0.02499999999995366 0  0.7 0.02999999999994579 0  0.7 0.0349999999999332 0  0.7 0.03999999999991863 0  0.7 0.04499999999990405 0  0.7 0.04999999999988947 0  0.7 0.05499999999987491 0  0.7 0.05999999999986033 0  0.7 0.06499999999984575 0  0.7 0.06999999999983118 0  0.7 0.0749999999998166 0  0.7 0.07999999999980204 0  0.7 0.08499999999978745 0  0.7 0.08999999999977287 0  0.7 0.09499999999975831 0  0.7 0.09999999999974372 0  0.7 0.1049999999997292 0  0.7 0.1099999999997146 0  0.7 0.1149999999997 0  0.7 0.1199999999996854 0  0.7 0.1249999999996736 0  0.7 0.129999999999684 0  0.7 0.1349999999996972 0  0.7 0.1399999999997104 0  0.7 0.1449999999997235 0  0.7 0.1499999999997367 0  0.7 0.1549999999997499 0  0.7 0.159999999999763 0  0.7 0.1649999999997762 0  0.7 0.1699999999997893 0  0.7 0.1749999999998025 0  0.7 0.1799999999998157 0  0.7 0.1849999999998289 0  0.7 0.189999999999842 0  0.7 0.1949999999998552 0  0.7 0.1999999999998683 0  0.7 0.2049999999998815 0  0.7 0.2099999999998947 0  0.7 0.2149999999999078 0  0.7 0.219999999999921 0  0.7 0.2249999999999342 0  0.7 0.2299999999999474 0  0.7 0.2349999999999605 0  0.7 0.2399999999999737 0  0.7 0.2449999999999869 0  0.6949999999999955 0.25 0  0.6900000000000089 0.25 0  0.6850000000000404 0.25 0  0.6800000000000613 0.25 0  0.6750000000000642 0.25 0  0.6700000000000598 0.25 0  0.6650000000000639 0.25 0  0.6600000000000861 0.25 0  0.6550000000001163 0.25 0  0.6500000000001285 0.25 0  0.645000000000124 0.25 0  0.6400000000001195 0.25 0  0.6350000000001342 0.25 0  0.6300000000001669 0.25 0  0.6250000000001865 0.25 0  0.6200000000001883 0.25 0  0.6150000000001837 0.25 0  0.6100000000001892 0.25 0  0.6050000000002126 0.25 0  0.6000000000002416 0.25 0  0.5950000000002525 0.25 0  0.590000000000248 0.25 0  0.5850000000002442 0.25 0  0.5800000000002595 0.25 0  0.5750000000002934 0.25 0  0.5700000000003118 0.25 0  0.5650000000003124 0.25 0  0.5600000000003078 0.25 0  0.5550000000003145 0.25 0  0.5500000000003391 0.25 0  0.5450000000003669 0.25 0  0.5400000000003766 0.25 0  0.5350000000003721 0.25 0  0.5300000000003695 0.25 0  0.5250000000003848 0.25 0  0.52000000000042 0.25 0  0.5150000000004371 0.25 0  0.5100000000004363 0.25 0  0.5050000000004319 0.25 0  0.5000000000004399 0.25 0  0.4950000000004604 0.25 0  0.490000000000477 0.25 0  0.485000000000479 0.25 0  0.480000000000477 0.25 0  0.4750000000004855 0.25 0  0.4700000000005108 0.25 0  0.465000000000536 0.25 0  0.460000000000542 0.25 0  0.4550000000005475 0.25 0  0.4500000000005606 0.25 0  0.445000000000576 0.25 0  0.4400000000005913 0.25 0  0.4350000000006066 0.25 0  0.430000000000622 0.25 0  0.4250000000006373 0.25 0  0.4200000000006526 0.25 0  0.415000000000668 0.25 0  0.4100000000006833 0.25 0  0.4050000000006987 0.25 0  0.400000000000714 0.25 0  0.3950000000007293 0.25 0  0.3900000000007446 0.25 0  0.38500000000076 0.25 0  0.3800000000007753 0.25 0  0.3750000000007907 0.25 0  0.370000000000806 0.25 0  0.3650000000008213 0.25 0  0.3600000000008367 0.25 0  0.355000000000851 0.25 0  0.3500000000008565 0.25 0  0.345000000000842 0.25 0  0.3400000000008276 0.25 0  0.3350000000008213 0.25 0  0.3300000000008096 0.25 0  0.3250000000007953 0.25 0  0.3200000000007808 0.25 0  0.3150000000007664 0.25 0  0.3100000000007553 0.25 0  0.3050000000007484 0.25 0  0.300000000000734 0.25 0  0.2950000000007196 0.25 0  0.2900000000007051 0.25 0  0.2850000000006907 0.25 0  0.280000000000685 0.25 0  0.2750000000006728 0.25 0  0.2700000000006584 0.25 0  0.2650000000006439 0.25 0  0.2600000000006295 0.25 0  0.2550000000006151 0.25 0  0.2500000000006007 0.25 0  0.2450000000005884 0.25 0  0.2400000000005827 0.25 0  0.2350000000005683 0.25 0  0.2300000000005538 0.25 0  0.2250000000005395 0.25 0  0.2200000000005251 0.25 0  0.2150000000005181 0.25 0  0.2100000000005071 0.25 0  0.2050000000004926 0.25 0  0.2000000000004829 0.25 0  0.1950000000004785 0.25 0  0.1900000000004739 0.25 0  0.1850000000004695 0.25 0  0.1800000000004631 0.25 0  0.1750000000004388 0.25 0  0.1700000000004145 0.25 0  0.1650000000004082 0.25 0  0.1600000000004037 0.25 0  0.1550000000003993 0.25 0  0.1500000000003824 0.25 0  0.1450000000003581 0.25 0  0.1400000000003424 0.25 0  0.135000000000338 0.25 0  0.1300000000003335 0.25 0  0.1250000000003259 0.25 0  0.1200000000003015 0.25 0  0.1150000000002773 0.25 0  0.1100000000002722 0.25 0  0.1050000000002677 0.25 0  0.1000000000002632 0.25 0  0.09500000000024511 0.25 0  0.0900000000002209 0.25 0  0.08500000000020647 0.25 0  0.08000000000020191 0.25 0  0.07500000000019746 0.25 0  0.07000000000018869 0.25 0  0.06500000000016448 0.25 0  0.06000000000014072 0.25 0  0.05500000000013616 0.25 0  0.05000000000013183 0.25 0  0.04500000000012738 0.25 0  0.04000000000010784 0.25 0  0.03500000000008352 0.25 0  0.03000000000007041 0.25 0  0.02500000000006586 0.25 0  0.02000000000006141 0.25 0  0.01500000000005131 0.25 0  0.01000000000002688 0.25 0  0.005000000000004445 0.25 0  0 0.2486033519553014 0  0 0.2472067039106029 0  0 0.2458100558659043 0  0 0.2444134078212058 0  0 0.2430167597765072 0  0 0.2416201117318087 0  0 0.2402234636871101 0  0 0.2388268156424116 0  0 0.237430167597713 0  0 0.2360335195530145 0  0 0.2346368715083159 0  0 0.2332402234636174 0  0 0.2318435754189188 0  0 0.2304469273742203 0  0 0.2290502793295217 0  0 0.2276536312848232 0  0 0.2262569832401246 0  0 0.224860335195426 0  0 0.2234636871507275 0  0 0.2220670391060289 0  0 0.2206703910613305 0  0 0.2192737430166358 0  0 0.217877094971946 0  0 0.2164804469272599 0  0 0.2150837988825769 0  0 0.2136871508378938 0  0 0.2122905027932108 0  0 0.2108938547485278 0  0 0.2094972067038447 0  0 0.2081005586591617 0  0 0.2067039106144786 0  0 0.2053072625697956 0  0 0.2039106145251125 0  0 0.2025139664804295 0  0 0.2011173184357464 0  0 0.1997206703910634 0  0 0.1983240223463804 0  0 0.1969273743016973 0  0 0.1955307262570143 0  0 0.1941340782123312 0  0 0.1927374301676482 0  0 0.1913407821229651 0  0 0.1899441340782821 0  0 0.188547486033599 0  0 0.187150837988916 0  0 0.1857541899442329 0  0 0.1843575418995499 0  0 0.1829608938548668 0  0 0.1815642458101838 0  0 0.1801675977655007 0  0 0.1787709497208177 0  0 0.1773743016761346 0  0 0.1759776536314516 0  0 0.1745810055867685 0  0 0.1731843575420855 0  0 0.1717877094974025 0  0 0.1703910614527194 0  0 
[...]
<PointData  Scalars="pressure"> 
<DataArray  type="Float64"  Name="pressure"  format="ascii">4.9935512115453984e-01  5.8371927322844813e-04  5.7061628966551111e-04  4.9937401697804840e-01  4.9778719670832267e-01  4.9691116225917115e-01  4.9607468835181040e-01  4.9530389113371659e-01  4.9456035222952838e-01  4.9400721350009541e-01  4.9387809289769058e-01  4.9428560803172644e-01  5.0117890075797422e-01  4.8909384512066761e-01  4.8199172359619352e-01  4.7580171648512842e-01  4.6954947006529529e-01  4.6468222943359722e-01  4.6089893102984114e-01  4.5713743926019434e-01  4.5330353440695753e-01  4.4922355805741077e-01  4.4498383051613838e-01  4.4075028792977616e-01  4.3662403913335357e-01  4.3263489669522992e-01  4.2877341575410688e-01  4.2492065261082301e-01  4.2102176925718693e-01  4.1702761123126064e-01  4.1292549044852889e-01  4.0873118089176097e-01  4.0449339429042985e-01  4.0025179459459231e-01  3.9603588655355382e-01  3.9186637124448737e-01  3.8779062209597676e-01  3.8376583117882318e-01  3.7981159894159261e-01  3.7589794638955071e-01  3.7201041933221568e-01  3.6815111742996420e-01  3.6431271939691062e-01  3.6050431391976584e-01  3.5673036458684054e-01  3.5299280232623342e-01  3.4928955463429473e-01  3.4562985881080766e-01  3.4200297039688188e-01  3.3842782460887716e-01  3.3489673950247295e-01  3.3140495377396129e-01  3.2794589355979853e-01  3.2450388859300355e-01  3.2107985493799912e-01  3.1766027011978309e-01  3.1424716224012322e-01  3.1083179667963240e-01  3.0741059166542573e-01  3.0398529113382516e-01  3.0055651894661917e-01  2.9713333645294682e-01  2.9372305237028573e-01  2.9032982225816961e-01  2.8695539221756766e-01  2.8359286833039393e-01  2.8023929917609608e-01  2.7688611850195705e-01  2.7352486486951105e-01  2.7015323816305464e-01  2.6677147505360349e-01  2.6337517723462311e-01  2.5996852104303392e-01  2.5655158815670170e-01  2.5312769177613437e-01  2.4969887096180315e-01  2.4626512119729554e-01  2.4282964495237416e-01  2.3939111499273974e-01  2.3595118155042810e-01  2.3250872368263939e-01  2.2906373266985117e-01  2.2561723998690456e-01  2.2217122074746176e-01  2.1872700662755137e-01  2.1528619704783364e-01  2.1184784188368586e-01  2.0840740334957070e-01  2.0496243440650511e-01  2.0150454701253526e-01  1.9803218633442149e-01  1.9453959550869063e-01  1.9102972402628848e-01  1.8750262760600414e-01  1.8396300211236152e-01  1.8041661267084891e-01  1.7686880692199769e-01  1.7332477099196142e-01  1.6978428745660065e-01  1.6625242000519846e-01  1.6272642662138601e-01  1.5920385081871782e-01  1.5568125316971340e-01  1.5215280960618358e-01  1.4861235952132951e-01  1.4505513595174169e-01  1.4147683971721950e-01  1.3786674128533002e-01  1.3422622133131573e-01  1.3054809209129481e-01  1.2682843864950316e-01  1.2306811903490909e-01  1.1926342478510546e-01  1.1542090146410575e-01  1.1154133603992816e-01  1.0763624618906688e-01  1.0370170070256098e-01  9.9757675216432598e-02  9.5804839793716498e-02  9.1847287531380217e-02  8.7897808493116125e-02  8.3956696257057914e-02  8.0026617057808891e-02  7.6118799216892782e-02  7.2231561217210222e-02  6.8362511131966064e-02  6.4519750413958993e-02  6.0702820183110053e-02  5.6909019644416109e-02  5.3136967190632482e-02  4.9384535872265885e-02  4.5650393632265418e-02  4.1931505138060675e-02  3.8230265147711676e-02  3.4541987883602833e-02  3.0868496556847973e-02  2.7205682681792936e-02  2.3550811905677226e-02  1.9903255637047021e-02  1.6250989566739590e-02  1.2567469491496000e-02  8.8418226845297047e-03  5.0392272328851420e-03  3.7244418920947148e-04  5.2420024336519643e-04  6.0926316536293740e-04  6.9437031548336332e-04  7.7060584392824928e-04  8.4759758262508669e-04  9.2404877654251010e-04  1.0021591247615961e-03  1.0631817940347217e-03  1.0976194887073213e-03  1.0845121492480516e-03  1.0002036553873636e-03  8.3682969575068935e-04  6.4795451947202937e-04  2.0805238662464092e-03  -2.7471216760437244e-03  -2.7851595526101445e-04  -1.0881555680603866e-03  -7.9675944327466715e-04  -7.4189059723540147e-04  -6.5304634888300930e-04  -5.6632497016699968e-04  -5.0558458969872410e-04  -4.7450613345824416e-04  -4.7504472928134054e-04  -5.4848164075093828e-04  -7.6547326680240875e-04  -4.2638672220287113e-04  -1.8250047631593925e-03  8.3728118434865423e-04  5.9218221091437864e-04  7.5406885064243788e-04  7.8494836947885695e-04  8.0295158014749948e-04  8.2777847235067370e-04  8.5171079084879963e-04  8.7170607965122873e-04  8.8182804745574135e-04  8.8511149512927141e-04  8.7882516443939793e-04  8.6289250029584032e-04  8.3784878691821460e-04  8.0781661598256275e-04  7.6837768113496667e-04  7.2086150030360372e-04  6.6532924893237264e-04  5.8163223644337497e-04  5.2147860556045705e-04  4.0281365856071396e-04  5.2242711462720231e-03  9.2212646380205095e-03  1.3141071118798264e-02  1.7009711667090179e-02  2.0840856429956933e-02  2.4655632137932128e-02  2.8451405666963549e-02  3.2236859056801119e-02  3.6009037548332998e-02  3.9769185433760082e-02  4.3520445001735068e-02  4.7257887318436956e-02  5.0987643081820973e-02  5.4705398725426076e-02  5.8414260812188125e-02  6.2112674998559769e-02  6.5802741978909701e-02  6.9485008443566740e-02  7.3158990553792075e-02  7.6825979543962947e-02  8.0487489819765543e-02  8.4142168030179390e-02  8.7793706977283115e-02  9.1439806412728905e-02  9.5082681746004968e-02  9.8722284027757221e-02  1.0235923148766535e-01  1.0599254302734255e-01  1.0962318480607738e-01  1.1325106793097481e-01  1.1687581873017176e-01  1.2049647741621863e-01  1.2411471819668574e-01  1.2772753647660154e-01  1.3133660184949245e-01  1.3494113011685027e-01  1.3854011456800033e-01  1.4213357684096120e-01  1.4572041443580994e-01  1.4930162590874929e-01  1.5287536447318720e-01  1.5644226485549553e-01  1.6000263679261639e-01  1.6355523587216494e-01  1.6710286265673555e-01  1.7064455943273921e-01  1.7418335141496138e-01  1.7771820334512939e-01  1.8125190700473823e-01  1.8478579740164117e-01  1.8832069344795102e-01  1.9185787916290190e-01  1.9539750089471475e-01  1.9894034132331681e-01  2.0248651143080865e-01  2.0603511614000386e-01  2.0958575463353463e-01  2.1313725008701562e-01  2.1668800880084513e-01  2.2023704206486325e-01  2.2378168069542190e-01  2.2732228177192640e-01  2.3085576296618121e-01  2.3438318168672043e-01  2.3790686665040717e-01  2.4142769128390690e-01  2.4494812091241069e-01  2.4847299462137387e-01  2.5200541749624428e-01  2.5554670245779326e-01  2.5910212791464998e-01  2.6266744759638194e-01  2.6625143131294593e-01  2.6984651896492640e-01  2.7345417301901742e-01  2.7707101359424058e-01  2.8069400324461791e-01  2.8431971896044239e-01  2.8794421455634139e-01  2.9156240455093069e-01  2.9517368876915051e-01  2.9877201190820635e-01  3.0235433605803147e-01  3.0592002393395695e-01  3.0946760308798049e-01  3.1299138799917103e-01  3.1649374833608884e-01  3.1997644138207787e-01  3.2343939631990182e-01  3.2689156024200833e-01  3.3033990071744257e-01  3.3379649598421579e-01  3.3726961904987862e-01  3.4076995281363071e-01  3.4430216242858080e-01  3.4786563401566317e-01  3.5146638643764161e-01  3.5508794670331933e-01  3.5873934384334472e-01  3.6241369083772917e-01  3.6611283762202984e-01  3.6983219888271024e-01  3.7358289617280654e-01  3.7735749843477961e-01  3.8115630035789777e-01  3.8497291200004846e-01  3.8880482519966281e-01  3.9265135302386456e-01  3.9652063614434091e-01  4.0041596557799558e-01  4.0435056503901440e-01  4.0832902805414217e-01  4.1234634054609781e-01  4.1639188662751875e-01  4.2044289930967566e-01  4.2448949280472664e-01  4.2852460781590385e-01  4.3252204010109485e-01  4.3648730570639094e-01  4.4043203426056088e-01  4.4437435324327612e-01  4.4830610445813412e-01  4.5224436142854491e-01  4.5614265266782855e-01  4.6010913286023680e-01  4.6408103410867990e-01  4.6904027465051518e-01  4.7529281405691531e-01  4.8148723296455070e-01  4.8868575365599082e-01  5.0096762101469128e-01  4.9400108197445097e-01  4.9362579945603269e-01  4.9379555719652640e-01  4.9439460404556018e-01  4.9518435699549779e-01  4.9599936540762013e-01  4.9687670553646374e-01  4.9779043301710718e-01  4.9976370527634051e-01  4.9964643704995254e-01  4.9959917478882970e-01  4.9955439968292192e-01  4.9952486918688627e-01  4.9949481102517479e-01  4.9947349233553995e-01  4.9945702568365585e-01  4.9944260652311956e-01  4.9943348914272123e-01  4.9942817364406455e-01  4.9942609549208711e-01  4.9942779345774047e-01  4.9943232427064338e-01  4.9944005471428382e-01  4.9945029076765579e-01  4.9946274522773876e-01  4.9947767393813275e-01  4.9949477425770133e-01  4.9951281275403375e-01  4.9953301665066518e-01  4.9955373780891393e-01  4.9957639973485407e-01  4.9959914069310613e-01  4.9962340322392879e-01  4.9964724597795923e-01  4.9967243670212508e-01  4.9969679769616110e-01  4.9972196233808414e-01  4.9974670267853305e-01  4.9977238096948912e-01  4.9979699418957529e-01  4.9982156564532187e-01  4.9984567552703391e-01  4.9986967528633219e-01  4.9989460725453067e-01  4.9991661824428429e-01  4.9993871602949536e-01  4.9996124955505722e-01  4.9998368299189994e-01  5.0000492479632763e-01  5.0002581727520978e-01  5.0004572462075025e-01  5.0006600876974072e-01  5.0008474267325864e-01  5.0010364579615230e-01  5.0012172505709984e-01  5.0013947697371819e-01  5.0015674943529653e-01  5.0017367711615068e-01  5.0018936583316920e-01  5.0020504290343315e-01  5.0022073400751954e-01  5.0023490379882563e-01  5.0024925866685455e-01  5.0026286258075137e-01  5.0027573171938222e-01  5.0028873950372366e-01  5.0030092919271285e-01  5.0031251261674936e-01  5.0032404272488917e-01  5.0033479458343666e-01  5.0034553761259959e-01  5.0035499665304717e-01  5.0036495809969839e-01  5.0037422848958313e-01  5.0038279626590176e-01  5.0039108670736043e-01  5.0039913414874393e-01  5.0040639754613525e-01  5.0041375414606415e-01  5.0042010446911955e-01  5.0042651968547580e-01  5.0043244467738157e-01  5.0043775015438197e-01  5.0044306080363543e-01  5.0044765691046411e-01  5.0045198560046711e-01  5.0045596931182090e-01  5.0045939127930805e-01  5.0046265336875706e-01  5.0046544300202500e-01  5.0046778724035756e-01  5.0046986577539143e-01  5.0047154276439165e-01  5.0047281786533948e-01  5.0047374941052192e-01  5.0047426582407295e-01  5.0047442824252342e-01  5.0047421944183035e-01  5.0047365579026615e-01  5.0047263019037180e-01  5.0047138164980876e-01  5.0046956416574517e-01  5.0046759476907277e-01  5.0046514036773115e-01  5.0046228769755174e-01  5.0045893544918474e-01  5.0045535580113831e-01  5.0045137732007439e-01  5.0044701761709731e-01  5.0044237160946814e-01  5.0043706448957692e-01  5.0043180763950534e-01  5.0042552246201588e-01  5.0041899709734350e-01  5.0041228155015272e-01  5.0040508483724144e-01  5.0039760548681667e-01  5.0038945855402084e-01  5.0038047072786662e-01  5.0037237825482528e-01  5.0036335193967130e-01  5.0035341693987534e-01  5.0034298085186191e-01  5.0033225344613264e-01  5.0032130960254650e-01  5.0030981195295743e-01  5.0029799226027838e-01  5.0028546408911145e-01  5.0027205769672878e-01  5.0025929174688755e-01  5.0024505400163799e-01  5.0023151564657364e-01  5.0021610775627989e-01  5.0020090838911069e-01  5.0018490465854548e-01  5.0016863987725191e-01  5.0015180462600084e-01  5.0013470165117990e-01  5.0011628018187904e-01  5.0009846591191121e-01  5.0007946820900540e-01  5.0006069259039621e-01  5.0004063194810944e-01  5.0002065795317185e-01  4.9999947707070264e-01  4.9997818589597487e-01  4.9995602674581724e-01  4.9993454332522891e-01  4.9991119871188811e-01  4.9988869126179092e-01  4.9986456423668024e-01  4.9984116674694712e-01  4.9981681898226749e-01  4.9979241421556814e-01  4.9976773613427322e-01  4.9974313166520906e-01  4.9971751009074472e-01  4.9969286874024343e-01  4.9966787413401353e-01  4.9964373046203830e-01  4.9961883188742129e-01  4.9959531761735321e-01  4.9957145797648639e-01  4.9954914586316934e-01  4.9952698370880538e-01  4.9950677188950382e-01  4.9948714685983731e-01  4.9946968545568088e-01  4.9945323584870271e-01  4.9943896192305348e-01  4.9942718951800202e-01  4.9941763079386137e-01  4.9941062248377893e-01  4.9940681416147381e-01  4.9940583976050895e-01  4.9940867329160343e-01  4.9941474438060457e-01  4.9942462679424349e-01  4.9943987819737590e-01  4.9945715311542821e-01  4.9947933452181331e-01  4.9951042028303427e-01  4.9954093456398913e-01  4.9958709392195039e-01  4.9963579081323700e-01  4.9975659662255090e-01  4.2250179810238619e-01  4.6540888112867324e-01  4.6503284104338033e-01  1.3501988402945544e-01  3.0448588244006269e-01  4.7211513069428929e-01  2.2044812509986936e-01  4.8785761394367766e-01  4.8837475693107119e-01  4.8331964619363826e-01  4.8327498130757590e-01  6.8639300054240113e-02  3.6028037783117228e-01  3.5571190560007998e-01  8.4945054445254922e-02  2.6139594870709948e-01  1.8114702719548842e-01  1.7342076421980221e-01  2.6183383136298122e-01  4.8701128318267023e-01  4.9087155145685124e-01  4.9060863306893560e-01  4.1192329543979678e-01  4.1737999665564990e-01  4.8954919501087735e-01  1.1260500634402393e-01  3.1660286615234590e-01  3.0918949582070721e-01  1.3038009787768368e-01  4.9544882829525072e-01  4.9524639173718593e-01  2.1811577477928248e-01  2.1481118128217316e-01  4.7157183485602529e-02  4.9466778657729138e-01  4.9447556659808739e-01  4.9212839727763236e-01  4.9185114123575890e-01  4.0060172134823518e-02  4.1781702631449709e-02  4.9341119119020949e-01  3.8262224955099455e-01  1.8660923946087843e-01  2.5496332771486979e-01  9.8915797111546480e-02  3.3947904173298848e-01  1.4595169148668824e-01  4.5003962216963550e-01  2.8197583542549337e-01  3.7540780205511398e-01  8.1684651791632978e-02  3.8085581022880827e-01  4.5331277434687994e-01  3.7210405058265526e-02  4.9454903246788467e-01  4.6759315258446016e-01  4.7468669586594187e-01  4.9333422659329468e-01  3.3781639294131466e-01  1.5851141399310453e-01  3.3634196801234012e-01  2.8253955041742013e-01  1.0117195230332188e-01  2.4257823816964127e-01  4.9413056814639561e-01  2.8940565986471189e-01  2.4429209349055855e-01  1.9312119773774450e-01  4.6789867680747532e-01  1.8840747202514871e-01  4.9566076720627367e-01  4.9693856785002127e-01  4.9683105301108554e-01  4.9556481610371556e-01  1.5319754340889649e-01  3.9142514476085805e-01  1.5320975566505646e-01  2.3579423085007462e-01  2.0636316747864331e-01  6.8953596799999434e-02  2.9075430157448562e-01  2.3496048366081626e-01  4.7941982538705208e-01  4.8009986244854713e-01  4.3897716934725012e-01  2.0183027955836644e-01  1.1587289631172182e-01  4.3865092034920589e-01  4.9459587316707126e-01  4.9748119049675826e-01  4.9740103683380865e-01  3.9004988160717086e-01  3.2907522352223134e-01  4.6949603785143001e-01  4.2879444884947199e-01  4.3061895660288230e-01  7.2252243507528166e-02  4.9604551933871194e-01  2.7946435587431850e-01  4.7967548851734321e-01  1.6018958612927056e-01  3.3489872130646903e-01  3.2489917505263859e-02  1.1739553993813466e-01  4.7844773079517028e-01  1.2372180426134198e-01  6.1069702203958673e-02  3.0563285362568859e-01  3.9861001165738186e-01  9.2060548448743673e-02  4.9574372755469831e-01  4.0200323076245892e-01  4.1616458023476688e-01  4.9741756602561027e-01  4.9747898602357687e-01  1.6736151314749800e-01  4.9567089335544190e-01  6.0522855010295147e-02  1.3771741465057855e-01  3.1153896644491574e-01  3.1631415111332822e-01  2.3569382809464506e-02  4.1608102318947426e-01  2.6537478348981092e-01  2.4891529504080589e-02  2.5327088880826826e-02  1.0220638723493394e-01  2.2252404365983994e-01  3.5790147892357282e-01  2.2497576389426979e-01  3.6132670094377206e-01  4.9624538573834925e-01  4.9678767711212601e-01  4.7636661089347110e-01  4.7606072433730334e-01  2.6277475187728716e-01  4.9740051856273737e-01  4.9732561742783438e-01  4.9613482757957805e-01  4.8880671860605157e-01  2.3275315286169322e-02  6.2898415571352229e-02  4.5262651030569501e-01  4.5485433809241027e-01  3.2557955438710506e-01  1.7281571602176748e-01  4.8546195433482608e-01  1.0721071277922103e-01  4.8755286970493100e-01  4.8694842174394654e-01  2.6881372446791624e-01  4.9816357123879822e-02  1.7575868228716984e-01  4.8430089018875294e-01  5.5710926451957452e-02  3.6171730619447245e-01  2.4383363592003721e-01  1.9618202548294134e-01  4.9662823503852388e-01  4.0111525503259166e-01  3.0945821093660425e-01  4.8825759075700353e-01  4.9641697150337394e-01  4.3577398307049259e-01  4.9756417634157174e-01  4.9751202495245178e-01  1.3222075383691900e-01  4.5884778314482844e-01  1.1826910581007909e-01  3.6531145296083878e-01  2.6573891035404101e-01  4.8698891595810978e-01  2.9784540373518709e-01  4.9686336310211954e-01  1.9251800415078710e-02  3.5926859451889459e-01  1.7395583480426974e-01  2.9896211344185258e-01  1.9071111632136728e-01  3.9219771693951910e-01  4.8965352506528820e-01  4.8987897147668369e-01  3.5877668889594438e-01  2.0441257437814303e-01  5.0877905844631310e-02  1.6540592555192957e-01  4.7575984552283823e-01  2.3772728929470222e-01  2.0757919346503223e-01  8.6399291747804918e-02  3.4326262078823350e-01  2.0421954175040707e-01  9.7049334398210826e-02  2.1919774861721247e-01  3.2205987412907411e-01  4.7560646593287026e-01  2.9254604145797125e-01  2.7819508500615309e-01  4.8959231035653478e-01  1.5629590232152746e-01  2.3299332177065246e-01  3.3447687367195922e-01  1.3478269858254779e-01  1.7347075847697541e-01  1.1664401168607692e-01  4.5690137704250078e-01  1.4033218942858655e-01  4.3364443267503711e-01  4.9683945701761723e-01  4.2916413824392555e-02  8.5730377502008542e-02  8.3805098268754222e-02  3.4573053724025427e-01  7.3188575215700699e-02  2.8989867850883394e-01  1.8962150584153944e-01  3.8252511018397273e-01  2.5279322268449050e-01  3.7748808922538568e-01  3.9813698227927852e-01  3.9044922298817530e-01  4.4272418602300223e-01  3.8313124386413699e-01  7.7445978858292533e-02  9.5529435606247923e-02  2.5975319477032627e-01  4.9814601839640710e-01  4.9809961504717887e-01  4.9758409428354833e-01  3.7298793328968344e-01  4.8525638637202090e-01  2.2092041428451287e-01  2.6633469370524393e-01  4.5274404168310578e-01  3.7435775492726253e-01  7.8861531565784210e-02  3.2587144003026158e-01  1.3445844951566388e-01  4.4150872883851672e-01  4.4293864280661510e-01  1.7451373521216992e-01  4.9748577959175089e-01  1.4586271769550771e-01  1.6836298492279616e-02  1.5268349581589921e-01  4.3126369919962715e-01  4.9770465260218338e-01  2.2284482340723766e-01  5.6869033768613117e-02  3.3069448524234346e-01  1.9080672081044903e-02  2.4973544451291352e-01  4.8994481896850056e-01  1.4974500989006104e-01  3.4860134399856763e-01  4.9288078886114184e-01  4.9204955172242576e-01  4.9317753342163595e-01  4.9244341598012098e-01  2.9167239289776536e-01  4.8126410197388569e-01  4.3484756198124530e-01  2.4768863714187539e-01  4.9822566195166995e-01  4.9818393864319499e-01  3.4109863951881092e-01  4.9745589050106725e-01  1.8080024086138380e-01  2.7755031415829373e-01  4.8355941656568485e-01  4.8328740913299212e-01  4.1478873814312545e-01  2.3719259334124482e-01  4.9720055083794873e-01  1.7458264705061167e-02  2.5207723720839414e-01  2.8320145716577955e-01  2.9255743710972559e-01  4.1704860870365373e-01  1.1787526081200807e-01  4.8557168732034756e-01  3.2478510604073318e-01  4.5259893576858244e-02  4.9737256068466801e-01  4.7731830261394698e-01  4.9264773507841009e-01  4.6640735155472696e-01  4.1405684115827061e-02  2.0707242073588733e-01  4.6563964147603482e-01  1.9004273986391265e-01  1.0228585131439996e-01  4.9752056222966684e-01  1.8874616331018998e-01  4.8916328142189025e-01  4.7010494239717376e-01  2.0306402584812630e-01  2.3360867657819254e-01  1.4061837849939213e-01  2.3073133271107793e-01  4.9130364961440337e-01  3.4923942870547958e-01  1.0285919929940375e-01  4.9354099789295774e-01  2.9995685399005090e-01  2.3768923933703331e-01  3.7975430893825091e-01  6.5402445970891412e-02  1.5470465897523442e-01  4.0427211308233291e-01  8.5941413252156013e-02  4.9269440260720143e-01  4.9279123274193759e-01  1.5859042692210165e-01  4.9831642683599553e-01  4.9828424707777796e-01  7.3191045267529287e-02  1.4808369264398916e-01  4.1364202441680420e-01  1.2090327983128688e-0