<?xml version="1.0"?>
<VTKFile type="UnstructuredGrid"  version="0.1"  >
<UnstructuredGrid>
<Piece  NumberOfPoints="12263" NumberOfCells="24015">
<Points>
<DataArray  type="Float64"  NumberOfComponents="3"  format="ascii">0 0 0  0.7 0 0  0.7 0.25 0  0 0.25 0  0.004999999999990235 0 0  0.009999999999980452 0 0  0.01499999999997117 0 0  0.01999999999996156 0 0  0.024999999999951 0 0  0.02999999999993964 0 0  0.03499999999992773 0 0  0.03999999999991589 0 0  0.04499999999990548 0 0  0.04999999999989713 0 0  0.05499999999988982 0 0  0.05999999999988251 0 0  0.06499999999987401 0 0  0.06999999999986654 0 0  0.07499999999985923 0 0  0.07999999999985022 0 0  0.08499999999984044 0 0  0.08999999999982942 0 0  0.09499999999981613 0 0  0.0999999999998014 0 0  0.1049999999997872 0 0  0.1099999999997749 0 0  0.1149999999997626 0 0  0.1199999999997479 0 0  0.1249999999997331 0 0  0.1299999999997225 0 0  0.1349999999997128 0 0  0.1399999999996997 0 0  0.144999999999685 0 0  0.1499999999996702 0 0  0.1549999999996555 0 0  0.1599999999996407 0 0  0.164999999999626 0 0  0.1699999999996112 0 0  0.1749999999995965 0 0  0.1799999999995818 0 0  0.184999999999567 0 0  0.1899999999995522 0 0  0.1949999999995375 0 0  0.1999999999995228 0 0  0.204999999999508 0 0  0.2099999999994933 0 0  0.2149999999994802 0 0  0.2199999999994705 0 0  0.22499999999946 0 0  0.2299999999994452 0 0  0.2349999999994304 0 0  0.2399999999994157 0 0  0.2449999999994009 0 0  0.2499999999993862 0 0  0.2549999999993715 0 0  0.2599999999993567 0 0  0.2649999999993419 0 0  0.2699999999993272 0 0  0.2749999999993125 0 0  0.2799999999992978 0 0  0.284999999999283 0 0  0.2899999999992683 0 0  0.2949999999992535 0 0  0.2999999999992388 0 0  0.3049999999992241 0 0  0.3099999999992092 0 0  0.3149999999991945 0 0  0.3199999999991798 0 0  0.324999999999165 0 0  0.3299999999991503 0 0  0.3349999999991355 0 0  0.3399999999991208 0 0  0.344999999999107 0 0  0.3499999999991022 0 0  0.3549999999991172 0 0  0.3599999999991322 0 0  0.3649999999991391 0 0  0.3699999999991513 0 0  0.3749999999991663 0 0  0.3799999999991814 0 0  0.3849999999991964 0 0  0.389999999999208 0 0  0.3949999999992155 0 0  0.3999999999992306 0 0  0.4049999999992456 0 0  0.4099999999992606 0 0  0.4149999999992756 0 0  0.4199999999992819 0 0  0.4249999999992947 0 0  0.4299999999993097 0 0  0.4349999999993247 0 0  0.4399999999993398 0 0  0.4449999999993547 0 0  0.4499999999993698 0 0  0.4549999999993826 0 0  0.459999999999389 0 0  0.4649999999994039 0 0  0.4699999999994189 0 0  0.4749999999994339 0 0  0.479999999999449 0 0  0.4849999999994565 0 0  0.4899999999994681 0 0  0.4949999999994831 0 0  0.4999999999994935 0 0  0.5049999999994985 0 0  0.5099999999995036 0 0  0.5149999999995087 0 0  0.5199999999995156 0 0  0.5249999999995404 0 0  0.5299999999995654 0 0  0.5349999999995723 0 0  0.5399999999995774 0 0  0.5449999999995824 0 0  0.5499999999995999 0 0  0.5549999999996248 0 0  0.559999999999641 0 0  0.564999999999646 0 0  0.5699999999996511 0 0  0.5749999999996592 0 0  0.5799999999996842 0 0  0.584999999999709 0 0  0.5899999999997148 0 0  0.5949999999997199 0 0  0.5999999999997249 0 0  0.6049999999997436 0 0  0.6099999999997685 0 0  0.6149999999997834 0 0  0.6199999999997885 0 0  0.6249999999997936 0 0  0.6299999999998029 0 0  0.6349999999998279 0 0  0.6399999999998521 0 0  0.6449999999998572 0 0  0.6499999999998622 0 0  0.6549999999998674 0 0  0.6599999999998872 0 0  0.6649999999999123 0 0  0.669999999999926 0 0  0.6749999999999312 0 0  0.6799999999999361 0 0  0.684999999999947 0 0  0.6899999999999717 0 0  0.6949999999999948 0 0  0.7 0.004999999999990592 0  0.7 0.009999999999980465 0  0.7 0.01499999999996959 0  0.7 0.0199999999999613 0  0.7 0.02499999999995366 0  0.7 0.02999999999994579 0  0.7 0.0349999999999332 0  0.7 0.03999999999991863 0  0.7 0.04499999999990405 0  0.7 0.04999999999988947 0  0.7 0.05499999999987491 0  0.7 0.05999999999986033 0  0.7 0.06499999999984575 0  0.7 0.06999999999983118 0  0.7 0.0749999999998166 0  0.7 0.07999999999980204 0  0.7 0.08499999999978745 0  0.7 0.08999999999977287 0  0.7 0.09499999999975831 0  0.7 0.09999999999974372 0  0.7 0.1049999999997292 0  0.7 0.1099999999997146 0  0.7 0.1149999999997 0  0.7 0.1199999999996854 0  0.7 0.1249999999996736 0  0.7 0.129999999999684 0  0.7 0.1349999999996972 0  0.7 0.1399999999997104 0  0.7 0.1449999999997235 0  0.7 0.1499999999997367 0  0.7 0.1549999999997499 0  0.7 0.159999999999763 0  0.7 0.1649999999997762 0  0.7 0.1699999999997893 0  0.7 0.1749999999998025 0  0.7 0.1799999999998157 0  0.7 0.1849999999998289 0  0.7 0.189999999999842 0  0.7 0.1949999999998552 0  0.7 0.1999999999998683 0  0.7 0.2049999999998815 0  0.7 0.2099999999998947 0  0.7 0.2149999999999078 0  0.7 0.219999999999921 0  0.7 0.2249999999999342 0  0.7 0.2299999999999474 0  0.7 0.2349999999999605 0  0.7 0.2399999999999737 0  0.7 0.2449999999999869 0  0.6949999999999955 0.25 0  0.6900000000000089 0.25 0  0.6850000000000404 0.25 0  0.6800000000000613 0.25 0  0.6750000000000642 0.25 0  0.6700000000000598 0.25 0  0.6650000000000639 0.25 0  0.6600000000000861 0.25 0  0.6550000000001163 0.25 0  0.6500000000001285 0.25 0  0.645000000000124 0.25 0  0.6400000000001195 0.25 0  0.6350000000001342 0.25 0  0.6300000000001669 0.25 0  0.6250000000001865 0.25 0  0.6200000000001883 0.25 0  0.6150000000001837 0.25 0  0.6100000000001892 0.25 0  0.6050000000002126 0.25 0  0.6000000000002416 0.25 0  0.5950000000002525 0.25 0  0.590000000000248 0.25 0  0.5850000000002442 0.25 0  0.5800000000002595 0.25 0  0.5750000000002934 0.25 0  0.5700000000003118 0.25 0  0.5650000000003124 0.25 0  0.5600000000003078 0.25 0  0.5550000000003145 0.25 0  0.5500000000003391 0.25 0  0.5450000000003669 0.25 0  0.5400000000003766 0.25 0  0.5350000000003721 0.25 0  0.5300000000003695 0.25 0  0.5250000000003848 0.25 0  0.52000000000042 0.25 0  0.5150000000004371 0.25 0  0.5100000000004363 0.25 0  0.5050000000004319 0.25 0  0.5000000000004399 0.25 0  0.4950000000004604 0.25 0  0.490000000000477 0.25 0  0.485000000000479 0.25 0  0.480000000000477 0.25 0  0.4750000000004855 0.25 0  0.4700000000005108 0.25 0  0.465000000000536 0.25 0  0.460000000000542 0.25 0  0.4550000000005475 0.25 0  0.4500000000005606 0.25 0  0.445000000000576 0.25 0  0.4400000000005913 0.25 0  0.4350000000006066 0.25 0  0.430000000000622 0.25 0  0.4250000000006373 0.25 0  0.4200000000006526 0.25 0  0.415000000000668 0.25 0  0.4100000000006833 0.25 0  0.4050000000006987 0.25 0  0.400000000000714 0.25 0  0.3950000000007293 0.25 0  0.3900000000007446 0.25 0  0.38500000000076 0.25 0  0.3800000000007753 0.25 0  0.3750000000007907 0.25 0  0.370000000000806 0.25 0  0.3650000000008213 0.25 0  0.3600000000008367 0.25 0  0.355000000000851 0.25 0  0.3500000000008565 0.25 0  0.345000000000842 0.25 0  0.3400000000008276 0.25 0  0.3350000000008213 0.25 0  0.3300000000008096 0.25 0  0.3250000000007953 0.25 0  0.3200000000007808 0.25 0  0.3150000000007664 0.25 0  0.3100000000007553 0.25 0  0.3050000000007484 0.25 0  0.300000000000734 0.25 0  0.2950000000007196 0.25 0  0.2900000000007051 0.25 0  0.2850000000006907 0.25 0  0.280000000000685 0.25 0  0.2750000000006728 0.25 0  0.2700000000006584 0.25 0  0.2650000000006439 0.25 0  0.2600000000006295 0.25 0  0.2550000000006151 0.25 0  0.2500000000006007 0.25 0  0.2450000000005884 0.25 0  0.2400000000005827 0.25 0  0.2350000000005683 0.25 0  0.2300000000005538 0.25 0  0.2250000000005395 0.25 0  0.2200000000005251 0.25 0  0.2150000000005181 0.25 0  0.2100000000005071 0.25 0  0.2050000000004926 0.25 0  0.2000000000004829 0.25 0  0.1950000000004785 0.25 0  0.1900000000004739 0.25 0  0.1850000000004695 0.25 0  0.1800000000004631 0.25 0  0.1750000000004388 0.25 0  0.1700000000004145 0.25 0  0.1650000000004082 0.25 0  0.1600000000004037 0.25 0  0.1550000000003993 0.25 0  0.1500000000003824 0.25 0  0.1450000000003581 0.25 0  0.1400000000003424 0.25 0  0.135000000000338 0.25 0  0.1300000000003335 0.25 0  0.1250000000003259 0.25 0  0.1200000000003015 0.25 0  0.1150000000002773 0.25 0  0.1100000000002722 0.25 0  0.1050000000002677 0.25 0  0.1000000000002632 0.25 0  0.09500000000024511 0.25 0  0.0900000000002209 0.25 0  0.08500000000020647 0.25 0  0.08000000000020191 0.25 0  0.07500000000019746 0.25 0  0.07000000000018869 0.25 0  0.06500000000016448 0.25 0  0.06000000000014072 0.25 0  0.05500000000013616 0.25 0  0.05000000000013183 0.25 0  0.04500000000012738 0.25 0  0.04000000000010784 0.25 0  0.03500000000008352 0.25 0  0.03000000000007041 0.25 0  0.02500000000006586 0.25 0  0.02000000000006141 0.25 0  0.01500000000005131 0.25 0  0.01000000000002688 0.25 0  0.005000000000004445 0.25 0  0 0.2486033519553014 0  0 0.2472067039106029 0  0 0.2458100558659043 0  0 0.2444134078212058 0  0 0.2430167597765072 0  0 0.2416201117318087 0  0 0.2402234636871101 0  0 0.2388268156424116 0  0 0.237430167597713 0  0 0.2360335195530145 0  0 0.2346368715083159 0  0 0.2332402234636174 0  0 0.2318435754189188 0  0 0.2304469273742203 0  0 0.2290502793295217 0  0 0.2276536312848232 0  0 0.2262569832401246 0  0 0.224860335195426 0  0 0.2234636871507275 0  0 0.2220670391060289 0  0 0.2206703910613305 0  0 0.2192737430166358 0  0 0.217877094971946 0  0 0.2164804469272599 0  0 0.2150837988825769 0  0 0.2136871508378938 0  0 0.2122905027932108 0  0 0.2108938547485278 0  0 0.2094972067038447 0  0 0.2081005586591617 0  0 0.2067039106144786 0  0 0.2053072625697956 0  0 0.2039106145251125 0  0 0.2025139664804295 0  0 0.2011173184357464 0  0 0.1997206703910634 0  0 0.1983240223463804 0  0 0.1969273743016973 0  0 0.1955307262570143 0  0 0.1941340782123312 0  0 0.1927374301676482 0  0 0.1913407821229651 0  0 0.1899441340782821 0  0 0.188547486033599 0  0 0.187150837988916 0  0 0.1857541899442329 0  0 0.1843575418995499 0  0 0.1829608938548668 0  0 0.1815642458101838 0  0 0.1801675977655007 0  0 0.1787709497208177 0  0 0.1773743016761346 0  0 0.1759776536314516 0  0 0.1745810055867685 0  0 0.1731843575420855 0  0 0.1717877094974025 0  0 0.1703910614527194 0  0 
[...]
<PointData  Scalars="pressure"> 
<DataArray  type="Float64"  Name="pressure"  format="ascii">4.9935513891248673e-01  5.8350218868957824e-04  5.7039242603299043e-04  4.9937395623018638e-01  4.9778652528934353e-01  4.9690978031398952e-01  4.9607259507499635e-01  4.9530108828358160e-01  4.9455684510582393e-01  4.9400300332229774e-01  4.9387315125534065e-01  4.9427990710926017e-01  5.0117134767827765e-01  4.8908807739229893e-01  4.8198656254745864e-01  4.7579715664868383e-01  4.6954549398683243e-01  4.6467846180048000e-01  4.6089510319180466e-01  4.5713357110235220e-01  4.5329968297616363e-01  4.4921981847435338e-01  4.4498027016582709e-01  4.4074692290742495e-01  4.3662085371563586e-01  4.3263186730598957e-01  4.2877052962262685e-01  4.2491793588701865e-01  4.2101926698459091e-01  4.1702538322814581e-01  4.1292360026468816e-01  4.0872968217749517e-01  4.0449231791474127e-01  4.0025115529867389e-01  3.9603568531438199e-01  3.9186659844357891e-01  3.8779124988021485e-01  3.8376684223281571e-01  3.7981297021967197e-01  3.7589966241081746e-01  3.7201247061693954e-01  3.6815349231179700e-01  3.6431540791579925e-01  3.6050730210516230e-01  3.5673363444269862e-01  3.5299633485873172e-01  3.4929332914850691e-01  3.4563385031236843e-01  3.4200715888477717e-01  3.3843218076368492e-01  3.3490123672963196e-01  3.3140956855809672e-01  3.2795060335056875e-01  3.2450867892094709e-01  3.2108470870306766e-01  3.1766517969746144e-01  3.1425211519702306e-01  3.1083678810087478e-01  3.0741561305476950e-01  3.0399033783800383e-01  3.0056158282710294e-01  2.9713840818943149e-01  2.9372811886810829e-01  2.9033486846316076e-01  2.8696040281256729e-01  2.8359783169429059e-01  2.8024420322051163e-01  2.7689095474545306e-01  2.7352963320152529e-01  2.7015793254791065e-01  2.6677609551284531e-01  2.6337972349922550e-01  2.5997299389153183e-01  2.5655598578332767e-01  2.5313201002803787e-01  2.4970311139787069e-01  2.4626927760884035e-01  2.4283371496454015e-01  2.3939509507960999e-01  2.3595506375909370e-01  2.3251250753974134e-01  2.2906741362208730e-01  2.2562080954944030e-01  2.2217467714033626e-01  2.1873034422595972e-01  2.1528940760798651e-01  2.1185092047436008e-01  2.0841034812361439e-01  2.0496524204819605e-01  2.0150721956300949e-01  1.9803472700312688e-01  1.9454200934195567e-01  1.9103201651084317e-01  1.8750480401053346e-01  1.8396506394894219e-01  1.8041856069400714e-01  1.7687063944853768e-01  1.7332648123132718e-01  1.6978586961186970e-01  1.6625386613168658e-01  1.6272772928166770e-01  1.5920500394655626e-01  1.5568225079170100e-01  1.5215365108974518e-01  1.4861304654319291e-01  1.4505567304819519e-01  1.4147723489002867e-01  1.3786701121562184e-01  1.3422637631330561e-01  1.3054815544251919e-01  1.2682843043928269e-01  1.2306806357035704e-01  1.1926334629857378e-01  1.1542082457780316e-01  1.1154128267305825e-01  1.0763623716293991e-01  1.0370175376027242e-01  9.9757800750085404e-02  9.5805050215194143e-02  9.1847585827109141e-02  8.7898197114346141e-02  8.3957172079590123e-02  8.0027175335762063e-02  7.6119431150629122e-02  7.2232254561166692e-02  6.8363253759534962e-02  6.4520529291029693e-02  6.0703617135597319e-02  5.6909817825428054e-02  5.3137751310015087e-02  4.9385290303705622e-02  4.5651102450955536e-02  4.1932156165100480e-02  3.8230841709839793e-02  3.4542477909253716e-02  3.0868888309503888e-02  2.7205965665993558e-02  2.3550977815654520e-02  1.9903294708467571e-02  1.6250900312162551e-02  1.2567262847965811e-02  8.8415092202406686e-03  5.0388391188428625e-03  3.7230483202758529e-04  5.2400334941670650e-04  6.0903177384233527e-04  6.9410247459916676e-04  7.7030193614896578e-04  8.4725437216932994e-04  9.2366328073039772e-04  1.0017273635914712e-03  1.0627087279114857e-03  1.0971145324802803e-03  1.0839964277782278e-03  9.9971211188333076e-04  8.3640478829795492e-04  6.4761662698429668e-04  2.0795766573133410e-03  -2.7460103726480800e-03  -2.7845986989534738e-04  -1.0877407087761372e-03  -7.9646169253502991e-04  -7.4163612686714380e-04  -6.5283771516054122e-04  -5.6614467043494257e-04  -5.0540944094320064e-04  -4.7431819532388960e-04  -4.7483298946493925e-04  -5.4821292263781865e-04  -7.6508421833121158e-04  -4.2611382116188989e-04  -1.8240892654373217e-03  8.3696623974302499e-04  5.9196976271468429e-04  7.5379322765474564e-04  7.8466382944946962e-04  8.0265867648505139e-04  8.2747134213528525e-04  8.5138874045930641e-04  8.7137107999711431e-04  8.8148467849846334e-04  8.8476409542888367e-04  8.7847789754734516e-04  8.6255032348524403e-04  8.3751561466318997e-04  8.0749543645437859e-04  7.6807234414284537e-04  7.2057532168244467e-04  6.6506533837914919e-04  5.8140195917751676e-04  5.2127208770854467e-04  4.0265468121414744e-04  5.2237877995137474e-03  9.2207806181124480e-03  1.3140618087724258e-02  1.7009308257056186e-02  2.0840517549894928e-02  2.4655363085231412e-02  2.8451216341668209e-02  3.2236752579230560e-02  3.6009017469734020e-02  3.9769260098099328e-02  4.3520613886407510e-02  4.7258157998834156e-02  5.0988017546987799e-02  5.4705880220165544e-02  5.8414850634730571e-02  6.2113375873906890e-02  6.5803557509501898e-02  6.9485936872142759e-02  7.3160032651944512e-02  7.6827136500260587e-02  8.0488758613108682e-02  8.4143549931019204e-02  8.7795200340820265e-02  9.1441406445267090e-02  9.5084389685670914e-02  9.8724096776714718e-02  1.0236114601745128e-01  1.0599455550834037e-01  1.0962529542283568e-01  1.1325327439813744e-01  1.1687811541767645e-01  1.2049886522384967e-01  1.2411719508220148e-01  1.2773009770229646e-01  1.3133924889280191e-01  1.3494386069951783e-01  1.3854292557450487e-01  1.4213646838764488e-01  1.4572338519734510e-01  1.4930467491376681e-01  1.5287848974308541e-01  1.5644546563775549e-01  1.6000591078348894e-01  1.6355858177437627e-01  1.6710627825177607e-01  1.7064804191212049e-01  1.7418689532273116e-01  1.7772180469528287e-01  1.8125556206158916e-01  1.8478949872182052e-01  1.8832443582522160e-01  1.9186165515560394e-01  1.9540130616238463e-01  1.9894416841707740e-01  2.0249035401977461e-01  2.0603896925484730e-01  2.0958961362916020e-01  2.1314111243058986e-01  2.1669186948789826e-01  2.2024089992020296e-01  2.2378553441460164e-01  2.2732613021780440e-01  2.3085960316525908e-01  2.3438701671212056e-01  2.3791069075557306e-01  2.4143150039809261e-01  2.4495191151881712e-01  2.4847675815798978e-01  2.5200914551833042e-01  2.5555038681650133e-01  2.5910575704280125e-01  2.6267101427746342e-01  2.6625492166118425e-01  2.6984992758645449e-01  2.7345749139957765e-01  2.7707423710000995e-01  2.8069712874360897e-01  2.8432274619586456e-01  2.8794714452355297e-01  2.9156524183740434e-01  2.9517643819404216e-01  2.9877468109441746e-01  3.0235693239437683e-01  3.0592255828819281e-01  3.0947008475195847e-01  3.1299382523061586e-01  3.1649615432280509e-01  3.1997881944318840e-01  3.2344175416846721e-01  3.2689389782885531e-01  3.3034221569406996e-01  3.3379877736912661e-01  3.3727185421591349e-01  3.4077212273568647e-01  3.4430424774602580e-01  3.4786761538748617e-01  3.5146824272950461e-01  3.5508966568830558e-01  3.5874090786018681e-01  3.6241508607002382e-01  3.6611405340847658e-01  3.6983322301359234e-01  3.7358371569754190e-01  3.7735810311557594e-01  3.8115668174437267e-01  3.8497306437741408e-01  3.8880474506624241e-01  3.9265103729299983e-01  3.9652007855721882e-01  4.0041516060137111e-01  4.0434950140639819e-01  4.0832769537865815e-01  4.1234473108649033e-01  4.1638999887844558e-01  4.2044073959412287e-01  4.2448707907872657e-01  4.2852195528914400e-01  4.3251918262370653e-01  4.3648427197537565e-01  4.4042885928937187e-01  4.4437105801118931e-01  4.4830272145569872e-01  4.5224091199919692e-01  4.5613916894677775e-01  4.6010561721863114e-01  4.6407749920071945e-01  4.6903646541543098e-01  4.7528836919725093e-01  4.8148213875368506e-01  4.8867999850336230e-01  5.0095998711363754e-01  4.9399530565788302e-01  4.9362075457183074e-01  4.9379121857513519e-01  4.9439094617429680e-01  4.9518138562245295e-01  4.9599709068585607e-01  4.9687513997171950e-01  4.9778958596290951e-01  4.9976368239890123e-01  4.9964640277380257e-01  4.9959913585760446e-01  4.9955435624735395e-01  4.9952482258739372e-01  4.9949476104710100e-01  4.9947343967204871e-01  4.9945697056820598e-01  4.9944254894153756e-01  4.9943342945541097e-01  4.9942811199651882e-01  4.9942603199211633e-01  4.9942772838836108e-01  4.9943225770922089e-01  4.9943998679911206e-01  4.9945022182362964e-01  4.9946267530890687e-01  4.9947760324942642e-01  4.9949470287262554e-01  4.9951274111195715e-01  4.9953294469375309e-01  4.9955366593000577e-01  4.9957632787546308e-01  4.9959906921318592e-01  4.9962333209705767e-01  4.9964717555177229e-01  4.9967236691403666e-01  4.9969672892907846e-01  4.9972189456582466e-01  4.9974663609227665e-01  4.9977231549070661e-01  4.9979693010530307e-01  4.9982150300342665e-01  4.9984561443935893e-01  4.9986961577388789e-01  4.9989454909912012e-01  4.9991656202337670e-01  4.9993866168180823e-01  4.9996119694681790e-01  4.9998363204796203e-01  5.0000487569614072e-01  5.0002576999741533e-01  5.0004567928648413e-01  5.0006596518214763e-01  5.0008470108796488e-01  5.0010360603515869e-01  5.0012168716436989e-01  5.0013944094663521e-01  5.0015671525017547e-01  5.0017364467936809e-01  5.0018933537385191e-01  5.0020501422453234e-01  5.0022070697533449e-01  5.0023487870635419e-01  5.0024923530079768e-01  5.0026284097207385e-01  5.0027571194604947e-01  5.0028872137575853e-01  5.0030091278994060e-01  5.0031249795528554e-01  5.0032402967157197e-01  5.0033478325071357e-01  5.0034552781108765e-01  5.0035498864832473e-01  5.0036495158137506e-01  5.0037422352229577e-01  5.0038279291250565e-01  5.0039108490726236e-01  5.0039913384258627e-01  5.0040639882050686e-01  5.0041375682687927e-01  5.0042010875833920e-01  5.0042652538288368e-01  5.0043245180546136e-01  5.0043775878214070e-01  5.0044307077544370e-01  5.0044766831679699e-01  5.0045199839519428e-01  5.0045598345861064e-01  5.0045940681547973e-01  5.0046267021055602e-01  5.0046546115304513e-01  5.0046780671250746e-01  5.0046988652083235e-01  5.0047156477084287e-01  5.0047284110773604e-01  5.0047377387136116e-01  5.0047429148407618e-01  5.0047445507922916e-01  5.0047424744440250e-01  5.0047368491443278e-01  5.0047266044700078e-01  5.0047141296405318e-01  5.0046959657929668e-01  5.0046762817460877e-01  5.0046517477580088e-01  5.0046232310205196e-01  5.0045897182750287e-01  5.0045539310491838e-01  5.0045141549649219e-01  5.0044705663882139e-01  5.0044241140693591e-01  5.0043710512149564e-01  5.0043184892704295e-01  5.0042556456222076e-01  5.0041903994055581e-01  5.0041232500106891e-01  5.0040512888636068e-01  5.0039765005919645e-01  5.0038950366719837e-01  5.0038051648583304e-01  5.0037242419759587e-01  5.0036339817699893e-01  5.0035346354828092e-01  5.0034302781746931e-01  5.0033230067746348e-01  5.0032135695891722e-01  5.0030985941748396e-01  5.0029803974024456e-01  5.0028551159114965e-01  5.0027210529053479e-01  5.0025933904575004e-01  5.0024510125591792e-01  5.0023156242407840e-01  5.0021615440370104e-01  5.0020095466634262e-01  5.0018495054590273e-01  5.0016868529481140e-01  5.0015184949579283e-01  5.0013474584837248e-01  5.0011632385570870e-01  5.0009850875764716e-01  5.0007951031207920e-01  5.0006073371416226e-01  5.0004067222235604e-01  5.0002069721194997e-01  4.9999951539382614e-01  4.9997822318133278e-01  4.9995606305045381e-01  4.9993457833685540e-01  4.9991123272263721e-01  4.9988872396810519e-01  4.9986459588227988e-01  4.9984119709781577e-01  4.9981684815921568e-01  4.9979244218084579e-01  4.9976776290405589e-01  4.9974315721342716e-01  4.9971753461224389e-01  4.9969289211765783e-01  4.9966789647106802e-01  4.9964375167482028e-01  4.9961885225520364e-01  4.9959533702681491e-01  4.9957147666451590e-01  4.9954916375384023e-01  4.9952700104129238e-01  4.9950678856422331e-01  4.9948716313041552e-01  4.9946970122432516e-01  4.9945325137782604e-01  4.9943897721911684e-01  4.9942720464583390e-01  4.9941764574189224e-01  4.9941063737912267e-01  4.9940682901311922e-01  4.9940585452354047e-01  4.9940868800436727e-01  4.9941475900112331e-01  4.9942464126578678e-01  4.9943989245800086e-01  4.9945716710072646e-01  4.9947934808523686e-01  4.9951043327247502e-01  4.9954094687266398e-01  4.9958710511722665e-01  4.9963580077281100e-01  4.9975660330680821e-01  4.2249967403455591e-01  4.6540419640338626e-01  4.6502808208649615e-01  1.3502130302892096e-01  3.0448891208994566e-01  4.7211226688677682e-01  2.2045118236552844e-01  4.8785289055338932e-01  4.8836990441742612e-01  4.8331693397291398e-01  4.8327234390198648e-01  6.8640819271426970e-02  3.6028245029247069e-01  3.5571271338730831e-01  8.4945658945349875e-02  2.6139983425559732e-01  1.8114867500997123e-01  1.7342430719719942e-01  2.6183754003117754e-01  4.8700956947930552e-01  4.9086898833268328e-01  4.9060607557952557e-01  4.1192237663124531e-01  4.1737735323229602e-01  4.8954772756852838e-01  1.1260754932684656e-01  3.1660711247967321e-01  3.0919243054930878e-01  1.3038046859356459e-01  4.9544528651362846e-01  4.9524281015462529e-01  2.1811999225200088e-01  2.1481512813708567e-01  4.7157008123186808e-02  4.9466533447959554e-01  4.9447309880633555e-01  4.9212698792058818e-01  4.9184981841558778e-01  4.0061375365178342e-02  4.1782258976045455e-02  4.9340976815366372e-01  3.8262224655465044e-01  1.8661163507527220e-01  2.5496662758780209e-01  9.8916520122727225e-02  3.3948107079677925e-01  1.4595480302978281e-01  4.5003633384657987e-01  2.8198147164355342e-01  3.7540927281149233e-01  8.1686283832039644e-02  3.8085576487886508e-01  4.5330938048738251e-01  3.7209598606675769e-02  4.9454775993870642e-01  4.6758687831656753e-01  4.7467885234289214e-01  4.9333329973743423e-01  3.3782180738488876e-01  1.5851334858089400e-01  3.3634469176162318e-01  2.8254272330063612e-01  1.0117243650017156e-01  2.4258200959385368e-01  4.9412970528461203e-01  2.8940953401008346e-01  2.4429665062356806e-01  1.9312414076934195e-01  4.6789517862178509e-01  1.8841122854758072e-01  4.9565924985358351e-01  4.9693670422674907e-01  4.9682913630614239e-01  4.9556327671399070e-01  1.5319839889317582e-01  3.9142518769743756e-01  1.5320992263199570e-01  2.3579749455353760e-01  2.0636574946261918e-01  6.8954644725100087e-02  2.9075736385228967e-01  2.3496439450927772e-01  4.7941573464650833e-01  4.8009570429851389e-01  4.3897362615198976e-01  2.0183310996075809e-01  1.1587393552108424e-01  4.3864748508631624e-01  4.9459500610223545e-01  4.9747943110469406e-01  4.9739919969950802e-01  3.9004933708818701e-01  3.2907712014154300e-01  4.6949267682331425e-01  4.2879285270803003e-01  4.3061631131830230e-01  7.2252497068315366e-02  4.9604442826105521e-01  2.7946771636156381e-01  4.7967298984958895e-01  1.6019151888618438e-01  3.3490180653571400e-01  3.2488286749473329e-02  1.1739677462839943e-01  4.7844509170983246e-01  1.2372440987456197e-01  6.1069430358942578e-02  3.0563767817288939e-01  3.9860983536221001e-01  9.2062880766172403e-02  4.9574293185582757e-01  4.0200238472451205e-01  4.1616250520959475e-01  4.9741585911814640e-01  4.9747738582355844e-01  1.6736496371387274e-01  4.9567024556056472e-01  6.0523797847570268e-02  1.3771820725491124e-01  3.1154256482249926e-01  3.1631671266809169e-01  2.3569851846210760e-02  4.1607940044929148e-01  2.6537956151564629e-01  2.4891617339547839e-02  2.5326844577711588e-02  1.0220846799458595e-01  2.2252785862535801e-01  3.5790323617849312e-01  2.2497969959616110e-01  3.6132797907204517e-01  4.9624458995399140e-01  4.9678673326357758e-01  4.7636086920627430e-01  4.7605519901368137e-01  2.6277829019384558e-01  4.9739924868877794e-01  4.9732429369636943e-01  4.9613420100739214e-01  4.8880447287141815e-01  2.3275512776214823e-02  6.2899567460679276e-02  4.5262146066434977e-01  4.5484859706840636e-01  3.2558400278988048e-01  1.7281739961811707e-01  4.8545986763250870e-01  1.0721059017316760e-01  4.8754649057302069e-01  4.8694220492351659e-01  2.6881681669595864e-01  4.9817264490573956e-02  1.7576095376301631e-01  4.8429892007403569e-01  5.5710844349334064e-02  3.6171975471803458e-01  2.4383702891447950e-01  1.9618556450436672e-01  4.9662760106798953e-01  4.0111438020015816e-01  3.0946075955236579e-01  4.8825509746519807e-01  4.9641644739805552e-01  4.3577103921141397e-01  4.9756318855635878e-01  4.9751098679151562e-01  1.3222367470598220e-01  4.5884457438577858e-01  1.1826941787485738e-01  3.6531213433510629e-01  2.6574250538315980e-01  4.8698694606764037e-01  2.9784819936965712e-01  4.9686262417550975e-01  1.9252547424461842e-02  3.5927129466083108e-01  1.7395831420691849e-01  2.9896623710398795e-01  1.9071509818758955e-01  3.9219780679029836e-01  4.8965003484341890e-01  4.8987535820880512e-01  3.5877825676135200e-01  2.0441638496729003e-01  5.0878765735934715e-02  1.6540614942792212e-01  4.7575628710477930e-01  2.3773057501259692e-01  2.0758248203246610e-01  8.6399880293285047e-02  3.4326241449287853e-01  2.0422224130964747e-01  9.7050016415472548e-02  2.1920081152075382e-01  3.2206230571736139e-01  4.7560283242546092e-01  2.9254875308747585e-01  2.7819922816695070e-01  4.8959043048108147e-01  1.5629918027942569e-01  2.3299687034041397e-01  3.3448048440921418e-01  1.3478374798565906e-01  1.7347365934991235e-01  1.1664510140785239e-01  4.5689747095229105e-01  1.4033511280973854e-01  4.3364170611810487e-01  4.9683898703676987e-01  4.2916835418471411e-02  8.5730984503072039e-02  8.3806049599314467e-02  3.4573183899894988e-01  7.3188779495323611e-02  2.8990371336571463e-01  1.8962370884124119e-01  3.8252561375661576e-01  2.5279628219041567e-01  3.7748874198924415e-01  3.9813602054044395e-01  3.9045017577855973e-01  4.4272119827443712e-01  3.8313202766241877e-01  7.7447334544981303e-02  9.5531546033847378e-02  2.5975756060045130e-01  4.9814491655695958e-01  4.9809843850674718e-01  4.9758331760851221e-01  3.7298811385897651e-01  4.8525319817173812e-01  2.2092334665830235e-01  2.6633834826909258e-01  4.5274009987785135e-01  3.7435930116644833e-01  7.8863187342926189e-02  3.2587428149262732e-01  1.3446019546815563e-01  4.4150680217816002e-01  4.4293615680598669e-01  1.7451734286552911e-01  4.9748511434399589e-01  1.4586421540241959e-01  1.6837040614954880e-02  1.5268477245187756e-01  4.3126063732385828e-01  4.9770385439040765e-01  2.2284765341563689e-01  5.6870453840784561e-02  3.3069689805661850e-01  1.9080261561034866e-02  2.4973888820277351e-01  4.8994336910397501e-01  1.4974639118149358e-01  3.4860357573029088e-01  4.9287701851077553e-01  4.9204421801853920e-01  4.9317374207434578e-01  4.9243803718808132e-01  2.9167547631721752e-01  4.8126183517783611e-01  4.3484377519980127e-01  2.4769268996833829e-01  4.9822471460404244e-01  4.9818292048989832e-01  3.4110251276374748e-01  4.9745535779539235e-01  1.8080387102087542e-01  2.7755353026853596e-01  4.8355476211959558e-01  4.8328289429267146e-01  4.1478746292510010e-01  2.3719637374028618e-01  4.9720011696723199e-01  1.7458279303508208e-02  2.5208171154069314e-01  2.8320303121979656e-01  2.9256090680751512e-01  4.1704654948030656e-01  1.1787551033012272e-01  4.8556826306456807e-01  3.2478750550194180e-01  4.5259676273509894e-02  4.9737212529823976e-01  4.7731533531410680e-01  4.9264588176044105e-01  4.6640339152941895e-01  4.1405581391616396e-02  2.0707601588847196e-01  4.6563646769975975e-01  1.9004533028513790e-01  1.0228616502218635e-01  4.9752012245015148e-01  1.8874879275997861e-01  4.8916183562204651e-01  4.7010185261462628e-01  2.0306788959823191e-01  2.3361186754151025e-01  1.4061885681837688e-01  2.3073549304597921e-01  4.9130245533470912e-01  3.4924235474047532e-01  1.0285994040322068e-01  4.9353926083167943e-01  2.9995964594999797e-01  2.3769338448952668e-01  3.7975428015902085e-01  6.5403277742371771e-02  1.5470785741516577e-01  4.0427140548565471e-01  8.5941900924420070e-02  4.9269183435641140e-01  4.9278863087565433e-01  1.5859471696548552e-01  4.9831545380335440e-01  4.9828318755664508e-01  7.3191854197155848e-02  1.4808557523403129e-01  4.1364122883390519e-01  1.2090613963270398e-0