<?xml version="1.0"?>
<VTKFile type="UnstructuredGrid"  version="0.1"  >
<UnstructuredGrid>
<Piece  NumberOfPoints="12263" NumberOfCells="24015">
<Points>
<DataArray  type="Float64"  NumberOfComponents="3"  format="ascii">0 0 0  0.7 0 0  0.7 0.25 0  0 0.25 0  0.004999999999990235 0 0  0.009999999999980452 0 0  0.01499999999997117 0 0  0.01999999999996156 0 0  0.024999999999951 0 0  0.02999999999993964 0 0  0.03499999999992773 0 0  0.03999999999991589 0 0  0.04499999999990548 0 0  0.04999999999989713 0 0  0.05499999999988982 0 0  0.05999999999988251 0 0  0.06499999999987401 0 0  0.06999999999986654 0 0  0.07499999999985923 0 0  0.07999999999985022 0 0  0.08499999999984044 0 0  0.08999999999982942 0 0  0.09499999999981613 0 0  0.0999999999998014 0 0  0.1049999999997872 0 0  0.1099999999997749 0 0  0.1149999999997626 0 0  0.1199999999997479 0 0  0.1249999999997331 0 0  0.1299999999997225 0 0  0.1349999999997128 0 0  0.1399999999996997 0 0  0.144999999999685 0 0  0.1499999999996702 0 0  0.1549999999996555 0 0  0.1599999999996407 0 0  0.164999999999626 0 0  0.1699999999996112 0 0  0.1749999999995965 0 0  0.1799999999995818 0 0  0.184999999999567 0 0  0.1899999999995522 0 0  0.1949999999995375 0 0  0.1999999999995228 0 0  0.204999999999508 0 0  0.2099999999994933 0 0  0.2149999999994802 0 0  0.2199999999994705 0 0  0.22499999999946 0 0  0.2299999999994452 0 0  0.2349999999994304 0 0  0.2399999999994157 0 0  0.2449999999994009 0 0  0.2499999999993862 0 0  0.2549999999993715 0 0  0.2599999999993567 0 0  0.2649999999993419 0 0  0.2699999999993272 0 0  0.2749999999993125 0 0  0.2799999999992978 0 0  0.284999999999283 0 0  0.2899999999992683 0 0  0.2949999999992535 0 0  0.2999999999992388 0 0  0.3049999999992241 0 0  0.3099999999992092 0 0  0.3149999999991945 0 0  0.3199999999991798 0 0  0.324999999999165 0 0  0.3299999999991503 0 0  0.3349999999991355 0 0  0.3399999999991208 0 0  0.344999999999107 0 0  0.3499999999991022 0 0  0.3549999999991172 0 0  0.3599999999991322 0 0  0.3649999999991391 0 0  0.3699999999991513 0 0  0.3749999999991663 0 0  0.3799999999991814 0 0  0.3849999999991964 0 0  0.389999999999208 0 0  0.3949999999992155 0 0  0.3999999999992306 0 0  0.4049999999992456 0 0  0.4099999999992606 0 0  0.4149999999992756 0 0  0.4199999999992819 0 0  0.4249999999992947 0 0  0.4299999999993097 0 0  0.4349999999993247 0 0  0.4399999999993398 0 0  0.4449999999993547 0 0  0.4499999999993698 0 0  0.4549999999993826 0 0  0.459999999999389 0 0  0.4649999999994039 0 0  0.4699999999994189 0 0  0.4749999999994339 0 0  0.479999999999449 0 0  0.4849999999994565 0 0  0.4899999999994681 0 0  0.4949999999994831 0 0  0.4999999999994935 0 0  0.5049999999994985 0 0  0.5099999999995036 0 0  0.5149999999995087 0 0  0.5199999999995156 0 0  0.5249999999995404 0 0  0.5299999999995654 0 0  0.5349999999995723 0 0  0.5399999999995774 0 0  0.5449999999995824 0 0  0.5499999999995999 0 0  0.5549999999996248 0 0  0.559999999999641 0 0  0.564999999999646 0 0  0.5699999999996511 0 0  0.5749999999996592 0 0  0.5799999999996842 0 0  0.584999999999709 0 0  0.5899999999997148 0 0  0.5949999999997199 0 0  0.5999999999997249 0 0  0.6049999999997436 0 0  0.6099999999997685 0 0  0.6149999999997834 0 0  0.6199999999997885 0 0  0.6249999999997936 0 0  0.6299999999998029 0 0  0.6349999999998279 0 0  0.6399999999998521 0 0  0.6449999999998572 0 0  0.6499999999998622 0 0  0.6549999999998674 0 0  0.6599999999998872 0 0  0.6649999999999123 0 0  0.669999999999926 0 0  0.6749999999999312 0 0  0.6799999999999361 0 0  0.684999999999947 0 0  0.6899999999999717 0 0  0.6949999999999948 0 0  0.7 0.004999999999990592 0  0.7 0.009999999999980465 0  0.7 0.01499999999996959 0  0.7 0.0199999999999613 0  0.7 0.02499999999995366 0  0.7 0.02999999999994579 0  0.7 0.0349999999999332 0  0.7 0.03999999999991863 0  0.7 0.04499999999990405 0  0.7 0.04999999999988947 0  0.7 0.05499999999987491 0  0.7 0.05999999999986033 0  0.7 0.06499999999984575 0  0.7 0.06999999999983118 0  0.7 0.0749999999998166 0  0.7 0.07999999999980204 0  0.7 0.08499999999978745 0  0.7 0.08999999999977287 0  0.7 0.09499999999975831 0  0.7 0.09999999999974372 0  0.7 0.1049999999997292 0  0.7 0.1099999999997146 0  0.7 0.1149999999997 0  0.7 0.1199999999996854 0  0.7 0.1249999999996736 0  0.7 0.129999999999684 0  0.7 0.1349999999996972 0  0.7 0.1399999999997104 0  0.7 0.1449999999997235 0  0.7 0.1499999999997367 0  0.7 0.1549999999997499 0  0.7 0.159999999999763 0  0.7 0.1649999999997762 0  0.7 0.1699999999997893 0  0.7 0.1749999999998025 0  0.7 0.1799999999998157 0  0.7 0.1849999999998289 0  0.7 0.189999999999842 0  0.7 0.1949999999998552 0  0.7 0.1999999999998683 0  0.7 0.2049999999998815 0  0.7 0.2099999999998947 0  0.7 0.2149999999999078 0  0.7 0.219999999999921 0  0.7 0.2249999999999342 0  0.7 0.2299999999999474 0  0.7 0.2349999999999605 0  0.7 0.2399999999999737 0  0.7 0.2449999999999869 0  0.6949999999999955 0.25 0  0.6900000000000089 0.25 0  0.6850000000000404 0.25 0  0.6800000000000613 0.25 0  0.6750000000000642 0.25 0  0.6700000000000598 0.25 0  0.6650000000000639 0.25 0  0.6600000000000861 0.25 0  0.6550000000001163 0.25 0  0.6500000000001285 0.25 0  0.645000000000124 0.25 0  0.6400000000001195 0.25 0  0.6350000000001342 0.25 0  0.6300000000001669 0.25 0  0.6250000000001865 0.25 0  0.6200000000001883 0.25 0  0.6150000000001837 0.25 0  0.6100000000001892 0.25 0  0.6050000000002126 0.25 0  0.6000000000002416 0.25 0  0.5950000000002525 0.25 0  0.590000000000248 0.25 0  0.5850000000002442 0.25 0  0.5800000000002595 0.25 0  0.5750000000002934 0.25 0  0.5700000000003118 0.25 0  0.5650000000003124 0.25 0  0.5600000000003078 0.25 0  0.5550000000003145 0.25 0  0.5500000000003391 0.25 0  0.5450000000003669 0.25 0  0.5400000000003766 0.25 0  0.5350000000003721 0.25 0  0.5300000000003695 0.25 0  0.5250000000003848 0.25 0  0.52000000000042 0.25 0  0.5150000000004371 0.25 0  0.5100000000004363 0.25 0  0.5050000000004319 0.25 0  0.5000000000004399 0.25 0  0.4950000000004604 0.25 0  0.490000000000477 0.25 0  0.485000000000479 0.25 0  0.480000000000477 0.25 0  0.4750000000004855 0.25 0  0.4700000000005108 0.25 0  0.465000000000536 0.25 0  0.460000000000542 0.25 0  0.4550000000005475 0.25 0  0.4500000000005606 0.25 0  0.445000000000576 0.25 0  0.4400000000005913 0.25 0  0.4350000000006066 0.25 0  0.430000000000622 0.25 0  0.4250000000006373 0.25 0  0.4200000000006526 0.25 0  0.415000000000668 0.25 0  0.4100000000006833 0.25 0  0.4050000000006987 0.25 0  0.400000000000714 0.25 0  0.3950000000007293 0.25 0  0.3900000000007446 0.25 0  0.38500000000076 0.25 0  0.3800000000007753 0.25 0  0.3750000000007907 0.25 0  0.370000000000806 0.25 0  0.3650000000008213 0.25 0  0.3600000000008367 0.25 0  0.355000000000851 0.25 0  0.3500000000008565 0.25 0  0.345000000000842 0.25 0  0.3400000000008276 0.25 0  0.3350000000008213 0.25 0  0.3300000000008096 0.25 0  0.3250000000007953 0.25 0  0.3200000000007808 0.25 0  0.3150000000007664 0.25 0  0.3100000000007553 0.25 0  0.3050000000007484 0.25 0  0.300000000000734 0.25 0  0.2950000000007196 0.25 0  0.2900000000007051 0.25 0  0.2850000000006907 0.25 0  0.280000000000685 0.25 0  0.2750000000006728 0.25 0  0.2700000000006584 0.25 0  0.2650000000006439 0.25 0  0.2600000000006295 0.25 0  0.2550000000006151 0.25 0  0.2500000000006007 0.25 0  0.2450000000005884 0.25 0  0.2400000000005827 0.25 0  0.2350000000005683 0.25 0  0.2300000000005538 0.25 0  0.2250000000005395 0.25 0  0.2200000000005251 0.25 0  0.2150000000005181 0.25 0  0.2100000000005071 0.25 0  0.2050000000004926 0.25 0  0.2000000000004829 0.25 0  0.1950000000004785 0.25 0  0.1900000000004739 0.25 0  0.1850000000004695 0.25 0  0.1800000000004631 0.25 0  0.1750000000004388 0.25 0  0.1700000000004145 0.25 0  0.1650000000004082 0.25 0  0.1600000000004037 0.25 0  0.1550000000003993 0.25 0  0.1500000000003824 0.25 0  0.1450000000003581 0.25 0  0.1400000000003424 0.25 0  0.135000000000338 0.25 0  0.1300000000003335 0.25 0  0.1250000000003259 0.25 0  0.1200000000003015 0.25 0  0.1150000000002773 0.25 0  0.1100000000002722 0.25 0  0.1050000000002677 0.25 0  0.1000000000002632 0.25 0  0.09500000000024511 0.25 0  0.0900000000002209 0.25 0  0.08500000000020647 0.25 0  0.08000000000020191 0.25 0  0.07500000000019746 0.25 0  0.07000000000018869 0.25 0  0.06500000000016448 0.25 0  0.06000000000014072 0.25 0  0.05500000000013616 0.25 0  0.05000000000013183 0.25 0  0.04500000000012738 0.25 0  0.04000000000010784 0.25 0  0.03500000000008352 0.25 0  0.03000000000007041 0.25 0  0.02500000000006586 0.25 0  0.02000000000006141 0.25 0  0.01500000000005131 0.25 0  0.01000000000002688 0.25 0  0.005000000000004445 0.25 0  0 0.2486033519553014 0  0 0.2472067039106029 0  0 0.2458100558659043 0  0 0.2444134078212058 0  0 0.2430167597765072 0  0 0.2416201117318087 0  0 0.2402234636871101 0  0 0.2388268156424116 0  0 0.237430167597713 0  0 0.2360335195530145 0  0 0.2346368715083159 0  0 0.2332402234636174 0  0 0.2318435754189188 0  0 0.2304469273742203 0  0 0.2290502793295217 0  0 0.2276536312848232 0  0 0.2262569832401246 0  0 0.224860335195426 0  0 0.2234636871507275 0  0 0.2220670391060289 0  0 0.2206703910613305 0  0 0.2192737430166358 0  0 0.217877094971946 0  0 0.2164804469272599 0  0 0.2150837988825769 0  0 0.2136871508378938 0  0 0.2122905027932108 0  0 0.2108938547485278 0  0 0.2094972067038447 0  0 0.2081005586591617 0  0 0.2067039106144786 0  0 0.2053072625697956 0  0 0.2039106145251125 0  0 0.2025139664804295 0  0 0.2011173184357464 0  0 0.1997206703910634 0  0 0.1983240223463804 0  0 0.1969273743016973 0  0 0.1955307262570143 0  0 0.1941340782123312 0  0 0.1927374301676482 0  0 0.1913407821229651 0  0 0.1899441340782821 0  0 0.188547486033599 0  0 0.187150837988916 0  0 0.1857541899442329 0  0 0.1843575418995499 0  0 0.1829608938548668 0  0 0.1815642458101838 0  0 0.1801675977655007 0  0 0.1787709497208177 0  0 0.1773743016761346 0  0 0.1759776536314516 0  0 0.1745810055867685 0  0 0.1731843575420855 0  0 0.1717877094974025 0  0 0.1703910614527194 0  0 
[...]
<PointData  Vectors="velocity"> 
<DataArray  type="Float64"  Name="velocity"  NumberOfComponents="3" format="ascii">0.0000000000000000e+00 0.0000000000000000e+00 0.0000000000000000e+00  0.0000000000000000e+00 0.0000000000000000e+00 0.0000000000000000e+00  0.0000000000000000e+00 0.0000000000000000e+00 0.0000000000000000e+00  0.0000000000000000e+00 0.0000000000000000e+00 0.0000000000000000e+00  0.0000000000000000e+00 0.0000000000000000e+00 0.0000000000000000e+00  0.0000000000000000e+00 0.0000000000000000e+00 0.0000000000000000e+00  0.0000000000000000e+00 0.0000000000000000e+00 0.0000000000000000e+00  0.0000000000000000e+00 0.0000000000000000e+00 0.0000000000000000e+00  0.0000000000000000e+00 0.0000000000000000e+00 0.0000000000000000e+00  0.0000000000000000e+00 0.0000000000000000e+00 0.0000000000000000e+00  0.0000000000000000e+00 0.0000000000000000e+00 0.0000000000000000e+00  0.0000000000000000e+00 0.0000000000000000e+00 0.0000000000000000e+00  0.0000000000000000e+00 0.0000000000000000e+00 0.0000000000000000e+00  0.0000000000000000e+00 0.0000000000000000e+00 0.0000000000000000e+00  0.0000000000000000e+00 0.0000000000000000e+00 0.0000000000000000e+00  0.0000000000000000e+00 0.0000000000000000e+00 0.0000000000000000e+00  0.0000000000000000e+00 0.0000000000000000e+00 0.0000000000000000e+00  0.0000000000000000e+00 0.0000000000000000e+00 0.0000000000000000e+00  0.0000000000000000e+00 0.0000000000000000e+00 0.0000000000000000e+00  0.0000000000000000e+00 0.0000000000000000e+00 0.0000000000000000e+00  0.0000000000000000e+00 0.0000000000000000e+00 0.0000000000000000e+00  0.0000000000000000e+00 0.0000000000000000e+00 0.0000000000000000e+00  0.0000000000000000e+00 0.0000000000000000e+00 0.0000000000000000e+00  0.0000000000000000e+00 0.0000000000000000e+00 0.0000000000000000e+00  0.0000000000000000e+00 0.0000000000000000e+00 0.0000000000000000e+00  0.0000000000000000e+00 0.0000000000000000e+00 0.0000000000000000e+00  0.0000000000000000e+00 0.0000000000000000e+00 0.0000000000000000e+00  0.0000000000000000e+00 0.0000000000000000e+00 0.0000000000000000e+00  0.0000000000000000e+00 0.0000000000000000e+00 0.0000000000000000e+00  0.0000000000000000e+00 0.0000000000000000e+00 0.0000000000000000e+00  0.0000000000000000e+00 0.0000000000000000e+00 0.0000000000000000e+00  0.0000000000000000e+00 0.0000000000000000e+00 0.0000000000000000e+00  0.0000000000000000e+00 0.0000000000000000e+00 0.0000000000000000e+00  0.0000000000000000e+00 0.0000000000000000e+00 0.0000000000000000e+00  0.0000000000000000e+00 0.0000000000000000e+00 0.0000000000000000e+00  0.0000000000000000e+00 0.0000000000000000e+00 0.0000000000000000e+00  0.0000000000000000e+00 0.0000000000000000e+00 0.0000000000000000e+00  0.0000000000000000e+00 0.0000000000000000e+00 0.0000000000000000e+00  0.0000000000000000e+00 0.0000000000000000e+00 0.0000000000000000e+00  0.0000000000000000e+00 0.0000000000000000e+00 0.0000000000000000e+00  0.0000000000000000e+00 0.0000000000000000e+00 0.0000000000000000e+00  0.0000000000000000e+00 0.0000000000000000e+00 0.0000000000000000e+00  0.0000000000000000e+00 0.0000000000000000e+00 0.0000000000000000e+00  0.0000000000000000e+00 0.0000000000000000e+00 0.0000000000000000e+00  0.0000000000000000e+00 0.0000000000000000e+00 0.0000000000000000e+00  0.0000000000000000e+00 0.0000000000000000e+00 0.0000000000000000e+00  0.0000000000000000e+00 0.0000000000000000e+00 0.0000000000000000e+00  0.0000000000000000e+00 0.0000000000000000e+00 0.0000000000000000e+00  0.0000000000000000e+00 0.0000000000000000e+00 0.0000000000000000e+00  0.0000000000000000e+00 0.0000000000000000e+00 0.0000000000000000e+00  0.0000000000000000e+00 0.0000000000000000e+00 0.0000000000000000e+00  0.0000000000000000e+00 0.0000000000000000e+00 0.0000000000000000e+00  0.0000000000000000e+00 0.0000000000000000e+00 0.0000000000000000e+00  0.0000000000000000e+00 0.0000000000000000e+00 0.0000000000000000e+00  0.0000000000000000e+00 0.0000000000000000e+00 0.0000000000000000e+00  0.0000000000000000e+00 0.0000000000000000e+00 0.0000000000000000e+00  0.0000000000000000e+00 0.0000000000000000e+00 0.0000000000000000e+00  0.0000000000000000e+00 0.0000000000000000e+00 0.0000000000000000e+00  0.0000000000000000e+00 0.0000000000000000e+00 0.0000000000000000e+00  0.0000000000000000e+00 0.0000000000000000e+00 0.0000000000000000e+00  0.0000000000000000e+00 0.0000000000000000e+00 0.0000000000000000e+00  0.0000000000000000e+00 0.0000000000000000e+00 0.0000000000000000e+00  0.0000000000000000e+00 0.0000000000000000e+00 0.0000000000000000e+00  0.0000000000000000e+00 0.0000000000000000e+00 0.0000000000000000e+00  0.0000000000000000e+00 0.0000000000000000e+00 0.0000000000000000e+00  0.0000000000000000e+00 0.0000000000000000e+00 0.0000000000000000e+00  0.0000000000000000e+00 0.0000000000000000e+00 0.0000000000000000e+00  0.0000000000000000e+00 0.0000000000000000e+00 0.0000000000000000e+00  0.0000000000000000e+00 0.0000000000000000e+00 0.0000000000000000e+00  0.0000000000000000e+00 0.0000000000000000e+00 0.0000000000000000e+00  0.0000000000000000e+00 0.0000000000000000e+00 0.0000000000000000e+00  0.0000000000000000e+00 0.0000000000000000e+00 0.0000000000000000e+00  0.0000000000000000e+00 0.0000000000000000e+00 0.0000000000000000e+00  0.0000000000000000e+00 0.0000000000000000e+00 0.0000000000000000e+00  0.0000000000000000e+00 0.0000000000000000e+00 0.0000000000000000e+00  0.0000000000000000e+00 0.0000000000000000e+00 0.0000000000000000e+00  0.0000000000000000e+00 0.0000000000000000e+00 0.0000000000000000e+00  0.0000000000000000e+00 0.0000000000000000e+00 0.0000000000000000e+00  0.0000000000000000e+00 0.0000000000000000e+00 0.0000000000000000e+00  0.0000000000000000e+00 0.0000000000000000e+00 0.0000000000000000e+00  0.0000000000000000e+00 0.0000000000000000e+00 0.0000000000000000e+00  0.0000000000000000e+00 0.0000000000000000e+00 0.0000000000000000e+00  0.0000000000000000e+00 0.0000000000000000e+00 0.0000000000000000e+00  0.0000000000000000e+00 0.0000000000000000e+00 0.0000000000000000e+00  0.0000000000000000e+00 0.0000000000000000e+00 0.0000000000000000e+00  0.0000000000000000e+00 0.0000000000000000e+00 0.0000000000000000e+00  0.0000000000000000e+00 0.0000000000000000e+00 0.0000000000000000e+00  0.0000000000000000e+00 0.0000000000000000e+00 0.0000000000000000e+00  0.0000000000000000e+00 0.0000000000000000e+00 0.0000000000000000e+00  0.0000000000000000e+00 0.0000000000000000e+00 0.0000000000000000e+00  0.0000000000000000e+00 0.0000000000000000e+00 0.0000000000000000e+00  0.0000000000000000e+00 0.0000000000000000e+00 0.0000000000000000e+00  0.0000000000000000e+00 0.0000000000000000e+00 0.0000000000000000e+00  0.0000000000000000e+00 0.0000000000000000e+00 0.0000000000000000e+00  0.0000000000000000e+00 0.0000000000000000e+00 0.0000000000000000e+00  0.0000000000000000e+00 0.0000000000000000e+00 0.0000000000000000e+00  0.0000000000000000e+00 0.0000000000000000e+00 0.0000000000000000e+00  0.0000000000000000e+00 0.0000000000000000e+00 0.0000000000000000e+00  0.0000000000000000e+00 0.0000000000000000e+00 0.0000000000000000e+00  0.0000000000000000e+00 0.0000000000000000e+00 0.0000000000000000e+00  0.0000000000000000e+00 0.0000000000000000e+00 0.0000000000000000e+00  0.0000000000000000e+00 0.0000000000000000e+00 0.0000000000000000e+00  0.0000000000000000e+00 0.0000000000000000e+00 0.0000000000000000e+00  0.0000000000000000e+00 0.0000000000000000e+00 0.0000000000000000e+00  0.0000000000000000e+00 0.0000000000000000e+00 0.0000000000000000e+00  0.0000000000000000e+00 0.0000000000000000e+00 0.0000000000000000e+00  0.0000000000000000e+00 0.0000000000000000e+00 0.0000000000000000e+00  0.0000000000000000e+00 0.0000000000000000e+00 0.0000000000000000e+00  0.0000000000000000e+00 0.0000000000000000e+00 0.0000000000000000e+00  0.0000000000000000e+00 0.0000000000000000e+00 0.0000000000000000e+00  0.0000000000000000e+00 0.0000000000000000e+00 0.0000000000000000e+00  0.0000000000000000e+00 0.0000000000000000e+00 0.0000000000000000e+00  0.0000000000000000e+00 0.0000000000000000e+00 0.0000000000000000e+00  0.0000000000000000e+00 0.0000000000000000e+00 0.0000000000000000e+00  0.0000000000000000e+00 0.0000000000000000e+00 0.0000000000000000e+00  0.0000000000000000e+00 0.0000000000000000e+00 0.0000000000000000e+00  0.0000000000000000e+00 0.0000000000000000e+00 0.0000000000000000e+00  0.0000000000000000e+00 0.0000000000000000e+00 0.0000000000000000e+00  0.0000000000000000e+00 0.0000000000000000e+00 0.0000000000000000e+00  0.0000000000000000e+00 0.0000000000000000e+00 0.0000000000000000e+00  0.0000000000000000e+00 0.0000000000000000e+00 0.0000000000000000e+00  0.0000000000000000e+00 0.0000000000000000e+00 0.0000000000000000e+00  0.0000000000000000e+00 0.0000000000000000e+00 0.0000000000000000e+00  0.0000000000000000e+00 0.0000000000000000e+00 0.0000000000000000e+00  0.0000000000000000e+00 0.0000000000000000e+00 0.0000000000000000e+00  0.0000000000000000e+00 0.0000000000000000e+00 0.0000000000000000e+00  0.0000000000000000e+00 0.0000000000000000e+00 0.0000000000000000e+00  0.0000000000000000e+00 0.0000000000000000e+00 0.0000000000000000e+00  0.0000000000000000e+00 0.0000000000000000e+00 0.0000000000000000e+00  0.0000000000000000e+00 0.0000000000000000e+00 0.0000000000000000e+00  0.0000000000000000e+00 0.0000000000000000e+00 0.0000000000000000e+00  0.0000000000000000e+00 0.0000000000000000e+00 0.0000000000000000e+00  0.0000000000000000e+00 0.0000000000000000e+00 0.0000000000000000e+00  0.0000000000000000e+00 0.0000000000000000e+00 0.0000000000000000e+00  0.0000000000000000e+00 0.0000000000000000e+00 0.0000000000000000e+00  0.0000000000000000e+00 0.0000000000000000e+00 0.0000000000000000e+00  0.0000000000000000e+00 0.0000000000000000e+00 0.0000000000000000e+00  0.0000000000000000e+00 0.0000000000000000e+00 0.0000000000000000e+00  0.0000000000000000e+00 0.0000000000000000e+00 0.0000000000000000e+00  0.0000000000000000e+00 0.0000000000000000e+00 0.0000000000000000e+00  0.0000000000000000e+00 0.0000000000000000e+00 0.0000000000000000e+00  0.0000000000000000e+00 0.0000000000000000e+00 0.0000000000000000e+00  0.0000000000000000e+00 0.0000000000000000e+00 0.0000000000000000e+00  1.6213742042906897e-03 -4.7711190326778139e-06 0.0000000000000000e+00  3.1698429285612379e-03 -1.2739212159970533e-05 0.0000000000000000e+00  4.6523759717819885e-03 -2.2203088928706339e-05 0.0000000000000000e+00  6.0714517502829480e-03 -3.3122279118069111e-05 0.0000000000000000e+00  7.4285437464448401e-03 -4.5350393725420740e-05 0.0000000000000000e+00  8.7248817898462824e-03 -5.8896842854385569e-05 0.0000000000000000e+00  9.9616105890419689e-03 -7.3738666051243948e-05 0.0000000000000000e+00  1.1139890349954924e-02 -8.9848890004823865e-05 0.0000000000000000e+00  1.2260912678015415e-02 -1.0709434959117472e-04 0.0000000000000000e+00  1.3325910654242627e-02 -1.2516904158375229e-04 0.0000000000000000e+00  1.4336049543462067e-02 -1.4347041363582243e-04 0.0000000000000000e+00  1.5292117803708436e-02 -1.6105008497901323e-04 0.0000000000000000e+00  1.6194312176676447e-02 -1.7648978463307373e-04 0.0000000000000000e+00  1.7042735465072730e-02 -1.8952405067171262e-04 0.0000000000000000e+00  1.7849695850831831e-02 -2.0062070099266025e-04 0.0000000000000000e+00  1.8675346184766309e-02 -2.2572277350862432e-04 0.0000000000000000e+00  2.0100110617358762e-02 -1.6427114527175379e-04 0.0000000000000000e+00  2.1850918383465964e-02 -8.9051101019107154e-05 0.0000000000000000e+00  2.3230060417387802e-02 -4.8229281773011440e-05 0.0000000000000000e+00  2.4320981082469263e-02 -8.9387137641443463e-06 0.0000000000000000e+00  2.5142955886475572e-02 2.6373410242333471e-05 0.0000000000000000e+00  2.5707998302354432e-02 5.6975575906148666e-05 0.0000000000000000e+00  2.6024849824501664e-02 8.3781017280668354e-05 0.0000000000000000e+00  2.6098435884439976e-02 1.0821404410076750e-04 0.0000000000000000e+00  2.5929642178369020e-02 1.3196749152205665e-04 0.0000000000000000e+00  2.5514826033027734e-02 1.5716744363589559e-04 0.0000000000000000e+00  2.4842563192923328e-02 1.8699509550693520e-04 0.0000000000000000e+00  2.3904643263777225e-02 2.2500161652868995e-04 0.0000000000000000e+00  2.2782215795329758e-02 2.2719150753855680e-04 0.0000000000000000e+00  2.2212411363393119e-02 2.4103027665286838e-04 0.0000000000000000e+00  2.1671574074922751e-02 2.3678634617557232e-04 0.0000000000000000e+00  2.1072105831769494e-02 2.2455906529209699e-04 0.0000000000000000e+00  2.0417512213174217e-02 2.1172394378881094e-04 0.0000000000000000e+00  1.9705920041918731e-02 1.9850605906302868e-04 0.0000000000000000e+00  1.8935802832569407e-02 1.8488604272202637e-04 0.0000000000000000e+00  1.8106323074161736e-02 1.7085469799527688e-04 0.0000000000000000e+00  1.7216994229374331e-02 1.5644735906036910e-04 0.0000000000000000e+00  1.6267451771029142e-02 1.4178577376886334e-04 0.0000000000000000e+00  1.5257378753598680e-02 1.2701011663818394e-04 0.0000000000000000e+00  1.4186439014427746e-02 1.1226896162890386e-04 0.0000000000000000e+00  1.3054258845369975e-02 9.7709123921384990e-05 0.0000000000000000e+00  1.1860421856077235e-02 8.3478539924426460e-05 0.0000000000000000e+00  1.0604457664359628e-02 6.9715908202863723e-05 0.0000000000000000e+00  9.2858146349389745e-03 5.6546517589950978e-05 0.0000000000000000e+00  7.9038431166843608e-03 4.4103780941406988e-05 0.0000000000000000e+00  6.4577829816243265e-03 3.2535455569858563e-05 0.0000000000000000e+00  4.9465989092298502e-03 2.1939267555419112e-05 0.0000000000000000e+00  3.3690156237086897e-03 1.2692994527836474e-05 0.0000000000000000e+00  1.7224964638576131e-03 4.7126997172823901e-06 0.0000000000000000e+00  0.0000000000000000e+00 0.0000000000000000e+00 0.0000000000000000e+00  0.0000000000000000e+00 0.0000000000000000e+00 0.0000000000000000e+00  0.0000000000000000e+00 0.0000000000000000e+00 0.0000000000000000e+00  0.0000000000000000e+00 0.0000000000000000e+00 0.0000000000000000e+00  0.0000000000000000e+00 0.0000000000000000e+00 0.0000000000000000e+00  0.0000000000000000e+00 0.0000000000000000e+00 0.0000000000000000e+00  0.0000000000000000e+00 0.0000000000000000e+00 0.0000000000000000e+00  0.0000000000000000e+00 0.0000000000000000e+00 0.0000000000000000e+00  0.0000000000000000e+00 0.0000000000000000e+00 0.0000000000000000e+00  0.0000000000000000e+00 0.0000000000000000e+00 0.0000000000000000e+00  0.0000000000000000e+00 0.0000000000000000e+00 0.0000000000000000e+00  0.0000000000000000e+00 0.0000000000000000e+00 0.0000000000000000e+00  0.0000000000000000e+00 0.0000000000000000e+00 0.0000000000000000e+00  0.0000000000000000e+00 0.0000000000000000e+00 0.0000000000000000e+00  0.0000000000000000e+00 0.0000000000000000e+00 0.0000000000000000e+00  0.0000000000000000e+00 0.0000000000000000e+00 0.0000000000000000e+00  0.0000000000000000e+00 0.0000000000000000e+00 0.0000000000000000e+00  0.0000000000000000e+00 0.0000000000000000e+00 0.0000000000000000e+00  0.0000000000000000e+00 0.0000000000000000e+00 0.0000000000000000e+00  0.0000000000000000e+00 0.0000000000000000e+00 0.0000000000000000e+00  0.0000000000000000e+00 0.0000000000000000e+00 0.0000000000000000e+00  0.0000000000000000e+00 0.0000000000000000e+00 0.0000000000000000e+00  0.0000000000000000e+00 0.0000000000000000e+00 0.0000000000000000e+00  0.0000000000000000e+00 0.0000000000000000e+00 0.0000000000000000e+00  0.0000000000000000e+00 0.0000000000000000e+00 0.0000000000000000e+00  0.0000000000000000e+00 0.0000000000000000e+00 0.0000000000000000e+00  0.0000000000000000e+00 0.0000000000000000e+00 0.0000000000000000e+00  0.0000000000000000e+00 0.0000000000000000e+00 0.0000000000000000e+00  0.0000000000000000e+00 0.0000000000000000e+00 0.0000000000000000e+00  0.0000000000000000e+00 0.0000000000000000e+00 0.0000000000000000e+00  0.0000000000000000e+00 0.0000000000000000e+00 0.0000000000000000e+00  0.0000000000000000e+00 0.0000000000000000e+00 0.0000000000000000e+00  0.0000000000000000e+00 0.0000000000000000e+00 0.0000000000000000e+00  0.0000000000000000e+00 0.0000000000000000e+00 0.0000000000000000e+00  0.0000000000000000e+00 0.0000000000000000e+00 0.0000000000000000e+00  0.0000000000000000e+00 0.0000000000000000e+00 0.0000000000000000e+00  0.0000000000000000e+00 0.0000000000000000e+00 0.0000000000000000e+00  0.0000000000000000e+00 0.0000000000000000e+00 0.0000000000000000e+00  0.0000000000000000e+00 0.0000000000000000e+00 0.0000000000000000e+00  0.0000000000000000e+00 0.0000000000000000e+00 0.0000000000000000e+00  0.0000000000000000e+00 0.0000000000000000e+00 0.0000000000000000e+00  0.0000000000000000e+00 0.0000000000000000e+00 0.0000000000000000e+00  0.0000000000000000e+00 0.0000000000000000e+00 0.0000000000000000e+00  0.0000000000000000e+00 0.0000000000000000e+00 0.0000000000000000e+00  0.0000000000000000e+00 0.0000000000000000e+00 0.0000000000000000e+00  0.0000000000000000e+00 0.0000000000000000e+00 0.0000000000000000e+00  0.0000000000000000e+00 0.0000000000000000e+00 0.0000000000000000e+00  0.0000000000000000e+00 0.0000000000000000e+00 0.0000000000000000e+00  0.0000000000000000e+00 0.0000000000000000e+00 0.0000000000000000e+00  0.0000000000000000e+00 0.0000000000000000e+00 0.0000000000000000e+00  0.0000000000000000e+00 0.0000000000000000e+00 0.0000000000000000e+00  0.0000000000000000e+00 0.0000000000000000e+00 0.0000000000000000e+00  0.0000000000000000e+00 0.0000000000000000e+00 0.0000000000000000e+00  0.0000000000000000e+00 0.0000000000000000e+00 0.0000000000000000e+00  0.0000000000000000e+00 0.0000000000000000e+00 0.0000000000000000e+00  0.0000000000000000e+00 0.0000000000000000e+00 0.0000000000000000e+00  0.0000000000000000e+00 0.0000000000000000e+00 0.0000000000000000e+00  0.0000000000000000e+00 0.0000000000000000e+00 0.0000000000000000e+00  0.0000000000000000e+00 0.0000000000000000e+00 0.0000000000000000e+00  0.0000000000000000e+00 0.0000000000000000e+00 0.0000000000000000e+00  0.0000000000000000e+00 0.0000000000000000e+00 0.0000000000000000e+00  0.0000000000000000e+00 0.0000000000000000e+00 0.0000000000000000e+00  0.0000000000000000e+00 0.0000000000000000e+00 0.0000000000000000e+00  0.0000000000000000e+00 0.0000000000000000e+00 0.0000000000000000e+00  0.0000000000000000e+00 0.0000000000000000e+00 0.0000000000000000e+00  0.0000000000000000e+00 0.0000000000000000e+00 0.0000000000000000e+00  0.0000000000000000e+00 0.0000000000000000e+00 0.0000000000000000e+00  0.0000000000000000e+00 0.0000000000000000e+00 0.0000000000000000e+00  0.0000000000000000e+00 0.0000000000000000e+00 0.0000000000000000e+00  0.0000000000000000e+00 0.0000000000000000e+00 0.0000000000000000e+00  0.0000000000000000e+00 0.0000000000000000e+00 0.0000000000000000e+00  0.0000000000000000e+00 0.0000000000000000e+00 0.0000000000000000e+00  0.0000000000000000e+00 0.0000000000000000e+00 0.0000000000000000e+00  0.0000000000000000e+00 0.0000000000000000e+00 0.0000000000000000e+00  0.0000000000000000e+00 0.0000000000000000e+00 0.0000000000000000e+00  0.0000000000000000e+00 0.0000000000000000e+00 0.0000000000000000e+00  0.0000000000000000e+00 0.0000000000000000e+00 0.0000000000000000e+00  0.0000000000000000e+00 0.0000000000000000e+00 0.0000000000000000e+00  0.0000000000000000e+00 0.0000000000000000e+00 0.0000000000000000e+00  0.0000000000000000e+00 0.0000000000000000e+00 0.0000000000000000e+00  0.0000000000000000e+00 0.0000000000000000e+00 0.0000000000000000e+00  0.0000000000000000e+00 0.0000000000000000e+00 0.0000000000000000e+00  0.0000000000000000e+00 0.0000000000000000e+00 0.0000000000000000e+00  0.0000000000000000e+00 0.0000000000000000e+00 0.0000000000000000e+00  0.0000000000000000e+00 0.0000000000000000e+00 0.0000000000000000e+00  0.0000000000000000e+00 0.0000000000000000e+00 0.0000000000000000e+00  0.0000000000000000e+00 0.0000000000000000e+00 0.0000000000000000e+00  0.0000000000000000e+00 0.0000000000000000e+00 0.0000000000000000e+00  0.0000000000000000e+00 0.0000000000000000e+00 0.0000000000000000e+00  0.0000000000000000e+00 0.0000000000000000e+00 0.0000000000000000e+00  0.0000000000000000e+00 0.0000000000000000e+00 0.0000000000000000e+00  0.0000000000000000e+00 0.0000000000000000e+00 0.000000