<?xml version="1.0"?>
<VTKFile type="UnstructuredGrid"  version="0.1"  >
<UnstructuredGrid>
<Piece  NumberOfPoints="4408" NumberOfCells="8313">
<Points>
<DataArray  type="Float64"  NumberOfComponents="3"  format="ascii">6 0.1 0  7.1 0.1 0  8 0.1 0  8 0.22 0  7.1 0.22 0  7 0.22 0  6 0.22 0  6.008527131783115 0.1 0  6.01705426356606 0.1 0  6.025581395348834 0.1 0  6.034108527131772 0.1 0  6.042635658914882 0.1 0  6.051162790697997 0.1 0  6.059689922480948 0.1 0  6.068217054263728 0.1 0  6.07674418604666 0.1 0  6.085271317829764 0.1 0  6.093798449612879 0.1 0  6.102325581395837 0.1 0  6.110852713178624 0.1 0  6.11937984496155 0.1 0  6.127906976744646 0.1 0  6.136434108527761 0.1 0  6.144961240310725 0.1 0  6.15348837209352 0.1 0  6.162015503876439 0.1 0  6.170542635659528 0.1 0  6.179069767442498 0.1 0  6.187596899225297 0.1 0  6.196124031008068 0.1 0  6.20465116279098 0.1 0  6.213178294574063 0.1 0  6.221705426357039 0.1 0  6.230232558139845 0.1 0  6.238759689922617 0.1 0  6.247286821705522 0.1 0  6.255813953488598 0.1 0  6.264341085271582 0.1 0  6.272868217054394 0.1 0  6.281395348837165 0.1 0  6.289922480620064 0.1 0  6.298449612403133 0.1 0  6.306976744186123 0.1 0  6.315503875968942 0.1 0  6.324031007751714 0.1 0  6.332558139534606 0.1 0  6.341085271317668 0.1 0  6.349612403100665 0.1 0  6.358139534883491 0.1 0  6.366666666666262 0.1 0  6.375193798449147 0.1 0  6.383720930232204 0.1 0  6.392248062015207 0.1 0  6.400775193798039 0.1 0  6.409302325580811 0.1 0  6.417829457363689 0.1 0  6.426356589146739 0.1 0  6.434883720929749 0.1 0  6.443410852712588 0.1 0  6.451937984495359 0.1 0  6.460465116278231 0.1 0  6.468992248061274 0.1 0  6.47751937984429 0.1 0  6.486046511627137 0.1 0  6.494573643409908 0.1 0  6.503100775192773 0.1 0  6.511627906975716 0.1 0  6.520155038758567 0.1 0  6.528682170541338 0.1 0  6.53720930232411 0.1 0  6.545736434106968 0.1 0  6.554263565889997 0.1 0  6.562790697673027 0.1 0  6.571317829455887 0.1 0  6.57984496123874 0.1 0  6.588372093021763 0.1 0  6.596899224804878 0.1 0  6.605426356587916 0.1 0  6.613953488370782 0.1 0  6.622480620153628 0.1 0  6.631007751936646 0.1 0  6.639534883719688 0.1 0  6.64806201550256 0.1 0  6.656589147285331 0.1 0  6.66511627906817 0.1 0  6.673643410851181 0.1 0  6.682170542634229 0.1 0  6.690697674417108 0.1 0  6.699224806199942 0.1 0  6.707751937982947 0.1 0  6.716279069766062 0.1 0  6.724806201549118 0.1 0  6.733333333332004 0.1 0  6.741860465114831 0.1 0  6.750387596897829 0.1 0  6.758914728680944 0.1 0  6.767441860464007 0.1 0  6.775968992246899 0.1 0  6.78449612402972 0.1 0  6.793023255812711 0.1 0  6.801550387595826 0.1 0  6.810077519378895 0.1 0  6.818604651161794 0.1 0  6.827131782944608 0.1 0  6.835658914727593 0.1 0  6.844186046510708 0.1 0  6.852713178293785 0.1 0  6.86124031007669 0.1 0  6.869767441859497 0.1 0  6.878294573642475 0.1 0  6.88682170542559 0.1 0  6.895348837208672 0.1 0  6.903875968991585 0.1 0  6.912403100774386 0.1 0  6.920930232557357 0.1 0  6.929457364340472 0.1 0  6.937984496123562 0.1 0  6.946511627906481 0.1 0  6.955038759689274 0.1 0  6.963565891472238 0.1 0  6.972093023255354 0.1 0  6.980620155038451 0.1 0  6.989147286821376 0.1 0  6.997674418604163 0.1 0  7.006201550387121 0.1 0  7.014728682170236 0.1 0  7.023255813953339 0.1 0  7.031782945736271 0.1 0  7.040310077519051 0.1 0  7.048837209302002 0.1 0  7.057364341085117 0.1 0  7.065891472868227 0.1 0  7.074418604651166 0.1 0  7.08294573643394 0.1 0  7.091472868216885 0.1 0  7.111392405063206 0.1 0  7.122784810126584 0.1 0  7.134177215189814 0.1 0  7.145569620252996 0.1 0  7.156962025316374 0.1 0  7.168354430379628 0.1 0  7.179746835442786 0.1 0  7.191139240506164 0.1 0  7.202531645569443 0.1 0  7.213924050632575 0.1 0  7.225316455695954 0.1 0  7.236708860759257 0.1 0  7.248101265822365 0.1 0  7.259493670885744 0.1 0  7.270886075949071 0.1 0  7.282278481012169 0.1 0  7.293670886075534 0.1 0  7.305063291138885 0.1 0  7.316455696201983 0.1 0  7.327848101265324 0.1 0  7.339240506328699 0.1 0  7.350632911391798 0.1 0  7.362025316455115 0.1 0  7.373417721518494 0.1 0  7.384810126581612 0.1 0  7.396202531644905 0.1 0  7.407594936708154 0.1 0  7.418987341771317 0.1 0  7.430379746834695 0.1 0  7.441772151897969 0.1 0  7.453164556961106 0.1 0  7.464556962024485 0.1 0  7.475949367087783 0.1 0  7.487341772150897 0.1 0  7.498734177214275 0.1 0  7.510126582277597 0.1 0  7.521518987340695 0.1 0  7.532911392404065 0.1 0  7.544303797467411 0.1 0  7.55569620253051 0.1 0  7.567088607593855 0.1 0  7.578481012657234 0.1 0  7.589873417720614 0.1 0  7.601265822783993 0.1 0  7.612658227847371 0.1 0  7.62405063291075 0.1 0  7.635443037974129 0.1 0  7.646835443037508 0.1 0  7.658227848100887 0.1 0  7.669620253164266 0.1 0  7.681012658227645 0.1 0  7.692405063291024 0.1 0  7.703797468354402 0.1 0  7.715189873417781 0.1 0  7.72658227848116 0.1 0  7.73797468354454 0.1 0  7.749367088607919 0.1 0  7.760759493671297 0.1 0  7.772151898734676 0.1 0  7.783544303798018 0.1 0  7.794936708861115 0.1 0  7.806329113924466 0.1 0  7.817721518987832 0.1 0  7.82911392405093 0.1 0  7.840506329114256 0.1 0  7.851898734177635 0.1 0  7.863291139240744 0.1 0  7.874683544304045 0.1 0  7.886075949367425 0.1 0  7.897468354430558 0.1 0  7.908860759493836 0.1 0  7.920253164557215 0.1 0  7.931645569620372 0.1 0  7.943037974683626 0.1 0  7.954430379747005 0.1 0  7.965822784810186 0.1 0  7.977215189873416 0.1 0  7.988607594936794 0.1 0  8 0.1079999999999785 0  8 0.1159999999999675 0  8 0.1239999999999376 0  8 0.1319999999999082 0  8 0.1399999999998952 0  8 0.1479999999998634 0  8 0.155999999999838 0  8 0.1639999999998355 0  8 0.1719999999998709 0  8 0.1799999999998969 0  8 0.1879999999999114 0  8 0.1959999999999306 0  8 0.2039999999999588 0  8 0.2119999999999714 0  7.988607594936794 0.22 0  7.977215189873416 0.22 0  7.965822784810186 0.22 0  7.954430379747004 0.22 0  7.943037974683626 0.22 0  7.931645569620372 0.22 0  7.920253164557214 0.22 0  7.908860759493836 0.22 0  7.897468354430557 0.22 0  7.886075949367425 0.22 0  7.874683544304045 0.22 0  7.863291139240743 0.22 0  7.851898734177635 0.22 0  7.840506329114255 0.22 0  7.829113924050929 0.22 0  7.817721518987831 0.22 0  7.806329113924465 0.22 0  7.794936708861115 0.22 0  7.783544303798017 0.22 0  7.772151898734675 0.22 0  7.7607594936713 0.22 0  7.749367088608202 0.22 0  7.737974683544885 0.22 0  7.726582278481506 0.22 0  7.715189873418388 0.22 0  7.703797468355095 0.22 0  7.692405063291845 0.22 0  7.681012658228683 0.22 0  7.669620253165305 0.22 0  7.65822784810203 0.22 0  7.646835443038894 0.22 0  7.635443037975515 0.22 0  7.624050632912216 0.22 0  7.612658227849103 0.22 0  7.601265822785725 0.22 0  7.589873417722402 0.22 0  7.578481012659305 0.22 0  7.567088607595934 0.22 0  7.555696202532588 0.22 0  7.54430379746949 0.22 0  7.532911392406144 0.22 0  7.521518987342765 0.22 0  7.510126582279386 0.22 0  7.498734177216007 0.22 0  7.487341772152629 0.22 0  7.47594936708925 0.22 0  7.46455696202587 0.22 0  7.453164556962491 0.22 0  7.441772151899112 0.22 0  7.430379746835734 0.22 0  7.418987341772355 0.22 0  7.407594936708976 0.22 0  7.396202531645597 0.22 0  7.384810126582218 0.22 0  7.373417721518839 0.22 0  7.36202531645546 0.22 0  7.350632911392081 0.22 0  7.339240506328703 0.22 0  7.327848101265324 0.22 0  7.316455696201982 0.22 0  7.305063291138884 0.22 0  7.293670886075533 0.22 0  7.282278481012168 0.22 0  7.27088607594907 0.22 0  7.259493670885743 0.22 0  7.248101265822365 0.22 0  7.236708860759256 0.22 0  7.225316455695954 0.22 0  7.213924050632575 0.22 0  7.202531645569442 0.22 0  7.191139240506164 0.22 0  7.179746835442785 0.22 0  7.168354430379628 0.22 0  7.156962025316374 0.22 0  7.145569620252995 0.22 0  7.134177215189814 0.22 0  7.122784810126584 0.22 0  7.111392405063206 0.22 0  7.097435897435684 0.22 0  7.094871794871715 0.22 0  7.092307692307371 0.22 0  7.089743589743082 0.22 0  7.087179487179113 0.22 0  7.084615384614744 0.22 0  7.082051282050655 0.22 0  7.079487179486859 0.22 0  7.076923076922809 0.22 0  7.074358974358748 0.22 0  7.071794871794951 0.22 0  7.069230769230876 0.22 0  7.06666666666684 0.22 0  7.064102564103035 0.22 0  7.061538461538942 0.22 0  7.058974358974585 0.22 0  7.056410256410616 0.22 0  7.053846153846314 0.22 0  7.051282051281984 0.22 0  7.048717948718015 0.22 0  7.046153846153686 0.22 0  7.043589743589383 0.22 0  7.041025641025414 0.22 0  7.038461538461058 0.22 0  7.035897435896964 0.22 0  7.03333333333316 0.22 0  7.030769230769124 0.22 0  7.028205128205048 0.22 0  7.025641025641252 0.22 0  7.023076923077189 0.22 0  7.02051282051314 0.22 0  7.017948717949345 0.22 0  7.015384615385256 0.22 0  7.012820512820887 0.22 0  7.010256410256917 0.22 0  7.007692307692628 0.22 0  7.005128205128285 0.22 0  7.002564102564316 0.22 0  6.991735537190083 0.22 0  6.983471074380165 0.22 0  6.975206611570248 0.22 0  6.966942148760331 0.22 0  6.958677685950414 0.22 0  6.950413223140496 0.22 0  6.942148760330578 0.22 0  6.933884297520661 0.22 0  6.925619834710743 0.22 0  6.917355371900826 0.22 0  6.909090909090909 0.22 0  6.900826446280992 0.22 0  6.892561983471074 0.22 0  6.884297520661157 0.22 0  6.87603305785124 0.22 0  6.867768595041323 0.22 0  6.859504132231405 0.22 0  6.851239669421488 0.22 0  6.842975206611571 0.22 0  6.834710743801653 0.22 0  6.826446280991735 0.22 0  6.818181818181818 0.22 0  6.809917355371901 0.22 0  6.801652892561983 0.22 0  6.793388429752066 0.22 0  6.785123966942149 0.22 0  6.776859504132231 0.22 0  6.768595041322314 0.22 0  6.760330578512397 0.22 0  6.75206611570248 0.22 0  6.743801652892562 0.22 0  6.735537190082645 0.22 0  6.727272727272728 0.22 0  6.71900826446281 0.22 0  6.710743801652892 0.22 0  6.702479338842975 0.22 0  6.694214876033058 0.22 0  6.68595041322314 0.22 0  6.677685950413223 0.22 0  6.669421487603306 0.22 0  6.661157024793388 0.22 0  6.652892561983471 0.22 0  6.644628099173554 0.22 0  6.636363636363637 0.22 0  6.628099173553719 0.22 0  6.619834710743802 0.22 0  6.611570247933884 0.22 0  6.603305785123966 0.
[...]
<PointData  Scalars="pressure"> 
<DataArray  type="Float64"  Name="pressure"  format="ascii">2.1800000004412308e+04  3.3790075961572089e+04  4.3600077733400940e+04  4.3600077733401049e+04  3.3790027988448128e+04  3.2699628222360076e+04  2.1800000005084417e+04  2.1892946096730360e+04  2.1985892205218588e+04  2.2078838296351452e+04  2.2171784419670974e+04  2.2264730506567972e+04  2.2357676614425436e+04  2.2450622716502217e+04  2.2543568831456821e+04  2.2636514906373395e+04  2.2729461038517198e+04  2.2822407130705229e+04  2.2915353249425229e+04  2.3008299327674398e+04  2.3101245434308708e+04  2.3194191554052475e+04  2.3287137627881351e+04  2.3380083765974567e+04  2.3473029859119251e+04  2.3565975968423078e+04  2.3658922046535645e+04  2.3751868168486137e+04  2.3844814269132428e+04  2.3937760366890579e+04  2.4030706469118864e+04  2.4123652569403286e+04  2.4216598662001921e+04  2.4309544797904935e+04  2.4402490888026132e+04  2.4495436983157120e+04  2.4588383078469880e+04  2.4681329187186093e+04  2.4774275310360084e+04  2.4867221388515423e+04  2.4960167491679902e+04  2.5053113616230730e+04  2.5146059711202797e+04  2.5239005823339063e+04  2.5331951898308256e+04  2.5424898020499772e+04  2.5517844137619100e+04  2.5610790217615864e+04  2.5703736336572540e+04  2.5796682420244633e+04  2.5889628524078802e+04  2.5982574646844798e+04  2.6075520726854793e+04  2.6168466829293840e+04  2.6261412957043773e+04  2.6354359046450434e+04  2.6447305152977431e+04  2.6540251256744657e+04  2.6633197368850360e+04  2.6726143449885640e+04  2.6819089548389653e+04  2.6912035673749135e+04  2.7004981786938188e+04  2.7097927861544678e+04  2.7190873978718726e+04  2.7283820079156092e+04  2.7376766205167518e+04  2.7469712301454911e+04  2.7562658403362049e+04  2.7655604507819702e+04  2.7748550607798745e+04  2.7841496726170019e+04  2.7934442820279401e+04  2.8027388940781937e+04  2.8120335039043552e+04  2.8213281148990096e+04  2.8306227267315102e+04  2.8399173389729505e+04  2.8492119481823327e+04  2.8585065622019243e+04  2.8678011711415042e+04  2.8770957833439559e+04  2.8863903976087859e+04  2.8956850073938112e+04  2.9049796223359310e+04  2.9142742347464544e+04  2.9235688481297981e+04  2.9328634623134374e+04  2.9421580778039370e+04  2.9514526925772683e+04  2.9607473097866656e+04  2.9700419263574186e+04  2.9793365428896555e+04  2.9886311640810647e+04  2.9979257853167117e+04  3.0072204074252284e+04  3.0165150301126105e+04  3.0258096564200514e+04  3.0351042865323332e+04  3.0443989174306284e+04  3.0536935506620935e+04  3.0629881886669948e+04  3.0722828289736106e+04  3.0815774762656241e+04  3.0908721266340046e+04  3.1001667809999868e+04  3.1094614475876147e+04  3.1187561122997136e+04  3.1280507908348653e+04  3.1373454714370986e+04  3.1466401660314223e+04  3.1559348657030576e+04  3.1652295756338430e+04  3.1745242935146740e+04  3.1838190241614120e+04  3.1931137585633336e+04  3.2024085055090229e+04  3.2117032529413351e+04  3.2209980063062303e+04  3.2302927628011734e+04  3.2395875162210687e+04  3.2488822674974846e+04  3.2581770134122147e+04  3.2674717477875103e+04  3.2767664739450833e+04  3.2860611853042814e+04  3.2953558864437488e+04  3.3046505744931201e+04  3.3139452469813572e+04  3.3232399082527940e+04  3.3325345490220760e+04  3.3418291783994682e+04  3.3511237919712563e+04  3.3604183977710854e+04  3.3697129975938929e+04  3.3914253499194478e+04  3.4038431046992897e+04  3.4162608583143949e+04  3.4286786081011895e+04  3.4410963514145726e+04  3.4535140883821492e+04  3.4659318194670152e+04  3.4783495461998617e+04  3.4907672699343231e+04  3.5031849926512630e+04  3.5156027137750250e+04  3.5280204347728461e+04  3.5404381557307308e+04  3.5528558766612608e+04  3.5652735976900818e+04  3.5776913187967650e+04  3.5901090400081419e+04  3.6025267612860080e+04  3.6149444826271094e+04  3.6273622040174989e+04  3.6397799254426376e+04  3.6521976468959787e+04  3.6646153683678851e+04  3.6770330898556946e+04  3.6894508113515854e+04  3.7018685328560627e+04  3.7142862543654686e+04  3.7267039758781779e+04  3.7391216973932671e+04  3.7515394189100283e+04  3.7639571404273425e+04  3.7763748619457328e+04  3.7887925834644688e+04  3.8012103049832018e+04  3.8136280265023786e+04  3.8260457480215511e+04  3.8384634695404595e+04  3.8508811910597113e+04  3.8632989125789274e+04  3.8757166340978270e+04  3.8881343556169850e+04  3.9005520771361611e+04  3.9129697986553198e+04  3.9253875201744588e+04  3.9378052416936072e+04  3.9502229632127106e+04  3.9626406847318322e+04  3.9750584062509253e+04  3.9874761277700287e+04  3.9998938492891197e+04  4.0123115708082347e+04  4.0247292923272995e+04  4.0371470138463934e+04  4.0495647353654669e+04  4.0619824568845528e+04  4.0744001784036278e+04  4.0868178999227312e+04  4.0992356214417872e+04  4.1116533429608608e+04  4.1240710644799285e+04  4.1364887859987000e+04  4.1489065075177787e+04  4.1613242290368253e+04  4.1737419505555903e+04  4.1861596720746216e+04  4.1985773935937068e+04  4.2109951151125097e+04  4.2234128366315112e+04  4.2358305581505978e+04  4.2482482796694167e+04  4.2606660011883803e+04  4.2730837227074786e+04  4.2855014442263717e+04  4.2979191657453091e+04  4.3103368872643427e+04  4.3227546087831870e+04  4.3351723303021106e+04  4.3475900518212184e+04  4.3600077733400954e+04  4.3600077733400620e+04  4.3600077733400649e+04  4.3600077733400860e+04  4.3600077733400656e+04  4.3600077733400860e+04  4.3600077733401020e+04  4.3600077733401020e+04  4.3600077733400940e+04  4.3600077733400678e+04  4.3600077733400867e+04  4.3600077733400700e+04  4.3600077733400714e+04  4.3600077733401195e+04  4.3475900518211994e+04  4.3351723303021216e+04  4.3227546087831885e+04  4.3103368872643325e+04  4.2979191657452968e+04  4.2855014442263222e+04  4.2730837227074437e+04  4.2606660011883447e+04  4.2482482796693788e+04  4.2358305581505694e+04  4.2234128366314879e+04  4.2109951151124893e+04  4.1985773935937017e+04  4.1861596720746318e+04  4.1737419505556223e+04  4.1613242290368267e+04  4.1489065075177663e+04  4.1364887859987066e+04  4.1240710644799277e+04  4.1116533429609102e+04  4.0992356214418265e+04  4.0868178999230789e+04  4.0744001784040447e+04  4.0619824568849588e+04  4.0495647353661661e+04  4.0371470138471639e+04  4.0247292923282454e+04  4.0123115708094367e+04  3.9998938492903500e+04  3.9874761277713878e+04  3.9750584062525915e+04  3.9626406847335340e+04  3.9502229632145929e+04  3.9378052416958155e+04  3.9253875201767827e+04  3.9129697986578227e+04  3.9005520771391202e+04  3.8881343556201355e+04  3.8757166341012271e+04  3.8632989125825603e+04  3.8508811910636665e+04  3.8384634695447443e+04  3.8260457480257974e+04  3.8136280265068606e+04  3.8012103049878744e+04  3.7887925834687223e+04  3.7763748619493817e+04  3.7639571404296228e+04  3.7515394189090373e+04  3.7391216973877185e+04  3.7267039758647079e+04  3.7142862543393931e+04  3.7018685328108841e+04  3.6894508112773517e+04  3.6770330897354623e+04  3.6646153681852236e+04  3.6521976466193373e+04  3.6397799250347125e+04  3.6273622034216467e+04  3.6149444817742587e+04  3.6025267600770982e+04  3.5901090383129122e+04  3.5776913164756792e+04  3.5652735945095177e+04  3.5528558724245690e+04  3.5404381501549607e+04  3.5280204277218902e+04  3.5156027048087628e+04  3.5031849816795540e+04  3.4907672580374019e+04  3.4783495331595317e+04  3.4659318073245850e+04  3.4535140828339463e+04  3.4410963595982852e+04  3.4286786531315993e+04  3.4162610737988020e+04  3.4038432718085889e+04  3.3914274815248398e+04  3.3762039024338723e+04  3.3734114439300072e+04  3.3706167124474072e+04  3.3678220895428756e+04  3.3650277434056021e+04  3.3622326784414850e+04  3.3594383572324085e+04  3.3566434845563410e+04  3.3538484176083497e+04  3.3510544051368612e+04  3.3482593486990212e+04  3.3454640949164001e+04  3.3426698049111728e+04  3.3398754582611415e+04  3.3370800408983043e+04  3.3342848458506363e+04  3.3314904966849128e+04  3.3286949652234907e+04  3.3259005405280877e+04  3.3231048328532539e+04  3.3203102392439265e+04  3.3175150773519497e+04  3.3147195377975506e+04  3.3119243975053294e+04  3.3091294431997310e+04  3.3063336863990866e+04  3.3035375964926061e+04  3.3007432001345085e+04  3.2979468185765276e+04  3.2951516826891893e+04  3.2923551047850618e+04  3.2895595600506509e+04  3.2867632034831979e+04  3.2839669433638061e+04  3.2811692107525516e+04  3.2783725088561579e+04  3.2755732998928881e+04  3.2727717152642868e+04  3.2609805181490188e+04  3.2519773748926436e+04  3.2429720724256607e+04  3.2339655984916095e+04  3.2249584669868316e+04  3.2159509893184513e+04  3.2069433421018621e+04  3.1979355394177484e+04  3.1889276310134075e+04  3.1799196499389294e+04  3.1709116151539794e+04  3.1619035167198468e+04  3.1528953943983299e+04  3.1438872442643820e+04  3.1348790649274542e+04  3.1258708703472003e+04  3.1168626580786880e+04  3.1078544336830713e+04  3.0988461955632847e+04  3.0898379511810130e+04  3.0808296973027907e+04  3.0718214400182409e+04  3.0628131754405244e+04  3.0538049038916153e+04  3.0447966292095956e+04  3.0357883514192345e+04  3.0267800724847970e+04  3.0177717904040932e+04  3.0087635013639399e+04  2.9997552167295442e+04  2.9907469266783708e+04  2.9817386357448890e+04  2.9727303447982762e+04  2.9637220523372784e+04  2.9547137575919063e+04  2.9457054632254811e+04  2.9366971663962348e+04  2.9276888727390298e+04  2.9186805772744443e+04  2.9096722772684876e+04  2.9006639818231899e+04  2.8916556824525072e+04  2.8826473876527380e+04  2.8736390859839743e+04  2.8646307878171719e+04  2.8556224919761757e+04  2.8466141903326123e+04  2.8376058936709429e+04  2.8285975930916382e+04  2.8195892922744166e+04  2.8105809957023877e+04  2.8015726945567567e+04  2.7925643963965438e+04  2.7835560950590250e+04  2.7745477983764893e+04  2.7655394978083797e+04  2.7565311959254785e+04  2.7475228982642482e+04  2.7385145968113779e+04  2.7295062978941980e+04  2.7204979987222512e+04  2.7114896969730169e+04  2.7024813999572358e+04  2.6934730993482983e+04  2.6844647973151961e+04  2.6754564994865854e+04  2.6664481976688960e+04  2.6574398997162334e+04  2.6484315976171572e+04  2.6394233001845409e+04  2.6304149989402908e+04  2.6214066997447895e+04  2.6123983992075933e+04  2.6033900976058187e+04  2.5943818004041917e+04  2.5853734988861448e+04  2.5763651991192335e+04  2.5673569004207628e+04  2.5583485986618620e+04  2.5493403008913094e+04  2.5403319992378638e+04  2.5313236977017568e+04  2.5223154006143446e+04  2.5133070990710668e+04  2.5042987992930495e+04  2.4952905005757235e+04  2.4862821988223011e+04  2.4772739009836590e+04  2.4682655986225684e+04  2.4592572983902002e+04  2.4502490006860047e+04  2.4412407000441017e+04  2.4322324008922995e+04  2.4232240985775174e+04  2.4142157999767671e+04  2.4052075003532922e+04  2.3961991974221000e+04  2.3871909011940916e+04  2.3781825992167287e+04  2.3691742999127986e+04  2.3601659986460039e+04  2.3511577008862285e+04  2.3421493995556510e+04  2.3331410993559941e+04  2.3241328019169552e+04  2.3151245001138170e+04  2.3061161978572214e+04  2.2971079010668000e+04  2.2880995988384781e+04  2.2790912984391623e+04  2.2700830007119595e+04  2.2610747002495660e+04  2.2520663988917870e+04  2.2430581007240642e+04  2.2340497980889300e+04  2.2250415004414546e+04  2.2160332002028197e+04  2.2070248995226113e+04  2.1980165995275715e+04  2.1890082990385537e+04  2.1799999999868887e+04  2.1799999999483731e+04  2.1800000000160555e+04  2.1799999999985987e+04  2.1799999999998749e+04  2.1800000000041036e+04  2.1799999999964344e+04  2.1800000000002503e+04  2.1799999999981534e+04  2.1799999999990829e+04  2.1799999999984651e+04  2.1799999999979245e+04  2.1799999999974283e+04  2.1799999999971420e+04  2.1799999999975575e+04  2.1799999999973217e+04  2.1799999999967822e+04  2.1799999999968866e+04  2.1799999999968171e+04  2.1799999999968455e+04  2.1799999999971722e+04  2.1799999999975080e+04  2.1799999999978540e+04  2.1799999999975298e+04  2.1799999999982134e+04  2.1799999999981042e+04  2.1799999999989941e+04  2.1799999999992313e+04  2.1799999999991534e+04  2.1800000000005202e+04  2.1799999999991396e+04  2.1800000000021490e+04  2.1799999999966836e+04  2.1800000000037220e+04  2.1799999999920088e+04  2.1800000000333363e+04  2.1799999999480977e+04  2.1800000000574364e+04  3.2915006512224601e+04  3.3553094163001675e+04  2.2444933105475033e+04  3.3221182624469060e+04  3.3767179286264087e+04  3.2910972486177678e+04  3.3477494346979474e+04  3.2254875931134018e+04  2.2181737710824375e+04  2.2181737710750724e+04  2.3112831760448516e+04  2.4737130024715501e+04  3.0592525928265812e+04  2.7600914790627940e+04  2.8332469873109232e+04  2.9857544709488804e+04  2.4003919209938118e+04  2.5449811711481492e+04  3.1310655779686127e+04  2.6888241293213519e+04  2.9059008160390233e+04  2.6164167677725840e+04  3.2717383830024308e+04  4.2948699756115850e+04  3.3097899265315355e+04  2.2091112922581859e+04  3.3234118503053112e+04  3.4362374354053019e+04  3.1781473966956873e+04  3.3272992762829082e+04  2.3556618497220956e+04  3.5015596184385606e+04  4.1672253934741690e+04  3.5717832720883183e+04  3.8700030104454789e+04  3.6442160053654137e+04  4.0936896857455336e+04  3.7950616501189346e+04  3.9422413218357317e+04  3.7201690645044240e+04  4.0185806374619722e+04  4.2323236131703197e+04  3.3635018011126747e+04  3.2582325430744018e+04  2.9428674053885185e+04  3.2963947677844284e+04  3.2583429029729705e+04  2.7972813978607850e+04  3.0223407492659429e+04  2.4358478336569195e+04  2.5090158166566438e+04  3.0940185900898501e+04  2.7247892546101852e+04  2.8690753887160194e+04  2.5810826030696266e+04  2.6527224850866482e+04  3.3464664306594183e+04  3.3882454739490851e+04  2.9505621848800482e+04  2.7974083668233834e+04  3.0219457956840528e+04  2.4364734074726377e+04  2.5081636184695581e+04  3.0943619781296933e+04  2.7256428117749172e+04  2.8682756906245279e+04  2.5802019677647229e+04  2.6520288907714785e+04  3.3001780162928815e+04  2.3459746879585917e+04  2.2014073514146945e+04  3.1895566103832425e+04  2.2003311719622896e+04  2.2778820003047713e+04  2.2765603817444298e+04  3.3412742147252517e+04  2.1991273446314688e+04  2.1986303180182695e+04  3.3042258593913793e+04  3.1542958354854043e+04  3.3785810002104190e+04  3.3412175389620505e+04  3.2322062098137005e+04  2.3803412809787951e+04  3.2851979327330795e+04  3.1471767671039866e+04  4.3222915753585010e+04  4.3228028642655940e+04  2.3865790569531244e+04  2.3243986454960603e+04  3.2259441342659524e+04  2.9772344981628466e+04  2.9141764300189679e+04  2.9171361968570629e+04  2.2471525620295535e+04  3.3162129652979682e+04  2.4724670579786860e+04  3.0580063395627247e+04  2.7613382453155180e+04  2.8331017436464630e+04  2.5448361495112400e+04  2.6889689486591986e+04  2.6169025492385041e+04  2.2477059912606823e+04  2.6210930236993605e+04  2.3147643526265983e+04  2.9788518287484174e+04  2.6838047589403959e+04  2.5502040223937569e+04  2.8384755295316460e+04  2.7550163810613940e+04  3.0643310958796435e+04  2.4787914486338668e+04  3.3524538024625821e+04  2.1940468209638293e+04  3.2793054566995248e+04  3.9067609378972345e+04  3.9065944614791239e+04  3.6082853129088282e+04  3.6094196418960673e+04  4.1310183195224483e+04  4.1317209994095654e+04  3.8322546087820490e+04  3.6832419505865415e+04  4.0557735961255050e+04  3.7577482796701202e+04  3.9812672670118227e+04  3.8327049170708095e+04  4.0557735961255705e+04  3.7579929242058031e+04  3.6835092765741312e+04  3.9811563740963167e+04  3.2015784102652964e+04  3.1244763606505177e+04  3.5377418003231745e+04  3.5355579474796868e+04  3.3816924972595378e+04  3.4112444198416459e+04  3.4687097114642267e+04  3.4689464279633408e+04  4.1996594779284052e+04  4.2620924905068401e+04  3.3048700357540707e+04  4.2628468784282195e+04  3.3241933997470471e+04  4.1971605339518086e+04  2.4098650849869337e+04  3.3048335269432035e+04  3.1187829038133590e+04  3.3171005045847269e+04  3.2807550021268638e+04  2.1930024949030641e+04  2.1937950454370668e+04  2.4136963861040909e+04  2.1922400065641013e+04  3.4208520959319038e+04  3.3328056285994360e+04  2.3748719677012312e+04  3.3333217287815256e+04  2.1939722937647177e+04  3.1567740960628609e+04  2.8906792338772215e+04  4.3334284742615040e+04  2.9317946937341345e+04  3.3588665022090237e+04  3.3419445960370940e+04  3.3612127035226942e+04  2.3005776959033672e+04  3.2721949558439283e+04  3.3690412909100305e+04  3.3049952621465396e+04  3.0014238926218881e+04  2.8899872825026036e+04  3.1993272975749562e+04  3.1723589668235472e+04  3.3209985740675627e+04  2.3362780893890409e+04  2.2850091263327715e+04  3.2734127253661387e+04  3.2543060800711002e+04  3.3248346911172477e+04  3.2743371367106072e+04  2.1911192207334767e+04  2.7861817487264787e+04  3.0338513858569942e+04  2.4483120124890836e+04  2.4984344987692897e+04  3.0836074045972189e+04  2.7353726442890478e+04  2.8583708964650825e+04  2.5704697168498256e+04  2.6633363309610992e+04  2.9610008043530241e+04  2.3639493853346699e+04  3.3985759979340502e+04  3.3604453374289391e+04  3.0044451907309038e+04  2.4538909682296548e+04  3.0394753760297692e+04  2.7800135292576764e+04  2.8146036719842461e+04  2.5263278658470663e+04  2.7074658527565629e+04  3.4089057613913807e+04  2.1902860310950629e+04  2.5976087724353954e+04  2.1897201246019256e+04  3.8696746040714221e+04  3.5737309410731927e+04  4.1675330897963118e+04  3.5737804148174582e+04  3.8694360242444884e+04  4.0919842707590156e+04  3.6438999036240348e+04  3.7949128705850264e+04  3.9419252199435468e+04  3.7183935576680626e+04  4.0183837511909369e+04  3.9448984540398764e+04  3.7931298704353983e+04  3.6439746358787364e+04  4.0929408700803549e+04  4.0173471798594241e+04  3.7205592564954728e+04  4.1616728112589226e+04  2.2276934478940057e+04  3.3005532453962034e+04  3.5006717694725608e+04  3.5000800077786051e+04  3.4390620969299918e+04  3.3693417559784502e+04  3.2466541364956647e+04  3.3327607352287196e+04  4.2910283785958120e+04  3.1734576098047219e+04  2.9358426001570981e+04  3.2870811133582327e+04  3.2937538663468920e+04  2.7820633358330386e+04  3.0369345377818201e+04  2.4507500068720979e+04  2.4946087018550090e+04  3.0801479547231473e+04  2.7391961616031684e+04  2.8120353075220624e+04  2.5237696084601008e+04  2.7100355119491120e+04  2.8551678648118941e+04  2.5666802165822592e+04  2.6671246147448001e+04  2.5958359306433325e+04  2.6400630903219982e+04  4.2323620652144033e+04  2.2205726277947888e+04  2.6398319021917843e+04  2.5935045372439490e+04  2.8806070217244651e+04  2.7123548239479220e+04  3.1065499645729909e+04  2.5214511875700126e+04  2.4251565262125623e+04  3.0106305094880281e+04  2.8087138221313126e+04  4.2296510939953601e+04  2.3603407764310516e+04  4.2928283080993599e+04  3.3054481419189680e+04  2.9377603339780057e+04  3.2052706611135280e+04  2.2244397338037415e+04  3.2465284179275528e+04  2.2284966694429553e+04  3.2767227017426703e+04  2.2928212264478989e+04  2.8197023288276730e+04  2.5312912119841905e+04  2.6036733363098356e+04  2.7025154819792733e+04  2.9997179347569483e+04  3.2906887536837545e+04  2.6418872711356307e+04  2.9599524815747896e+04  2.3351931908705697e+04  2.5697491810333791e+04  2.8569745069533874e+04  2.4984836505926010e+04  3.0842788664018703e+04  2.7353035915306351e+04  2.1902132667340135e+04  2.9574693920474358e+04  2.2678841692789225e+04  2.4593842246199460e+04  3.0453414479889147e+04  2.7740000179049108e+04  2.6635686006311669e+04  2.2694445187746063e+04  2.3425964205442335e+04  2.8909275153054536e+04  3.1768628347262071e+04  2.1894748809040673e+04  3.2119926201166174e+04  3.2163309113816151e+04  2.2596549892348754e+04  2.2987270315647664e+04  2.4300982470434763e+04  2.2593559506721878e+04  2.2998100595093958e+04  2.9958883203622900e+04  2.8957708534756071e+04  3.3347767249442848e+04  3.1047042115813994e+04  3.3132070440896023e+04  2.7747317476421376e+04  3.0427565556780948e+04  2.4572442140227253e+04  2.4866528389368308e+04  3.0724507430667465e+04  2.7471519351604133e+04  2.8485711721640509e+04  2.5585297561579933e+04  2.6752752938849429e+04  3.3441380297580581e+04  3.2377349450202528e+04  3.1388973026270065e+04  2.4148670799350897e+04  2.1886214573412599e+04  3.1006820227796848e+04  2.2047137382190889e+04  3.329152927