<?xml version="1.0"?>
<VTKFile type="UnstructuredGrid"  version="0.1"  >
<UnstructuredGrid>
<Piece  NumberOfPoints="4408" NumberOfCells="8313">
<Points>
<DataArray  type="Float64"  NumberOfComponents="3"  format="ascii">6 0.1 0  7.1 0.1 0  8 0.1 0  8 0.22 0  7.1 0.22 0  7 0.22 0  6 0.22 0  6.008527131783115 0.1 0  6.01705426356606 0.1 0  6.025581395348834 0.1 0  6.034108527131772 0.1 0  6.042635658914882 0.1 0  6.051162790697997 0.1 0  6.059689922480948 0.1 0  6.068217054263728 0.1 0  6.07674418604666 0.1 0  6.085271317829764 0.1 0  6.093798449612879 0.1 0  6.102325581395837 0.1 0  6.110852713178624 0.1 0  6.11937984496155 0.1 0  6.127906976744646 0.1 0  6.136434108527761 0.1 0  6.144961240310725 0.1 0  6.15348837209352 0.1 0  6.162015503876439 0.1 0  6.170542635659528 0.1 0  6.179069767442498 0.1 0  6.187596899225297 0.1 0  6.196124031008068 0.1 0  6.20465116279098 0.1 0  6.213178294574063 0.1 0  6.221705426357039 0.1 0  6.230232558139845 0.1 0  6.238759689922617 0.1 0  6.247286821705522 0.1 0  6.255813953488598 0.1 0  6.264341085271582 0.1 0  6.272868217054394 0.1 0  6.281395348837165 0.1 0  6.289922480620064 0.1 0  6.298449612403133 0.1 0  6.306976744186123 0.1 0  6.315503875968942 0.1 0  6.324031007751714 0.1 0  6.332558139534606 0.1 0  6.341085271317668 0.1 0  6.349612403100665 0.1 0  6.358139534883491 0.1 0  6.366666666666262 0.1 0  6.375193798449147 0.1 0  6.383720930232204 0.1 0  6.392248062015207 0.1 0  6.400775193798039 0.1 0  6.409302325580811 0.1 0  6.417829457363689 0.1 0  6.426356589146739 0.1 0  6.434883720929749 0.1 0  6.443410852712588 0.1 0  6.451937984495359 0.1 0  6.460465116278231 0.1 0  6.468992248061274 0.1 0  6.47751937984429 0.1 0  6.486046511627137 0.1 0  6.494573643409908 0.1 0  6.503100775192773 0.1 0  6.511627906975716 0.1 0  6.520155038758567 0.1 0  6.528682170541338 0.1 0  6.53720930232411 0.1 0  6.545736434106968 0.1 0  6.554263565889997 0.1 0  6.562790697673027 0.1 0  6.571317829455887 0.1 0  6.57984496123874 0.1 0  6.588372093021763 0.1 0  6.596899224804878 0.1 0  6.605426356587916 0.1 0  6.613953488370782 0.1 0  6.622480620153628 0.1 0  6.631007751936646 0.1 0  6.639534883719688 0.1 0  6.64806201550256 0.1 0  6.656589147285331 0.1 0  6.66511627906817 0.1 0  6.673643410851181 0.1 0  6.682170542634229 0.1 0  6.690697674417108 0.1 0  6.699224806199942 0.1 0  6.707751937982947 0.1 0  6.716279069766062 0.1 0  6.724806201549118 0.1 0  6.733333333332004 0.1 0  6.741860465114831 0.1 0  6.750387596897829 0.1 0  6.758914728680944 0.1 0  6.767441860464007 0.1 0  6.775968992246899 0.1 0  6.78449612402972 0.1 0  6.793023255812711 0.1 0  6.801550387595826 0.1 0  6.810077519378895 0.1 0  6.818604651161794 0.1 0  6.827131782944608 0.1 0  6.835658914727593 0.1 0  6.844186046510708 0.1 0  6.852713178293785 0.1 0  6.86124031007669 0.1 0  6.869767441859497 0.1 0  6.878294573642475 0.1 0  6.88682170542559 0.1 0  6.895348837208672 0.1 0  6.903875968991585 0.1 0  6.912403100774386 0.1 0  6.920930232557357 0.1 0  6.929457364340472 0.1 0  6.937984496123562 0.1 0  6.946511627906481 0.1 0  6.955038759689274 0.1 0  6.963565891472238 0.1 0  6.972093023255354 0.1 0  6.980620155038451 0.1 0  6.989147286821376 0.1 0  6.997674418604163 0.1 0  7.006201550387121 0.1 0  7.014728682170236 0.1 0  7.023255813953339 0.1 0  7.031782945736271 0.1 0  7.040310077519051 0.1 0  7.048837209302002 0.1 0  7.057364341085117 0.1 0  7.065891472868227 0.1 0  7.074418604651166 0.1 0  7.08294573643394 0.1 0  7.091472868216885 0.1 0  7.111392405063206 0.1 0  7.122784810126584 0.1 0  7.134177215189814 0.1 0  7.145569620252996 0.1 0  7.156962025316374 0.1 0  7.168354430379628 0.1 0  7.179746835442786 0.1 0  7.191139240506164 0.1 0  7.202531645569443 0.1 0  7.213924050632575 0.1 0  7.225316455695954 0.1 0  7.236708860759257 0.1 0  7.248101265822365 0.1 0  7.259493670885744 0.1 0  7.270886075949071 0.1 0  7.282278481012169 0.1 0  7.293670886075534 0.1 0  7.305063291138885 0.1 0  7.316455696201983 0.1 0  7.327848101265324 0.1 0  7.339240506328699 0.1 0  7.350632911391798 0.1 0  7.362025316455115 0.1 0  7.373417721518494 0.1 0  7.384810126581612 0.1 0  7.396202531644905 0.1 0  7.407594936708154 0.1 0  7.418987341771317 0.1 0  7.430379746834695 0.1 0  7.441772151897969 0.1 0  7.453164556961106 0.1 0  7.464556962024485 0.1 0  7.475949367087783 0.1 0  7.487341772150897 0.1 0  7.498734177214275 0.1 0  7.510126582277597 0.1 0  7.521518987340695 0.1 0  7.532911392404065 0.1 0  7.544303797467411 0.1 0  7.55569620253051 0.1 0  7.567088607593855 0.1 0  7.578481012657234 0.1 0  7.589873417720614 0.1 0  7.601265822783993 0.1 0  7.612658227847371 0.1 0  7.62405063291075 0.1 0  7.635443037974129 0.1 0  7.646835443037508 0.1 0  7.658227848100887 0.1 0  7.669620253164266 0.1 0  7.681012658227645 0.1 0  7.692405063291024 0.1 0  7.703797468354402 0.1 0  7.715189873417781 0.1 0  7.72658227848116 0.1 0  7.73797468354454 0.1 0  7.749367088607919 0.1 0  7.760759493671297 0.1 0  7.772151898734676 0.1 0  7.783544303798018 0.1 0  7.794936708861115 0.1 0  7.806329113924466 0.1 0  7.817721518987832 0.1 0  7.82911392405093 0.1 0  7.840506329114256 0.1 0  7.851898734177635 0.1 0  7.863291139240744 0.1 0  7.874683544304045 0.1 0  7.886075949367425 0.1 0  7.897468354430558 0.1 0  7.908860759493836 0.1 0  7.920253164557215 0.1 0  7.931645569620372 0.1 0  7.943037974683626 0.1 0  7.954430379747005 0.1 0  7.965822784810186 0.1 0  7.977215189873416 0.1 0  7.988607594936794 0.1 0  8 0.1079999999999785 0  8 0.1159999999999675 0  8 0.1239999999999376 0  8 0.1319999999999082 0  8 0.1399999999998952 0  8 0.1479999999998634 0  8 0.155999999999838 0  8 0.1639999999998355 0  8 0.1719999999998709 0  8 0.1799999999998969 0  8 0.1879999999999114 0  8 0.1959999999999306 0  8 0.2039999999999588 0  8 0.2119999999999714 0  7.988607594936794 0.22 0  7.977215189873416 0.22 0  7.965822784810186 0.22 0  7.954430379747004 0.22 0  7.943037974683626 0.22 0  7.931645569620372 0.22 0  7.920253164557214 0.22 0  7.908860759493836 0.22 0  7.897468354430557 0.22 0  7.886075949367425 0.22 0  7.874683544304045 0.22 0  7.863291139240743 0.22 0  7.851898734177635 0.22 0  7.840506329114255 0.22 0  7.829113924050929 0.22 0  7.817721518987831 0.22 0  7.806329113924465 0.22 0  7.794936708861115 0.22 0  7.783544303798017 0.22 0  7.772151898734675 0.22 0  7.7607594936713 0.22 0  7.749367088608202 0.22 0  7.737974683544885 0.22 0  7.726582278481506 0.22 0  7.715189873418388 0.22 0  7.703797468355095 0.22 0  7.692405063291845 0.22 0  7.681012658228683 0.22 0  7.669620253165305 0.22 0  7.65822784810203 0.22 0  7.646835443038894 0.22 0  7.635443037975515 0.22 0  7.624050632912216 0.22 0  7.612658227849103 0.22 0  7.601265822785725 0.22 0  7.589873417722402 0.22 0  7.578481012659305 0.22 0  7.567088607595934 0.22 0  7.555696202532588 0.22 0  7.54430379746949 0.22 0  7.532911392406144 0.22 0  7.521518987342765 0.22 0  7.510126582279386 0.22 0  7.498734177216007 0.22 0  7.487341772152629 0.22 0  7.47594936708925 0.22 0  7.46455696202587 0.22 0  7.453164556962491 0.22 0  7.441772151899112 0.22 0  7.430379746835734 0.22 0  7.418987341772355 0.22 0  7.407594936708976 0.22 0  7.396202531645597 0.22 0  7.384810126582218 0.22 0  7.373417721518839 0.22 0  7.36202531645546 0.22 0  7.350632911392081 0.22 0  7.339240506328703 0.22 0  7.327848101265324 0.22 0  7.316455696201982 0.22 0  7.305063291138884 0.22 0  7.293670886075533 0.22 0  7.282278481012168 0.22 0  7.27088607594907 0.22 0  7.259493670885743 0.22 0  7.248101265822365 0.22 0  7.236708860759256 0.22 0  7.225316455695954 0.22 0  7.213924050632575 0.22 0  7.202531645569442 0.22 0  7.191139240506164 0.22 0  7.179746835442785 0.22 0  7.168354430379628 0.22 0  7.156962025316374 0.22 0  7.145569620252995 0.22 0  7.134177215189814 0.22 0  7.122784810126584 0.22 0  7.111392405063206 0.22 0  7.097435897435684 0.22 0  7.094871794871715 0.22 0  7.092307692307371 0.22 0  7.089743589743082 0.22 0  7.087179487179113 0.22 0  7.084615384614744 0.22 0  7.082051282050655 0.22 0  7.079487179486859 0.22 0  7.076923076922809 0.22 0  7.074358974358748 0.22 0  7.071794871794951 0.22 0  7.069230769230876 0.22 0  7.06666666666684 0.22 0  7.064102564103035 0.22 0  7.061538461538942 0.22 0  7.058974358974585 0.22 0  7.056410256410616 0.22 0  7.053846153846314 0.22 0  7.051282051281984 0.22 0  7.048717948718015 0.22 0  7.046153846153686 0.22 0  7.043589743589383 0.22 0  7.041025641025414 0.22 0  7.038461538461058 0.22 0  7.035897435896964 0.22 0  7.03333333333316 0.22 0  7.030769230769124 0.22 0  7.028205128205048 0.22 0  7.025641025641252 0.22 0  7.023076923077189 0.22 0  7.02051282051314 0.22 0  7.017948717949345 0.22 0  7.015384615385256 0.22 0  7.012820512820887 0.22 0  7.010256410256917 0.22 0  7.007692307692628 0.22 0  7.005128205128285 0.22 0  7.002564102564316 0.22 0  6.991735537190083 0.22 0  6.983471074380165 0.22 0  6.975206611570248 0.22 0  6.966942148760331 0.22 0  6.958677685950414 0.22 0  6.950413223140496 0.22 0  6.942148760330578 0.22 0  6.933884297520661 0.22 0  6.925619834710743 0.22 0  6.917355371900826 0.22 0  6.909090909090909 0.22 0  6.900826446280992 0.22 0  6.892561983471074 0.22 0  6.884297520661157 0.22 0  6.87603305785124 0.22 0  6.867768595041323 0.22 0  6.859504132231405 0.22 0  6.851239669421488 0.22 0  6.842975206611571 0.22 0  6.834710743801653 0.22 0  6.826446280991735 0.22 0  6.818181818181818 0.22 0  6.809917355371901 0.22 0  6.801652892561983 0.22 0  6.793388429752066 0.22 0  6.785123966942149 0.22 0  6.776859504132231 0.22 0  6.768595041322314 0.22 0  6.760330578512397 0.22 0  6.75206611570248 0.22 0  6.743801652892562 0.22 0  6.735537190082645 0.22 0  6.727272727272728 0.22 0  6.71900826446281 0.22 0  6.710743801652892 0.22 0  6.702479338842975 0.22 0  6.694214876033058 0.22 0  6.68595041322314 0.22 0  6.677685950413223 0.22 0  6.669421487603306 0.22 0  6.661157024793388 0.22 0  6.652892561983471 0.22 0  6.644628099173554 0.22 0  6.636363636363637 0.22 0  6.628099173553719 0.22 0  6.619834710743802 0.22 0  6.611570247933884 0.22 0  6.603305785123966 0.
[...]
<PointData  Scalars="pressure"> 
<DataArray  type="Float64"  Name="pressure"  format="ascii">2.1800000004131849e+04  3.3790073062841562e+04  4.3600074859690976e+04  4.3600074859691078e+04  3.3790027164369669e+04  3.2699661143324869e+04  2.1800000004779915e+04  2.1892946093917126e+04  2.1985892199022441e+04  2.2078838287900584e+04  2.2171784406872706e+04  2.2264730491865183e+04  2.2357676596370580e+04  2.2450622695461981e+04  2.2543568806699495e+04  2.2636514880376024e+04  2.2729461007341895e+04  2.2822407097617350e+04  2.2915353212293165e+04  2.3008299289264243e+04  2.3101245392388846e+04  2.3194191508092961e+04  2.3287137580894039e+04  2.3380083713293719e+04  2.3473029804741072e+04  2.3565975910655274e+04  2.3658921987273076e+04  2.3751868104825193e+04  2.3844814202864156e+04  2.3937760297704794e+04  2.4030706397021113e+04  2.4123652494627382e+04  2.4216598584678526e+04  2.4309544715237127e+04  2.4402490803996403e+04  2.4495436896398092e+04  2.4588382989062829e+04  2.4681329094309101e+04  2.4774275213169367e+04  2.4867221290396516e+04  2.4960167390242055e+04  2.5053113510274619e+04  2.5146059603205238e+04  2.5239005711789407e+04  2.5331951785562447e+04  2.5424897903200355e+04  2.5517844016736097e+04  2.5610790095414854e+04  2.5703736210265288e+04  2.5796682292183559e+04  2.5889628392790928e+04  2.5982574511399180e+04  2.6075520590057011e+04  2.6168466689315541e+04  2.6261412812408511e+04  2.6354358900171035e+04  2.6447305003406611e+04  2.6540251104206473e+04  2.6633197212970088e+04  2.6726143292378827e+04  2.6819089387988537e+04  2.6912035508778827e+04  2.7004981618816411e+04  2.7097927692393081e+04  2.7190873805461804e+04  2.7283819903189476e+04  2.7376766024674860e+04  2.7469712119112741e+04  2.7562658217921085e+04  2.7655604319272195e+04  2.7748550416819086e+04  2.7841496530973734e+04  2.7934442623173687e+04  2.8027388739522361e+04  2.8120334835367474e+04  2.8213280941715686e+04  2.8306227056011507e+04  2.8399173174799904e+04  2.8492119264783338e+04  2.8585065399590028e+04  2.8678011487187847e+04  2.8770957604784937e+04  2.8863903742019425e+04  2.8956849837451493e+04  2.9049795980703740e+04  2.9142742100618649e+04  2.9235688229281164e+04  2.9328634365753303e+04  2.9421580514156947e+04  2.9514526655986250e+04  2.9607472820130970e+04  2.9700418978360121e+04  2.9793365136251963e+04  2.9886311336972100e+04  2.9979257538456779e+04  3.0072203747567830e+04  3.0165149962043990e+04  3.0258096209406514e+04  3.0351042492034794e+04  3.0443988781626718e+04  3.0536935092331412e+04  3.0629881446966840e+04  3.0722827821775176e+04  3.0815774260512648e+04  3.0908720727483855e+04  3.1001667229864415e+04  3.1094613844035059e+04  3.1187560440415131e+04  3.1280507162304824e+04  3.1373453901872403e+04  3.1466400768140760e+04  3.1559347680434188e+04  3.1652294685037337e+04  3.1745241760020355e+04  3.1838188951502420e+04  3.1931136175634641e+04  3.2024083513316531e+04  3.2117030854763394e+04  3.2209978250161435e+04  3.2302925674313083e+04  3.2395873069919366e+04  3.2488820447691935e+04  3.2581767776863828e+04  3.2674715001592791e+04  3.2767662151310498e+04  3.2860609163093817e+04  3.2953556078236259e+04  3.3046502870295342e+04  3.3139449524473457e+04  3.3232396086616871e+04  3.3325342482811931e+04  3.3418288785105447e+04  3.3511234948650352e+04  3.3604181037066526e+04  3.3697127059757462e+04  3.3914250610393123e+04  3.4038428158416085e+04  3.4162605691821016e+04  3.4286783189654161e+04  3.4410960624860825e+04  3.4535137998208680e+04  3.4659315311550083e+04  3.4783492580336126e+04  3.4907669818374350e+04  3.5031847045834642e+04  3.5156024257458528e+04  3.5280201468025596e+04  3.5404378678232613e+04  3.5528555888306888e+04  3.5652733099337463e+04  3.5776910311112813e+04  3.5901087523848037e+04  3.6025264737161328e+04  3.6149441951002555e+04  3.6273619165260308e+04  3.6397796379799816e+04  3.6521973594553194e+04  3.6646150809447783e+04  3.6770328024457638e+04  3.6894505239517981e+04  3.7018682454638292e+04  3.7142859669789817e+04  3.7267036884958899e+04  3.7391214100141704e+04  3.7515391315332010e+04  3.7639568530522054e+04  3.7763745745718188e+04  3.7887922960914002e+04  3.8012100176107706e+04  3.8136277391303774e+04  3.8260454606498715e+04  3.8384631821689996e+04  3.8508809036884049e+04  3.8632986252077237e+04  3.8757163467266939e+04  3.8881340682458984e+04  3.9005517897651094e+04  3.9129695112842899e+04  3.9253872328034420e+04  3.9378049543225970e+04  3.9502226758417077e+04  3.9626403973608321e+04  3.9750581188799253e+04  3.9874758403990279e+04  3.9998935619181182e+04  4.0123112834372347e+04  4.0247290049563009e+04  4.0371467264753934e+04  4.0495644479944662e+04  4.0619821695135528e+04  4.0743998910326292e+04  4.0868176125517311e+04  4.0992353340707865e+04  4.1116530555898593e+04  4.1240707771089299e+04  4.1364884986277008e+04  4.1489062201467787e+04  4.1613239416658238e+04  4.1737416631845917e+04  4.1861593847036209e+04  4.1985771062227061e+04  4.2109948277415111e+04  4.2234125492605112e+04  4.2358302707795970e+04  4.2482479922984174e+04  4.2606657138173810e+04  4.2730834353364786e+04  4.2855011568553717e+04  4.2979188783743091e+04  4.3103365998933448e+04  4.3227543214121899e+04  4.3351720429311135e+04  4.3475897644502220e+04  4.3600074859690969e+04  4.3600074859690663e+04  4.3600074859690685e+04  4.3600074859690896e+04  4.3600074859690671e+04  4.3600074859690896e+04  4.3600074859691027e+04  4.3600074859691027e+04  4.3600074859690976e+04  4.3600074859690707e+04  4.3600074859690896e+04  4.3600074859690707e+04  4.3600074859690743e+04  4.3600074859691224e+04  4.3475897644502038e+04  4.3351720429311245e+04  4.3227543214121921e+04  4.3103365998933361e+04  4.2979188783742997e+04  4.2855011568553244e+04  4.2730834353364444e+04  4.2606657138173461e+04  4.2482479922983825e+04  4.2358302707795716e+04  4.2234125492604893e+04  4.2109948277414878e+04  4.1985771062227024e+04  4.1861593847036289e+04  4.1737416631846208e+04  4.1613239416658274e+04  4.1489062201467670e+04  4.1364884986277044e+04  4.1240707771089270e+04  4.1116530555899066e+04  4.0992353340708258e+04  4.0868176125520760e+04  4.0743998910330425e+04  4.0619821695139559e+04  4.0495644479951639e+04  4.0371467264761617e+04  4.0247290049572432e+04  4.0123112834384330e+04  3.9998935619193464e+04  3.9874758404003864e+04  3.9750581188815886e+04  3.9626403973625340e+04  3.9502226758435965e+04  3.9378049543248228e+04  3.9253872328058002e+04  3.9129695112868540e+04  3.9005517897681733e+04  3.8881340682492213e+04  3.8757163467303610e+04  3.8632986252117633e+04  3.8508809036929742e+04  3.8384631821742041e+04  3.8260454606554813e+04  3.8136277391368509e+04  3.8012100176183172e+04  3.7887922960997785e+04  3.7763745745813154e+04  3.7639568530627541e+04  3.7515391315438617e+04  3.7391214100248231e+04  3.7267036885049813e+04  3.7142859669838945e+04  3.7018682454611291e+04  3.6894505239351529e+04  3.6770328024034483e+04  3.6646150808664643e+04  3.6521973593183342e+04  3.6397796377560298e+04  3.6273619161726660e+04  3.6149441945628889e+04  3.6025264729116243e+04  3.5901087512064187e+04  3.5776910294413734e+04  3.5652733075668868e+04  3.5528555855885475e+04  3.5404378634450593e+04  3.5280201411469010e+04  3.5156024183989284e+04  3.5031846954053275e+04  3.4907669718976707e+04  3.4783492471952428e+04  3.4659315217492403e+04  3.4535137985335707e+04  3.4410960783541748e+04  3.4286783766841654e+04  3.4162607917875910e+04  3.4038430042573600e+04  3.3914270351037667e+04  3.3762041697388035e+04  3.3734115985468365e+04  3.3706168665195852e+04  3.3678222345702758e+04  3.3650278441743430e+04  3.3622328112339077e+04  3.3594384456910419e+04  3.3566435771983655e+04  3.3538485435041381e+04  3.3510544597501073e+04  3.3482594252604802e+04  3.3454642218214445e+04  3.3426698924309858e+04  3.3398755036155373e+04  3.3370801471148356e+04  3.3342850019194542e+04  3.3314906086349452e+04  3.3286951531711580e+04  3.3259006886269592e+04  3.3231050697079358e+04  3.3203104573053737e+04  3.3175153170569196e+04  3.3147198462662942e+04  3.3119247280464479e+04  3.3091297691333726e+04  3.3063340827345935e+04  3.3035381137288037e+04  3.3007436394417353e+04  3.2979473907588646e+04  3.2951522415583771e+04  3.2923558095345776e+04  3.2895602902590654e+04  3.2867640354887371e+04  3.2839678461962860e+04  3.2811703512739950e+04  3.2783737173914342e+04  3.2755748311025483e+04  3.2727736215529203e+04  3.2609817594647324e+04  3.2519781555460635e+04  3.2429726093388010e+04  3.2339659907030018e+04  3.2249587689654989e+04  3.2159512285154946e+04  3.2069435301432135e+04  3.1979356895093384e+04  3.1889277508275445e+04  3.1799197450236727e+04  3.1709116899078686e+04  3.1619035761657167e+04  3.1528954400035524e+04  3.1438872785164618e+04  3.1348790900247015e+04  3.1258708874990778e+04  3.1168626686590305e+04  3.1078544386563928e+04  3.0988461959551169e+04  3.0898379475466525e+04  3.0808296903767910e+04  3.0718214301526568e+04  3.0628131631344295e+04  3.0538048896389519e+04  3.0447966133316320e+04  3.0357883341718119e+04  3.0267800539991455e+04  3.0177717708295844e+04  3.0087634812571556e+04  2.9997551958344957e+04  2.9907469053159377e+04  2.9817386140400668e+04  2.9727303227683442e+04  2.9637220300517212e+04  2.9547137352315596e+04  2.9457054407667594e+04  2.9366971440294143e+04  2.9276888502780079e+04  2.9186805547424676e+04  2.9096722550509759e+04  2.9006639596013454e+04  2.8916556605096823e+04  2.8826473656376900e+04  2.8736390643830182e+04  2.8646307664314896e+04  2.8556224705947057e+04  2.8466141693724217e+04  2.8376058727819389e+04  2.8285975725179302e+04  2.8195892720790500e+04  2.8105809755823979e+04  2.8015726748084682e+04  2.7925643768229085e+04  2.7835560758831005e+04  2.7745477792876816e+04  2.7655394790028233e+04  2.7565311775656079e+04  2.7475228800328656e+04  2.7385145789732080e+04  2.7295062802954097e+04  2.7204979813421185e+04  2.7114896800202441e+04  2.7024813831071551e+04  2.6934730827818064e+04  2.6844647811990817e+04  2.6754564835032688e+04  2.6664481821111825e+04  2.6574398843081766e+04  2.6484315826499565e+04  2.6394232853426704e+04  2.6304149844640913e+04  2.6214066854968984e+04  2.6123983852691006e+04  2.6033900840858176e+04  2.5943817869922379e+04  2.5853734858558593e+04  2.5763651863838073e+04  2.5673568878712726e+04  2.5583485865324936e+04  2.5493402888839617e+04  2.5403319876104062e+04  2.5313236864933231e+04  2.5223153895062758e+04  2.5133070883465967e+04  2.5042987888639072e+04  2.4952904903339604e+04  2.4862821890005416e+04  2.4772738912785360e+04  2.4682655893650222e+04  2.4592572894644545e+04  2.4502489919131254e+04  2.4412406915979886e+04  2.4322323926417117e+04  2.4232240907946172e+04  2.4142157923629402e+04  2.4052074929922703e+04  2.3961991905847484e+04  2.3871908943834056e+04  2.3781825928234110e+04  2.3691742937708212e+04  2.3601659928979687e+04  2.3511576952639516e+04  2.3421493943049973e+04  2.3331410944522901e+04  2.3241327970998078e+04  2.3151244956694631e+04  2.3061161938902442e+04  2.2971078971694478e+04  2.2880995953753696e+04  2.2790912953260824e+04  2.2700829977294929e+04  2.2610746975700989e+04  2.2520663966106888e+04  2.2430580985953624e+04  2.2340497964465230e+04  2.2250414989351335e+04  2.2160331990013226e+04  2.2070248986504943e+04  2.1980165989461515e+04  2.1890082987934184e+04  2.1799999999861418e+04  2.1799999999516083e+04  2.1800000000143591e+04  2.1799999999981013e+04  2.1799999999996577e+04  2.1800000000039177e+04  2.1799999999960466e+04  2.1800000000004638e+04  2.1799999999977976e+04  2.1799999999996166e+04  2.1799999999980497e+04  2.1799999999986761e+04  2.1799999999984189e+04  2.1799999999982851e+04  2.1799999999980140e+04  2.1799999999979482e+04  2.1799999999977812e+04  2.1799999999977357e+04  2.1799999999977317e+04  2.1799999999977488e+04  2.1799999999978965e+04  2.1799999999980268e+04  2.1799999999982174e+04  2.1799999999982414e+04  2.1799999999985444e+04  2.1799999999988238e+04  2.1799999999988464e+04  2.1799999999998297e+04  2.1799999999988122e+04  2.1800000000008444e+04  2.1799999999987347e+04  2.1800000000019896e+04  2.1799999999962482e+04  2.1800000000030017e+04  2.1799999999920645e+04  2.1800000000306030e+04  2.1799999999513271e+04  2.1800000000507222e+04  3.2915004597526007e+04  3.3553091251472499e+04  2.2444933084512035e+04  3.3221181183871682e+04  3.3767176878053375e+04  3.2910974386247188e+04  3.3477492660468488e+04  3.2254875586318816e+04  2.2181737698306857e+04  2.2181737698404926e+04  2.3112831717825644e+04  2.4737129929947703e+04  3.0592525648008421e+04  2.7600914604503741e+04  2.8332469663852753e+04  2.9857544451505215e+04  2.4003919138449539e+04  2.5449811593831128e+04  3.1310655496248841e+04  2.6888241129652750e+04  2.9059007927855127e+04  2.6164167537225487e+04  3.2717389657682954e+04  4.2948696882405857e+04  3.3097900577315035e+04  2.2091112913108285e+04  3.3234115431850165e+04  3.4362371526929259e+04  3.1781474153618550e+04  3.3272992953863170e+04  2.3556618440508166e+04  3.5015593310802527e+04  4.1672251061031682e+04  3.5717829847054294e+04  3.8700027230744658e+04  3.6442157179987291e+04  4.0936893983745329e+04  3.7950613627479448e+04  3.9422410344647309e+04  3.7201687771329467e+04  4.0185803500909715e+04  4.2323233257993204e+04  3.3635016196941120e+04  3.2582323270468281e+04  2.9428673819097807e+04  3.2963951543946976e+04  3.2583429486627396e+04  2.7972813781282945e+04  3.0223407267377959e+04  2.4358478254010115e+04  2.5090158060450387e+04  3.0940185765950515e+04  2.7247892371269521e+04  2.8690753668884678e+04  2.5810825901563752e+04  2.6527224698860038e+04  3.3464661206162178e+04  3.3882451975454940e+04  2.9505621589024977e+04  2.7974083469756908e+04  3.0219457644004076e+04  2.4364733991706271e+04  2.5081636078652209e+04  3.0943619332023125e+04  2.7256427942527313e+04  2.8682756683099669e+04  2.5802019548691183e+04  2.6520288756055594e+04  3.3001777289963335e+04  2.3459746825997096e+04  2.2014073507169185e+04  3.1895565095281378e+04  2.2003311712991454e+04  2.2778819971332243e+04  2.2765603785967211e+04  3.3412741784625396e+04  2.1991273440106321e+04  2.1986303174097364e+04  3.3042257409752310e+04  3.1542957556040201e+04  3.3785807349746858e+04  3.3412172783962269e+04  3.2322064395461166e+04  2.3803412745066053e+04  3.2851986165318987e+04  3.1471767903202610e+04  4.3222912879875032e+04  4.3228025768945961e+04  2.3865790502629716e+04  2.3243986407976747e+04  3.2259439557079841e+04  2.9772344754420687e+04  2.9141764073639621e+04  2.9171361723770089e+04  2.2471525598462162e+04  3.3162131360235318e+04  2.4724670485418421e+04  3.0580063229668223e+04  2.7613382267133849e+04  2.8331017228927212e+04  2.5448361377493089e+04  2.6889689323126800e+04  2.6169025351697957e+04  2.2477059890391396e+04  2.6210930094998250e+04  2.3147643482561234e+04  2.9788518001967081e+04  2.6838047427414120e+04  2.5502040104484480e+04  2.8384755082254891e+04  2.7550163625870551e+04  3.0643310545863686e+04  2.4787914389813330e+04  3.3524537470706498e+04  2.1940468205095694e+04  3.2793054819249839e+04  3.9067606505262695e+04  3.9065941741080911e+04  3.6082850256104146e+04  3.6094193544499401e+04  4.1310180321514490e+04  4.1317207120385647e+04  3.8322543214107005e+04  3.6832416631996311e+04  4.0557733087545035e+04  3.7577479922964834e+04  3.9812669796408227e+04  3.8327046297001463e+04  4.0557733087545697e+04  3.7579926368373817e+04  3.6835089892189724e+04  3.9811560867253138e+04  3.2015785335924924e+04  3.1244762953153306e+04  3.5377415131758789e+04  3.5355576598936619e+04  3.3816922435997782e+04  3.4112441677624956e+04  3.4687094247785244e+04  3.4689461405776623e+04  4.1996591905574060e+04  4.2620922031358416e+04  3.3048703613033336e+04  4.2628465910572195e+04  3.3241930890182914e+04  4.1971602465808093e+04  2.4098650775634338e+04  3.3048335448165490e+04  3.1187829109071004e+04  3.3171002589541597e+04  3.2807547520764805e+04  2.1930024944783028e+04  2.1937950449852033e+04  2.4136963785361837e+04  2.1922400061640339e+04  3.4208518123673581e+04  3.3328054956350665e+04  2.3748719613917910e+04  3.3333217757268350e+04  2.1939722933095138e+04  3.1567740674213688e+04  2.8906792104839780e+04  4.3334281868905055e+04  2.9317946695456460e+04  3.3588662516114426e+04  3.3419442801710997e+04  3.3612124076968212e+04  2.3005776919812342e+04  3.2721948281826375e+04  3.3690409968527922e+04  3.3049949785686273e+04  3.0014238713244882e+04  2.8899872603992859e+04  3.1993272739495162e+04  3.1723590342811691e+04  3.3209985419244957e+04  2.3362780843193821e+04  2.2850091229071397e+04  3.2734124668947308e+04  3.2543064018895191e+04  3.3248348144283504e+04  3.2743381721410078e+04  2.1911192203715247e+04  2.7861817292858246e+04  3.0338513587453937e+04  2.4483120038146375e+04  2.4984344884845385e+04  3.0836073760189756e+04  2.7353726264716974e+04  2.8583708747532473e+04  2.5704697042666987e+04  2.6633363154255159e+04  2.9610007793531699e+04  2.3639493793869096e+04  3.3985757359638359e+04  3.3604452840402395e+04  3.0044451589971974e+04  2.4538909593860975e+04  3.0394753387514273e+04  2.7800135099505525e+04  2.8146036515057276e+04  2.5263278546743131e+04  2.7074658358080647e+04  3.4089054955150321e+04  2.1902860307585346e+04  2.5976087589934745e+04  2.1897201242808434e+04  3.8696743167005756e+04  3.5737306538995937e+04  4.1675328024253118e+04  3.5737801272562545e+04  3.8694357368733348e+04  4.0919839833880142e+04  3.6438996162002404e+04  3.7949125832126570e+04  3.9419249325725585e+04  3.7183932702872873e+04  4.0183834638199347e+04  3.9448981666688647e+04  3.7931295830658171e+04  3.6439743485606181e+04  4.0929405827093549e+04  4.0173468924884226e+04  3.7205589691338319e+04  4.1616725238879219e+04  2.2276934463401307e+04  3.3005534316107427e+04  3.5006714817488937e+04  3.5000797209984878e+04  3.4390618125613139e+04  3.3693416536322846e+04  3.2466540248711612e+04  3.3327604439804112e+04  4.2910280912248119e+04  3.1734574969282236e+04  2.9358425775065898e+04  3.2870815297752990e+04  3.2937544166639243e+04  2.7820633165968229e+04  3.0369345198972031e+04  2.4507499981353114e+04  2.4946086917019631e+04  3.0801479459869002e+04  2.7391961436836787e+04  2.8120352874057640e+04  2.5237695973744059e+04  2.7100354949393190e+04  2.8551678435227244e+04  2.5666802041204555e+04  2.6671245990872645e+04  2.5958359172531003e+04  2.6400630755258269e+04  4.2323617778434025e+04  2.2205726264670193e+04  2.6398318873975284e+04  2.5935045239392166e+04  2.8806069993061679e+04  2.7123548068448792e+04  3.1065499385380986e+04  2.5214511765640960e+04  2.4251565182782608e+04  3.0106304831192352e+04  2.8087138019920985e+04  4.2296508066243608e+04  2.3603407705905800e+04  4.2928280207283613e+04  3.3054479112555906e+04  2.9377603080597619e+04  3.2052705040026012e+04  2.2244397323617362e+04  3.2465281955872841e+04  2.2284966678621753e+04  3.2767229543482543e+04  2.2928212227851509e+04  2.8197023082719908e+04  2.5312912006626877e+04  2.6036733226906537e+04  2.7025154652228703e+04  2.9997179059882077e+04  3.2906887528044019e+04  2.6418872562748773e+04  2.9599524541564446e+04  2.3351931858281343e+04  2.5697491684828019e+04  2.8569744849371164e+04  2.4984836402892557e+04  3.0842788164717414e+04  2.7353035736700636e+04  2.1902132664027609e+04  2.9574693695273509e+04  2.2678841664237145e+04  2.4593842156109396e+04  3.0453414144746221e+04  2.7739999988366933e+04  2.6635685850998929e+04  2.2694445158656392e+04  2.3425964152753535e+04  2.8909274922350985e+04  3.1768627876085204e+04  2.1894748805958221e+04  3.2119925099583059e+04  3.2163309871525435e+04  2.2596549866435063e+04  2.2987270277159070e+04  2.4300982389432687e+04  2.2593559480884222e+04  2.2998100556255806e+04  2.9958882967515110e+04  2.8957708308987960e+04  3.3347764204774117e+04  3.1047041521252704e+04  3.3132067492551818e+04  2.7747317286102385e+04  3.0427565334668376e+04  2.4572442050609512e+04  2.4866528290547849e+04  3.0724507240187544e+04  2.7471519169608022e+04  2.8485711508751116e+04  2.5585297439437862e+04  2.6752752779573810e+04  3.3441380481187385e+04  3.2377350093656500e+04  3.1388972212951598e+04  2.4148670723452658e+04  2.1886214570588440e+04  3.1006820230148707e+04  2.2047137374116723e+04  3.329152685