<?xml version="1.0"?>
<VTKFile type="UnstructuredGrid"  version="0.1"  >
<UnstructuredGrid>
<Piece  NumberOfPoints="4408" NumberOfCells="8313">
<Points>
<DataArray  type="Float64"  NumberOfComponents="3"  format="ascii">6 0.1 0  7.1 0.1 0  8 0.1 0  8 0.22 0  7.1 0.22 0  7 0.22 0  6 0.22 0  6.008527131783115 0.1 0  6.01705426356606 0.1 0  6.025581395348834 0.1 0  6.034108527131772 0.1 0  6.042635658914882 0.1 0  6.051162790697997 0.1 0  6.059689922480948 0.1 0  6.068217054263728 0.1 0  6.07674418604666 0.1 0  6.085271317829764 0.1 0  6.093798449612879 0.1 0  6.102325581395837 0.1 0  6.110852713178624 0.1 0  6.11937984496155 0.1 0  6.127906976744646 0.1 0  6.136434108527761 0.1 0  6.144961240310725 0.1 0  6.15348837209352 0.1 0  6.162015503876439 0.1 0  6.170542635659528 0.1 0  6.179069767442498 0.1 0  6.187596899225297 0.1 0  6.196124031008068 0.1 0  6.20465116279098 0.1 0  6.213178294574063 0.1 0  6.221705426357039 0.1 0  6.230232558139845 0.1 0  6.238759689922617 0.1 0  6.247286821705522 0.1 0  6.255813953488598 0.1 0  6.264341085271582 0.1 0  6.272868217054394 0.1 0  6.281395348837165 0.1 0  6.289922480620064 0.1 0  6.298449612403133 0.1 0  6.306976744186123 0.1 0  6.315503875968942 0.1 0  6.324031007751714 0.1 0  6.332558139534606 0.1 0  6.341085271317668 0.1 0  6.349612403100665 0.1 0  6.358139534883491 0.1 0  6.366666666666262 0.1 0  6.375193798449147 0.1 0  6.383720930232204 0.1 0  6.392248062015207 0.1 0  6.400775193798039 0.1 0  6.409302325580811 0.1 0  6.417829457363689 0.1 0  6.426356589146739 0.1 0  6.434883720929749 0.1 0  6.443410852712588 0.1 0  6.451937984495359 0.1 0  6.460465116278231 0.1 0  6.468992248061274 0.1 0  6.47751937984429 0.1 0  6.486046511627137 0.1 0  6.494573643409908 0.1 0  6.503100775192773 0.1 0  6.511627906975716 0.1 0  6.520155038758567 0.1 0  6.528682170541338 0.1 0  6.53720930232411 0.1 0  6.545736434106968 0.1 0  6.554263565889997 0.1 0  6.562790697673027 0.1 0  6.571317829455887 0.1 0  6.57984496123874 0.1 0  6.588372093021763 0.1 0  6.596899224804878 0.1 0  6.605426356587916 0.1 0  6.613953488370782 0.1 0  6.622480620153628 0.1 0  6.631007751936646 0.1 0  6.639534883719688 0.1 0  6.64806201550256 0.1 0  6.656589147285331 0.1 0  6.66511627906817 0.1 0  6.673643410851181 0.1 0  6.682170542634229 0.1 0  6.690697674417108 0.1 0  6.699224806199942 0.1 0  6.707751937982947 0.1 0  6.716279069766062 0.1 0  6.724806201549118 0.1 0  6.733333333332004 0.1 0  6.741860465114831 0.1 0  6.750387596897829 0.1 0  6.758914728680944 0.1 0  6.767441860464007 0.1 0  6.775968992246899 0.1 0  6.78449612402972 0.1 0  6.793023255812711 0.1 0  6.801550387595826 0.1 0  6.810077519378895 0.1 0  6.818604651161794 0.1 0  6.827131782944608 0.1 0  6.835658914727593 0.1 0  6.844186046510708 0.1 0  6.852713178293785 0.1 0  6.86124031007669 0.1 0  6.869767441859497 0.1 0  6.878294573642475 0.1 0  6.88682170542559 0.1 0  6.895348837208672 0.1 0  6.903875968991585 0.1 0  6.912403100774386 0.1 0  6.920930232557357 0.1 0  6.929457364340472 0.1 0  6.937984496123562 0.1 0  6.946511627906481 0.1 0  6.955038759689274 0.1 0  6.963565891472238 0.1 0  6.972093023255354 0.1 0  6.980620155038451 0.1 0  6.989147286821376 0.1 0  6.997674418604163 0.1 0  7.006201550387121 0.1 0  7.014728682170236 0.1 0  7.023255813953339 0.1 0  7.031782945736271 0.1 0  7.040310077519051 0.1 0  7.048837209302002 0.1 0  7.057364341085117 0.1 0  7.065891472868227 0.1 0  7.074418604651166 0.1 0  7.08294573643394 0.1 0  7.091472868216885 0.1 0  7.111392405063206 0.1 0  7.122784810126584 0.1 0  7.134177215189814 0.1 0  7.145569620252996 0.1 0  7.156962025316374 0.1 0  7.168354430379628 0.1 0  7.179746835442786 0.1 0  7.191139240506164 0.1 0  7.202531645569443 0.1 0  7.213924050632575 0.1 0  7.225316455695954 0.1 0  7.236708860759257 0.1 0  7.248101265822365 0.1 0  7.259493670885744 0.1 0  7.270886075949071 0.1 0  7.282278481012169 0.1 0  7.293670886075534 0.1 0  7.305063291138885 0.1 0  7.316455696201983 0.1 0  7.327848101265324 0.1 0  7.339240506328699 0.1 0  7.350632911391798 0.1 0  7.362025316455115 0.1 0  7.373417721518494 0.1 0  7.384810126581612 0.1 0  7.396202531644905 0.1 0  7.407594936708154 0.1 0  7.418987341771317 0.1 0  7.430379746834695 0.1 0  7.441772151897969 0.1 0  7.453164556961106 0.1 0  7.464556962024485 0.1 0  7.475949367087783 0.1 0  7.487341772150897 0.1 0  7.498734177214275 0.1 0  7.510126582277597 0.1 0  7.521518987340695 0.1 0  7.532911392404065 0.1 0  7.544303797467411 0.1 0  7.55569620253051 0.1 0  7.567088607593855 0.1 0  7.578481012657234 0.1 0  7.589873417720614 0.1 0  7.601265822783993 0.1 0  7.612658227847371 0.1 0  7.62405063291075 0.1 0  7.635443037974129 0.1 0  7.646835443037508 0.1 0  7.658227848100887 0.1 0  7.669620253164266 0.1 0  7.681012658227645 0.1 0  7.692405063291024 0.1 0  7.703797468354402 0.1 0  7.715189873417781 0.1 0  7.72658227848116 0.1 0  7.73797468354454 0.1 0  7.749367088607919 0.1 0  7.760759493671297 0.1 0  7.772151898734676 0.1 0  7.783544303798018 0.1 0  7.794936708861115 0.1 0  7.806329113924466 0.1 0  7.817721518987832 0.1 0  7.82911392405093 0.1 0  7.840506329114256 0.1 0  7.851898734177635 0.1 0  7.863291139240744 0.1 0  7.874683544304045 0.1 0  7.886075949367425 0.1 0  7.897468354430558 0.1 0  7.908860759493836 0.1 0  7.920253164557215 0.1 0  7.931645569620372 0.1 0  7.943037974683626 0.1 0  7.954430379747005 0.1 0  7.965822784810186 0.1 0  7.977215189873416 0.1 0  7.988607594936794 0.1 0  8 0.1079999999999785 0  8 0.1159999999999675 0  8 0.1239999999999376 0  8 0.1319999999999082 0  8 0.1399999999998952 0  8 0.1479999999998634 0  8 0.155999999999838 0  8 0.1639999999998355 0  8 0.1719999999998709 0  8 0.1799999999998969 0  8 0.1879999999999114 0  8 0.1959999999999306 0  8 0.2039999999999588 0  8 0.2119999999999714 0  7.988607594936794 0.22 0  7.977215189873416 0.22 0  7.965822784810186 0.22 0  7.954430379747004 0.22 0  7.943037974683626 0.22 0  7.931645569620372 0.22 0  7.920253164557214 0.22 0  7.908860759493836 0.22 0  7.897468354430557 0.22 0  7.886075949367425 0.22 0  7.874683544304045 0.22 0  7.863291139240743 0.22 0  7.851898734177635 0.22 0  7.840506329114255 0.22 0  7.829113924050929 0.22 0  7.817721518987831 0.22 0  7.806329113924465 0.22 0  7.794936708861115 0.22 0  7.783544303798017 0.22 0  7.772151898734675 0.22 0  7.7607594936713 0.22 0  7.749367088608202 0.22 0  7.737974683544885 0.22 0  7.726582278481506 0.22 0  7.715189873418388 0.22 0  7.703797468355095 0.22 0  7.692405063291845 0.22 0  7.681012658228683 0.22 0  7.669620253165305 0.22 0  7.65822784810203 0.22 0  7.646835443038894 0.22 0  7.635443037975515 0.22 0  7.624050632912216 0.22 0  7.612658227849103 0.22 0  7.601265822785725 0.22 0  7.589873417722402 0.22 0  7.578481012659305 0.22 0  7.567088607595934 0.22 0  7.555696202532588 0.22 0  7.54430379746949 0.22 0  7.532911392406144 0.22 0  7.521518987342765 0.22 0  7.510126582279386 0.22 0  7.498734177216007 0.22 0  7.487341772152629 0.22 0  7.47594936708925 0.22 0  7.46455696202587 0.22 0  7.453164556962491 0.22 0  7.441772151899112 0.22 0  7.430379746835734 0.22 0  7.418987341772355 0.22 0  7.407594936708976 0.22 0  7.396202531645597 0.22 0  7.384810126582218 0.22 0  7.373417721518839 0.22 0  7.36202531645546 0.22 0  7.350632911392081 0.22 0  7.339240506328703 0.22 0  7.327848101265324 0.22 0  7.316455696201982 0.22 0  7.305063291138884 0.22 0  7.293670886075533 0.22 0  7.282278481012168 0.22 0  7.27088607594907 0.22 0  7.259493670885743 0.22 0  7.248101265822365 0.22 0  7.236708860759256 0.22 0  7.225316455695954 0.22 0  7.213924050632575 0.22 0  7.202531645569442 0.22 0  7.191139240506164 0.22 0  7.179746835442785 0.22 0  7.168354430379628 0.22 0  7.156962025316374 0.22 0  7.145569620252995 0.22 0  7.134177215189814 0.22 0  7.122784810126584 0.22 0  7.111392405063206 0.22 0  7.097435897435684 0.22 0  7.094871794871715 0.22 0  7.092307692307371 0.22 0  7.089743589743082 0.22 0  7.087179487179113 0.22 0  7.084615384614744 0.22 0  7.082051282050655 0.22 0  7.079487179486859 0.22 0  7.076923076922809 0.22 0  7.074358974358748 0.22 0  7.071794871794951 0.22 0  7.069230769230876 0.22 0  7.06666666666684 0.22 0  7.064102564103035 0.22 0  7.061538461538942 0.22 0  7.058974358974585 0.22 0  7.056410256410616 0.22 0  7.053846153846314 0.22 0  7.051282051281984 0.22 0  7.048717948718015 0.22 0  7.046153846153686 0.22 0  7.043589743589383 0.22 0  7.041025641025414 0.22 0  7.038461538461058 0.22 0  7.035897435896964 0.22 0  7.03333333333316 0.22 0  7.030769230769124 0.22 0  7.028205128205048 0.22 0  7.025641025641252 0.22 0  7.023076923077189 0.22 0  7.02051282051314 0.22 0  7.017948717949345 0.22 0  7.015384615385256 0.22 0  7.012820512820887 0.22 0  7.010256410256917 0.22 0  7.007692307692628 0.22 0  7.005128205128285 0.22 0  7.002564102564316 0.22 0  6.991735537190083 0.22 0  6.983471074380165 0.22 0  6.975206611570248 0.22 0  6.966942148760331 0.22 0  6.958677685950414 0.22 0  6.950413223140496 0.22 0  6.942148760330578 0.22 0  6.933884297520661 0.22 0  6.925619834710743 0.22 0  6.917355371900826 0.22 0  6.909090909090909 0.22 0  6.900826446280992 0.22 0  6.892561983471074 0.22 0  6.884297520661157 0.22 0  6.87603305785124 0.22 0  6.867768595041323 0.22 0  6.859504132231405 0.22 0  6.851239669421488 0.22 0  6.842975206611571 0.22 0  6.834710743801653 0.22 0  6.826446280991735 0.22 0  6.818181818181818 0.22 0  6.809917355371901 0.22 0  6.801652892561983 0.22 0  6.793388429752066 0.22 0  6.785123966942149 0.22 0  6.776859504132231 0.22 0  6.768595041322314 0.22 0  6.760330578512397 0.22 0  6.75206611570248 0.22 0  6.743801652892562 0.22 0  6.735537190082645 0.22 0  6.727272727272728 0.22 0  6.71900826446281 0.22 0  6.710743801652892 0.22 0  6.702479338842975 0.22 0  6.694214876033058 0.22 0  6.68595041322314 0.22 0  6.677685950413223 0.22 0  6.669421487603306 0.22 0  6.661157024793388 0.22 0  6.652892561983471 0.22 0  6.644628099173554 0.22 0  6.636363636363637 0.22 0  6.628099173553719 0.22 0  6.619834710743802 0.22 0  6.611570247933884 0.22 0  6.603305785123966 0.
[...]
<PointData  Scalars="pressure"> 
<DataArray  type="Float64"  Name="pressure"  format="ascii">2.1800000048952428e+04  3.3789951790569241e+04  4.3599964354615404e+04  4.3599964354615498e+04  3.3789692824378079e+04  3.2699150735386476e+04  2.1800000066743378e+04  2.1892944260647633e+04  2.1985888619178379e+04  2.2078832676136364e+04  2.2171777227032348e+04  2.2264721140081980e+04  2.2357665619210919e+04  2.2450609837248237e+04  2.2543554193332402e+04  2.2636497934311334e+04  2.2729442876573798e+04  2.2822386766555879e+04  2.2915331259378538e+04  2.3008274995326803e+04  2.3101219581140216e+04  2.3194163903348337e+04  2.3287107663127241e+04  2.3380052543558439e+04  2.3472996557729872e+04  2.3565940870494527e+04  2.3658884733316088e+04  2.3751829535278648e+04  2.3844773475266924e+04  2.3937717539358600e+04  2.4030661995676019e+04  2.4123606084554598e+04  2.4216550265226175e+04  2.4309494963000539e+04  2.4402438915654784e+04  2.4495383069657586e+04  2.4588327438115652e+04  2.4681271752745008e+04  2.4774216149266558e+04  2.4867159815465391e+04  2.4960104387050549e+04  2.5053048838633698e+04  2.5145992981589967e+04  2.5238937254533659e+04  2.5331881075693153e+04  2.5424825879996475e+04  2.5517770098205656e+04  2.5610713823901442e+04  2.5703658542701312e+04  2.5796602313059764e+04  2.5889546849355309e+04  2.5982491241185497e+04  2.6075434933616707e+04  2.6168379565074367e+04  2.6261323971472248e+04  2.6354267893735119e+04  2.6447212316656398e+04  2.6540156528985324e+04  2.6633100868205725e+04  2.6726044687182875e+04  2.6818989184097758e+04  2.6911933668091911e+04  2.7004877864680162e+04  2.7097821552629990e+04  2.7190766377373991e+04  2.7283710481633676e+04  2.7376654815234320e+04  2.7469599009508227e+04  2.7562543095118512e+04  2.7655487639166455e+04  2.7748431542826180e+04  2.7841376141478366e+04  2.7934319994805217e+04  2.8027264552716024e+04  2.8120208527773080e+04  2.8213152767325006e+04  2.8306097251062500e+04  2.8399041527563117e+04  2.8491985351089003e+04  2.8584930225785054e+04  2.8677873822324131e+04  2.8770818438020291e+04  2.8863762802753605e+04  2.8956706492166220e+04  2.9049651261759042e+04  2.9142595282165592e+04  2.9235539478234419e+04  2.9328483818407825e+04  2.9421428087697528e+04  2.9514372285346330e+04  2.9607316650278313e+04  2.9700260753030150e+04  2.9793204869883237e+04  2.9886149510773226e+04  2.9979093835664462e+04  3.0072037938829289e+04  3.0164982048866652e+04  3.0257926567046841e+04  3.0350871092846148e+04  3.0443815096977487e+04  3.0536759560656606e+04  3.0629703823893331e+04  3.0722648404477633e+04  3.0815592779669641e+04  3.0908537503749409e+04  3.1001481654397936e+04  3.1094427188533493e+04  3.1187371144732799e+04  3.1280316772219936e+04  3.1373261099559160e+04  3.1466206797270464e+04  3.1559152150164831e+04  3.1652097757922773e+04  3.1745043653808538e+04  3.1837990883235241e+04  3.1930937212372806e+04  3.2023885199207347e+04  3.2116832664000987e+04  3.2209781632620758e+04  3.2302730906539873e+04  3.2395680418593511e+04  3.2488631568068558e+04  3.2581582578971764e+04  3.2674534498952715e+04  3.2767487046682127e+04  3.2860439447833211e+04  3.2953392642912760e+04  3.3046345164638340e+04  3.3139297833665703e+04  3.3232250183920973e+04  3.3325201874493141e+04  3.3418153236640239e+04  3.3511103738144986e+04  3.3604053758062408e+04  3.3697002869795047e+04  3.3914132008460816e+04  3.4038311653553625e+04  3.4162490619854812e+04  3.4286669186577856e+04  3.4410847319615728e+04  3.4535025285053853e+04  3.4659203028573764e+04  3.4783380665131204e+04  3.4907558216768950e+04  3.5031735682323764e+04  3.5155913073977114e+04  3.5280090450992182e+04  3.5404267771543717e+04  3.5528445077444943e+04  3.5652622359559362e+04  3.5776799628964851e+04  3.5900976884582975e+04  3.6025154131288640e+04  3.6149331369226216e+04  3.6273508602289694e+04  3.6397685831345516e+04  3.6521863056818038e+04  3.6646040280131929e+04  3.6770217501234169e+04  3.6894394720810713e+04  3.7018571939368594e+04  3.7142749157129321e+04  3.7266926374213428e+04  3.7391103590885810e+04  3.7515280807142306e+04  3.7639458023122577e+04  3.7763635238922070e+04  3.7887812454550571e+04  3.8011989670085088e+04  3.8136166885523613e+04  3.8260344100904942e+04  3.8384521316228303e+04  3.8508698531523558e+04  3.8632875746789003e+04  3.8757052962035727e+04  3.8881230177268008e+04  3.9005407392490510e+04  3.9129584607704077e+04  3.9253761822912435e+04  3.9377939038115925e+04  3.9502116253316322e+04  3.9626293468513999e+04  3.9750470683709966e+04  3.9874647898904579e+04  3.9998825114098203e+04  4.0123002329291259e+04  4.0247179544483399e+04  4.0371356759675356e+04  4.0495533974866885e+04  4.0619711190058355e+04  4.0743888405249563e+04  4.0868065620440873e+04  4.0992242835631681e+04  4.1116420050822613e+04  4.1240597266013421e+04  4.1364774481201217e+04  4.1488951696392069e+04  4.1613128911582549e+04  4.1737306126770236e+04  4.1861483341960586e+04  4.1985660557151459e+04  4.2109837772339532e+04  4.2234014987529590e+04  4.2358192202720456e+04  4.2482369417908681e+04  4.2606546633098304e+04  4.2730723848289264e+04  4.2854901063478152e+04  4.2979078278667512e+04  4.3103255493857861e+04  4.3227432709046319e+04  4.3351609924235570e+04  4.3475787139426648e+04  4.3599964354615411e+04  4.3599964354615106e+04  4.3599964354615164e+04  4.3599964354615346e+04  4.3599964354615113e+04  4.3599964354615280e+04  4.3599964354615404e+04  4.3599964354615411e+04  4.3599964354615346e+04  4.3599964354615135e+04  4.3599964354615346e+04  4.3599964354615171e+04  4.3599964354615186e+04  4.3599964354615673e+04  4.3475787139426488e+04  4.3351609924235658e+04  4.3227432709046290e+04  4.3103255493857752e+04  4.2979078278667439e+04  4.2854901063477730e+04  4.2730723848288930e+04  4.2606546633097969e+04  4.2482369417908340e+04  4.2358192202720267e+04  4.2234014987529430e+04  4.2109837772339401e+04  4.1985660557151517e+04  4.1861483341960840e+04  4.1737306126770796e+04  4.1613128911582906e+04  4.1488951696392345e+04  4.1364774481201785e+04  4.1240597266014098e+04  4.1116420050824032e+04  4.0992242835633369e+04  4.0868065620446112e+04  4.0743888405256104e+04  4.0619711190065733e+04  4.0495533974878374e+04  4.0371356759689152e+04  4.0247179544500970e+04  4.0123002329314331e+04  3.9998825114125400e+04  3.9874647898938558e+04  3.9750470683754211e+04  3.9626293468568460e+04  3.9502116253385895e+04  3.9377939038207041e+04  3.9253761823029112e+04  3.9129584607856064e+04  3.9005407392691508e+04  3.8881230177531535e+04  3.8757052962385183e+04  3.8632875747253544e+04  3.8508698532140450e+04  3.8384521317052546e+04  3.8260344101999115e+04  3.8136166886993109e+04  3.8011989672060859e+04  3.7887812457202468e+04  3.7763635242465811e+04  3.7639458027874789e+04  3.7515280813476871e+04  3.7391103599356742e+04  3.7266926385635066e+04  3.7142749172346288e+04  3.7018571959732973e+04  3.6894394747902305e+04  3.6770217537098957e+04  3.6646040327810246e+04  3.6521863120731694e+04  3.6397685915692899e+04  3.6273508714465373e+04  3.6149331517611761e+04  3.6025154324800569e+04  3.5900977140272698e+04  3.5776799965129132e+04  3.5652622803672632e+04  3.5528445653934454e+04  3.5404268524064144e+04  3.5280091409853332e+04  3.5155914343464159e+04  3.5031737285532974e+04  3.4907560267377710e+04  3.4783383302429131e+04  3.4659206345499100e+04  3.4535029320559166e+04  3.4410852233686128e+04  3.4286674592215037e+04  3.4162495822798039e+04  3.4038313897676584e+04  3.3914119574902215e+04  3.3761764405498609e+04  3.3733885273915526e+04  3.3705944151282361e+04  3.3678004336126643e+04  3.3650058942661686e+04  3.3622115757500011e+04  3.3594167998449542e+04  3.3566220575103827e+04  3.3538271729037806e+04  3.3510323407967968e+04  3.3482372481711478e+04  3.3454420806467977e+04  3.3426472367670649e+04  3.3398523008982789e+04  3.3370567985483169e+04  3.3342614361772299e+04  3.3314665294116072e+04  3.3286708435279608e+04  3.3258759356585600e+04  3.3230800252515321e+04  3.3202850605215695e+04  3.3174895817574492e+04  3.3146936846707176e+04  3.3118982909533253e+04  3.3091031359739005e+04  3.3063068772125938e+04  3.3035103764971092e+04  3.3007162084988428e+04  3.2979191954448725e+04  3.2951242476023421e+04  3.2923269595566162e+04  3.2895315592275314e+04  3.2867349205378174e+04  3.2839388136332949e+04  3.2811395844822386e+04  3.2783433022582634e+04  3.2755419307895227e+04  3.2727378402963364e+04  3.2609516807241533e+04  3.2519523158675289e+04  3.2429490190475688e+04  3.2339436293884501e+04  3.2249371701547381e+04  3.2159301609059999e+04  3.2069228673319609e+04  3.1979153965152636e+04  3.1889077396283068e+04  3.1798999298675873e+04  3.1708921360230433e+04  3.1618842363764084e+04  3.1528762374241684e+04  3.1438682884371206e+04  3.1348602684004560e+04  3.1258522388992649e+04  3.1168441821537766e+04  3.1078361362988460e+04  3.0988280397670769e+04  3.0898199799468937e+04  3.0808118410269293e+04  3.0718037572715370e+04  3.0627956851029998e+04  3.0537875836216877e+04  3.0447794567421744e+04  3.0357713203337520e+04  3.0267632260838716e+04  3.0177551642491304e+04  3.0087469701371654e+04  2.9997388996866710e+04  2.9907307832836184e+04  2.9817226395553153e+04  2.9727145339839401e+04  2.9637064236103848e+04  2.9546983012759487e+04  2.9456902075411297e+04  2.9366820341025537e+04  2.9276739388172344e+04  2.9186658479736463e+04  2.9096576964785381e+04  2.9006496085628176e+04  2.8916414346008383e+04  2.8826333851677642e+04  2.8736252258853212e+04  2.8646170772979975e+04  2.8556090222446146e+04  2.8466008436954347e+04  2.8375927664091883e+04  2.8285846497554041e+04  2.8195764737438578e+04  2.8105684087439316e+04  2.8015602584073506e+04  2.7925521831224858e+04  2.7835439976868234e+04  2.7745359294558701e+04  2.7655278101218904e+04  2.7565196515810287e+04  2.7475115698027221e+04  2.7385034220225545e+04  2.7294953112069092e+04  2.7204872237716125e+04  2.7114790433944385e+04  2.7024709700922129e+04  2.6934628525675627e+04  2.6844546938508447e+04  2.6754466123273261e+04  2.6664384563270978e+04  2.6574303851138509e+04  2.6484222083495017e+04  2.6394141333894455e+04  2.6304059881581870e+04  2.6213978883076259e+04  2.6123897802800220e+04  2.6033816028738962e+04  2.5943735373372325e+04  2.5853653982193617e+04  2.5763572713075686e+04  2.5673491819072136e+04  2.5583410197923138e+04  2.5493329411124181e+04  2.5403248231083035e+04  2.5313166439259654e+04  2.5223085797721131e+04  2.5133004398034886e+04  2.5042923126276517e+04  2.4952842210717201e+04  2.4862760635293205e+04  2.4772679879763284e+04  2.4682598563063293e+04  2.4592516998376661e+04  2.4502436208267638e+04  2.4412354920179703e+04  2.4322273923444765e+04  2.4232192312935582e+04  2.4142111128412271e+04  2.4052030279721122e+04  2.3961948316667134e+04  2.3871868062569392e+04  2.3781786379421646e+04  2.3691705433200910e+04  2.3601623814812985e+04  2.3511543216005921e+04  2.3421461678955209e+04  2.3331380178445375e+04  2.3241299558129656e+04  2.3151218312136560e+04  2.3061136502375470e+04  2.2971055948568741e+04  2.2880974645851056e+04  2.2790892984540922e+04  2.2700812207339328e+04  2.2610730869661453e+04  2.2520649576554853e+04  2.2430568785721392e+04  2.2340486971607315e+04  2.2250406119851341e+04  2.2160324877627350e+04  2.2070243736160981e+04  2.1980162480724688e+04  2.1890081145860193e+04  2.1800000005722588e+04  2.1799999998704341e+04  2.1800000000946777e+04  2.1799999998628526e+04  2.1799999999103969e+04  2.1799999997790139e+04  2.1799999998563027e+04  2.1799999999267664e+04  2.1799999999610041e+04  2.1799999999876891e+04  2.1799999999981290e+04  2.1800000000027485e+04  2.1800000000029195e+04  2.1800000000015021e+04  2.1800000000004649e+04  2.1799999999995274e+04  2.1799999999988551e+04  2.1799999999985444e+04  2.1799999999982614e+04  2.1799999999981475e+04  2.1799999999977663e+04  2.1799999999976033e+04  2.1799999999969375e+04  2.1799999999965577e+04  2.1799999999944645e+04  2.1799999999919579e+04  2.1799999999837331e+04  2.1799999999730768e+04  2.1799999999501724e+04  2.1799999999218657e+04  2.1799999998729836e+04  2.1799999998302843e+04  2.1799999998170977e+04  2.1799999997887488e+04  2.1800000000421736e+04  2.1800000001070330e+04  2.1799999994130361e+04  2.1800000017149348e+04  3.2914822574963699e+04  3.3552959465765096e+04  2.2444920284744901e+04  3.3221005943005097e+04  3.3767047132737956e+04  3.2910770507856549e+04  3.3477327164234979e+04  3.2254672399296971e+04  2.2181730129115174e+04  2.2181730134881804e+04  2.3112805613150063e+04  2.4737071394620012e+04  3.0592350113029614e+04  2.7600798827636125e+04  2.8332339266398794e+04  2.9857383575392483e+04  2.4003875236085634e+04  2.5449738811733092e+04  3.1310465872810655e+04  2.6888139586499419e+04  2.9058863006841984e+04  2.6164080464210972e+04  3.2717164826533804e+04  4.2948586377330306e+04  3.3097693106227845e+04  2.2091107141249722e+04  3.3233963043017910e+04  3.4362260960403379e+04  3.1781277646816536e+04  3.3272792502895514e+04  2.3556583475535794e+04  3.5015482764857858e+04  4.1672140555956154e+04  3.5717719338920790e+04  3.8699916725658913e+04  3.6442046677234699e+04  4.0936783478669764e+04  3.7950503122408336e+04  3.9422299839569772e+04  3.7201577266019165e+04  4.0185692995834179e+04  4.2323122752917676e+04  3.3634853554281130e+04  3.2582131250346334e+04  2.9428521692722381e+04  3.2963722514770547e+04  3.2583227666191160e+04  2.7972690593339990e+04  3.0223239669130959e+04  2.4358427280541157e+04  2.5090092467004968e+04  3.0940004723091872e+04  2.7247783654388819e+04  2.8690616174223589e+04  2.5810745898500780e+04  2.6527130373427484e+04  3.3464529978405400e+04  3.3882335996436159e+04  2.9505467525457767e+04  2.7973960221824083e+04  3.0219288987242951e+04  2.4364682885855840e+04  2.5081570655651289e+04  3.0943435483569763e+04  2.7256319041151935e+04  2.8682619218507494e+04  2.5801939715597022e+04  2.6520194556763989e+04  3.3001615031747278e+04  2.3459713787926408e+04  2.2014069278027877e+04  3.1895363887062704e+04  2.2003307698888610e+04  2.2778800521203539e+04  2.2765584610170026e+04  3.3412548641040441e+04  2.1991269649836533e+04  2.1986299483048457e+04  3.3042075249862392e+04  3.1542761448941732e+04  3.3785648613603262e+04  3.3412021734125272e+04  3.2321857203986303e+04  2.3803372859159525e+04  3.2851739607878015e+04  3.1471577836255441e+04  4.3222802374799467e+04  4.3227915263870396e+04  2.3865749356279717e+04  2.3243957685215704e+04  3.2259239968842132e+04  2.9772185979590689e+04  2.9141617674911762e+04  2.9171214373048049e+04  2.2471512274244731e+04  3.3161907511578720e+04  2.4724612206241618e+04  3.0579889121039701e+04  2.7613266264134880e+04  2.8330886911779708e+04  2.5448288628172664e+04  2.6889587772198513e+04  2.6168938177754339e+04  2.2477046468358400e+04  2.6210842064572113e+04  2.3147616680645038e+04  2.9788358089793877e+04  2.6837946888719594e+04  2.5501966293063582e+04  2.8384623590401272e+04  2.7550048855115692e+04  3.0643132790447253e+04  2.4787854837896106e+04  3.3524348058997792e+04  2.1940465420915727e+04  3.2792858147522027e+04  3.9067496000225241e+04  3.9065831235968013e+04  3.6082739792292290e+04  3.6094082997463214e+04  4.1310069816438801e+04  4.1317096615310278e+04  3.8322432708801796e+04  3.6832306119176268e+04  4.0557622582470518e+04  3.7577369416530484e+04  3.9812559291338875e+04  3.8326935792149299e+04  4.0557622582469157e+04  3.7579815864624747e+04  3.6834979394807051e+04  3.9811450362171505e+04  3.2015584856393922e+04  3.1244572510797654e+04  3.5377304814800365e+04  3.5355465905828736e+04  3.3816804492121119e+04  3.4112330279345588e+04  3.4686984270580200e+04  3.4689350215810075e+04  4.1996481400498487e+04  4.2620811526282872e+04  3.3048465949541984e+04  4.2628355405496673e+04  3.3241785771834126e+04  4.1971491960732594e+04  2.4098604989197811e+04  3.3048142954217714e+04  3.1187644156043105e+04  3.3170836577034046e+04  3.2807367049433262e+04  2.1930022372346248e+04  2.1937947718906973e+04  2.4136917245055676e+04  2.1922397639148512e+04  3.4208405438639362e+04  3.3327880186378723e+04  2.3748680811409078e+04  3.3333006868881588e+04  2.1939720205859514e+04  3.1567546160917180e+04  2.8906650108903399e+04  4.3334171363829482e+04  2.9317796579298261e+04  3.3588523062561406e+04  3.3419306134362996e+04  3.3611999140692853e+04  2.3005752937337631e+04  3.2721755126108292e+04  3.3690288033061966e+04  3.3049784539768611e+04  3.0014075299320666e+04  2.8899730937615557e+04  3.1993071548942571e+04  3.1723395623808181e+04  3.3209796143410487e+04  2.3362749749082348e+04  2.2850070363822975e+04  3.2733946355308442e+04  3.2542853268650899e+04  3.3248123786528762e+04  3.2743117837721853e+04  2.1911190000110815e+04  2.7861696302637713e+04  3.0338343139872515e+04  2.4483066573692868e+04  2.4984281409312684e+04  3.0835893392046612e+04  2.7353615425972854e+04  2.8583573328586088e+04  2.5704619160482351e+04  2.6633266702778415e+04  2.9609851864374268e+04  2.3639457155685464e+04  3.3985638066875123e+04  3.3604261384666905e+04  3.0044286356649984e+04  2.4538855003691351e+04  3.0394580804128957e+04  2.7800015290398711e+04  2.8145909775017702e+04  2.5263209474582647e+04  2.7074553035859266e+04  3.4088943032372379e+04  2.1902858274633454e+04  2.5976004239906342e+04  2.1897199321583292e+04  3.8696632662061049e+04  3.5737196158691826e+04  4.1675217519177488e+04  3.5737690642650523e+04  3.8694246863526918e+04  4.0919729328805202e+04  3.6438885630198834e+04  3.7949015326260116e+04  3.9419138820672459e+04  3.7183822193020707e+04  4.0183724133127333e+04  3.9448871161592615e+04  3.7931185326395622e+04  3.6439633007101358e+04  4.0929295322017460e+04  4.0173358419805110e+04  3.7205479190841477e+04  4.1616614733803784e+04  2.2276925001769690e+04  3.3005326900115062e+04  3.5006603790877125e+04  3.5000687240437204e+04  3.4390508231851767e+04  3.3693222837376641e+04  3.2466339804758099e+04  3.3327453462694779e+04  4.2910170407172576e+04  3.1734376248863737e+04  2.9358275154141505e+04  3.2870595371410083e+04  3.2937290885497452e+04  2.7820513002462554e+04  3.0369175114771220e+04  2.4507446057853547e+04  2.4946024197068691e+04  3.0801301438448292e+04  2.7391849840048675e+04  2.8120226715826604e+04  2.5237627395507447e+04  2.7100249176127320e+04  2.8551543748784003e+04  2.5666724923835827e+04  2.6671148766215589e+04  2.5958276189322456e+04  2.6400538915330701e+04  4.2323507273358489e+04  2.2205718188368352e+04  2.6398227120223557e+04  2.5934962749241171e+04  2.8805930137288393e+04  2.7123441827016195e+04  3.1065314749931844e+04  2.5214443688895612e+04  2.4251516337092686e+04  3.0106139024697095e+04  2.8087012527674095e+04  4.2296397561168116e+04  2.3603371783123821e+04  4.2928169702208077e+04  3.3054306391633094e+04  2.9377451538183002e+04  3.2052504912123248e+04  2.2244388510424124e+04  3.2465090430910797e+04  2.2284957051781726e+04  3.2767023248452118e+04  2.2928189802152767e+04  2.8196895361611954e+04  2.5312841972930062e+04  2.6036648700012895e+04  2.7025050368902892e+04  2.9997015036027296e+04  3.2906694753475000e+04  2.6418780373619076e+04  2.9599368468682496e+04  2.3351900980088340e+04  2.5697413935318706e+04  2.8569609659274745e+04  2.4984772861773203e+04  3.0842606065760341e+04  2.7352924871689014e+04  2.1902130641113963e+04  2.9574538836488617e+04  2.2678824225716507e+04  2.4593786482368971e+04  3.0453240706522811e+04  2.7739881424287978e+04  2.6635589334958644e+04  2.2694427405233262e+04  2.3425931791551506e+04  2.8909132928210816e+04  3.1768429170352694e+04  2.1894746929112040e+04  3.2119722426884589e+04  3.2163107559116015e+04  2.2596534049036669e+04  2.2987246678697651e+04  2.4300932581963432e+04  2.2593543727013683e+04  2.2998076740433786e+04  2.9958720437015021e+04  2.8957565506527855e+04  3.3347626711500576e+04  3.1046855121899232e+04  3.3131916713486557e+04  2.7747198594571015e+04  3.0427393738443261e+04  2.4572386807784198e+04  2.4866467167340750e+04  3.0724330054041104e+04  2.7471405985251033e+04  2.8485578085044006e+04  2.5585221945337144e+04  2.6752653943657333e+04  3.3441174702708217e+04  3.2377146323810841e+04  3.1388778988139544e+04  2.4148623927175351e+04  2.1886212862073600e+04  3.1006638531040822e+04  2.2047132480967080e+04  3.329136593