<?xml version="1.0"?>
<VTKFile type="UnstructuredGrid"  version="0.1"  >
<UnstructuredGrid>
<Piece  NumberOfPoints="8545" NumberOfCells="16538">
<Points>
<DataArray  type="Float64"  NumberOfComponents="3"  format="ascii">0 0 0  2 0 0  2 0.2 0  0 0.2 0  0.007999999999984813 0 0  0.01599999999996964 0 0  0.02399999999995461 0 0  0.03199999999993959 0 0  0.03999999999992457 0 0  0.04799999999990945 0 0  0.05599999999989373 0 0  0.06399999999987775 0 0  0.07199999999986065 0 0  0.07999999999984338 0 0  0.08799999999982558 0 0  0.09599999999980778 0 0  0.10399999999979 0 0  0.1119999999997726 0 0  0.1199999999997562 0 0  0.1279999999997408 0 0  0.1359999999997272 0 0  0.1439999999997141 0 0  0.1519999999997019 0 0  0.1599999999996896 0 0  0.1679999999996774 0 0  0.1759999999996651 0 0  0.1839999999996529 0 0  0.1919999999996407 0 0  0.1999999999996284 0 0  0.2079999999996162 0 0  0.2159999999996039 0 0  0.2239999999995916 0 0  0.2319999999995794 0 0  0.2399999999995652 0 0  0.2479999999995501 0 0  0.2559999999995309 0 0  0.2639999999995103 0 0  0.2719999999994875 0 0  0.2799999999994642 0 0  0.2879999999994408 0 0  0.2959999999994175 0 0  0.3039999999993941 0 0  0.3119999999993708 0 0  0.3199999999993474 0 0  0.3279999999993241 0 0  0.3359999999993007 0 0  0.3439999999992774 0 0  0.351999999999254 0 0  0.3599999999992307 0 0  0.3679999999992074 0 0  0.375999999999184 0 0  0.3839999999991606 0 0  0.3919999999991373 0 0  0.3999999999991139 0 0  0.4079999999990906 0 0  0.4159999999990672 0 0  0.4239999999990439 0 0  0.4319999999990204 0 0  0.4399999999989971 0 0  0.4479999999989738 0 0  0.4559999999989504 0 0  0.463999999998927 0 0  0.4719999999989037 0 0  0.4799999999988804 0 0  0.487999999998857 0 0  0.4959999999988337 0 0  0.5039999999988103 0 0  0.511999999998787 0 0  0.5199999999987636 0 0  0.5279999999987403 0 0  0.5359999999987169 0 0  0.5439999999986936 0 0  0.5519999999986703 0 0  0.559999999998647 0 0  0.5679999999986237 0 0  0.5759999999986004 0 0  0.583999999998577 0 0  0.5919999999985537 0 0  0.5999999999985304 0 0  0.6079999999985071 0 0  0.6159999999984838 0 0  0.6239999999984605 0 0  0.6319999999984371 0 0  0.6399999999984138 0 0  0.6479999999983904 0 0  0.6559999999983671 0 0  0.6639999999983438 0 0  0.6719999999983205 0 0  0.6799999999982972 0 0  0.6879999999982739 0 0  0.6959999999982506 0 0  0.7039999999982272 0 0  0.7119999999982038 0 0  0.7199999999981805 0 0  0.7279999999981572 0 0  0.7359999999981339 0 0  0.7439999999981106 0 0  0.7519999999980873 0 0  0.759999999998064 0 0  0.7679999999980406 0 0  0.7759999999980173 0 0  0.783999999997994 0 0  0.7919999999979707 0 0  0.7999999999979474 0 0  0.807999999997924 0 0  0.8159999999979007 0 0  0.8239999999978773 0 0  0.831999999997854 0 0  0.8399999999978307 0 0  0.8479999999978074 0 0  0.855999999997784 0 0  0.8639999999977607 0 0  0.8719999999977374 0 0  0.8799999999977141 0 0  0.8879999999976906 0 0  0.8959999999976673 0 0  0.903999999997644 0 0  0.9119999999976207 0 0  0.9199999999975974 0 0  0.9279999999975741 0 0  0.9359999999975508 0 0  0.9439999999975274 0 0  0.9519999999975041 0 0  0.9599999999974808 0 0  0.9679999999974574 0 0  0.9759999999974341 0 0  0.9839999999974108 0 0  0.9919999999973981 0 0  0.9999999999973858 0 0  1.007999999997396 0 0  1.015999999997406 0 0  1.023999999997427 0 0  1.031999999997449 0 0  1.039999999997469 0 0  1.04799999999749 0 0  1.055999999997512 0 0  1.063999999997533 0 0  1.071999999997554 0 0  1.079999999997575 0 0  1.087999999997596 0 0  1.095999999997617 0 0  1.103999999997638 0 0  1.111999999997659 0 0  1.11999999999768 0 0  1.127999999997702 0 0  1.135999999997722 0 0  1.143999999997744 0 0  1.151999999997765 0 0  1.159999999997786 0 0  1.167999999997807 0 0  1.175999999997828 0 0  1.183999999997849 0 0  1.19199999999787 0 0  1.199999999997891 0 0  1.207999999997912 0 0  1.215999999997933 0 0  1.223999999997955 0 0  1.231999999997976 0 0  1.239999999997997 0 0  1.247999999998018 0 0  1.255999999998039 0 0  1.26399999999806 0 0  1.271999999998081 0 0  1.279999999998102 0 0  1.287999999998123 0 0  1.295999999998144 0 0  1.303999999998166 0 0  1.311999999998186 0 0  1.319999999998208 0 0  1.327999999998229 0 0  1.33599999999825 0 0  1.343999999998271 0 0  1.351999999998292 0 0  1.359999999998313 0 0  1.367999999998334 0 0  1.375999999998355 0 0  1.383999999998376 0 0  1.391999999998397 0 0  1.399999999998418 0 0  1.40799999999844 0 0  1.41599999999846 0 0  1.423999999998482 0 0  1.431999999998503 0 0  1.439999999998524 0 0  1.447999999998545 0 0  1.455999999998566 0 0  1.463999999998587 0 0  1.471999999998608 0 0  1.479999999998629 0 0  1.48799999999865 0 0  1.495999999998672 0 0  1.503999999998693 0 0  1.511999999998714 0 0  1.519999999998735 0 0  1.527999999998756 0 0  1.535999999998777 0 0  1.543999999998798 0 0  1.551999999998819 0 0  1.55999999999884 0 0  1.567999999998861 0 0  1.575999999998882 0 0  1.583999999998904 0 0  1.591999999998924 0 0  1.599999999998946 0 0  1.607999999998967 0 0  1.615999999998988 0 0  1.623999999999009 0 0  1.63199999999903 0 0  1.639999999999051 0 0  1.647999999999072 0 0  1.655999999999093 0 0  1.663999999999114 0 0  1.671999999999136 0 0  1.679999999999157 0 0  1.687999999999177 0 0  1.695999999999199 0 0  1.70399999999922 0 0  1.711999999999241 0 0  1.719999999999262 0 0  1.727999999999283 0 0  1.735999999999304 0 0  1.743999999999325 0 0  1.751999999999346 0 0  1.759999999999367 0 0  1.767999999999389 0 0  1.775999999999409 0 0  1.783999999999431 0 0  1.791999999999452 0 0  1.799999999999473 0 0  1.807999999999494 0 0  1.815999999999515 0 0  1.823999999999536 0 0  1.831999999999557 0 0  1.839999999999578 0 0  1.847999999999599 0 0  1.85599999999962 0 0  1.863999999999641 0 0  1.871999999999663 0 0  1.879999999999684 0 0  1.887999999999705 0 0  1.895999999999726 0 0  1.903999999999747 0 0  1.911999999999768 0 0  1.919999999999789 0 0  1.92799999999981 0 0  1.935999999999831 0 0  1.943999999999853 0 0  1.951999999999873 0 0  1.959999999999895 0 0  1.967999999999916 0 0  1.975999999999937 0 0  1.983999999999958 0 0  1.991999999999979 0 0  2 0.007999999999985056 0  2 0.01599999999997076 0  2 0.02399999999995914 0  2 0.03199999999993772 0  2 0.03999999999991205 0  2 0.04799999999988908 0  2 0.05599999999986612 0  2 0.06399999999984315 0  2 0.07199999999982019 0  2 0.07999999999979179 0  2 0.08799999999976883 0  2 0.09599999999974587 0  2 0.1039999999997452 0  2 0.1119999999997669 0  2 0.1199999999997886 0  2 0.1279999999998103 0  2 0.135999999999832 0  2 0.1439999999998537 0  2 0.1519999999998738 0  2 0.1599999999998949 0  2 0.1679999999999159 0  2 0.175999999999937 0  2 0.183999999999958 0  2 0.191999999999979 0  1.991999999999967 0.2 0  1.983999999999933 0.2 0  1.9759999999999 0.2 0  1.967999999999867 0.2 0  1.959999999999834 0.2 0  1.9519999999998 0.2 0  1.943999999999767 0.2 0  1.935999999999734 0.2 0  1.9279999999997 0.2 0  1.919999999999667 0.2 0  1.911999999999634 0.2 0  1.9039999999996 0.2 0  1.895999999999567 0.2 0  1.887999999999534 0.2 0  1.879999999999501 0.2 0  1.871999999999467 0.2 0  1.863999999999434 0.2 0  1.855999999999401 0.2 0  1.847999999999367 0.2 0  1.839999999999334 0.2 0  1.831999999999301 0.2 0  1.823999999999268 0.2 0  1.815999999999234 0.2 0  1.807999999999201 0.2 0  1.799999999999168 0.2 0  1.791999999999135 0.2 0  1.783999999999101 0.2 0  1.775999999999068 0.2 0  1.767999999999035 0.2 0  1.759999999999017 0.2 0  1.751999999999006 0.2 0  1.743999999999028 0.2 0  1.735999999999061 0.2 0  1.727999999999112 0.2 0  1.719999999999168 0.2 0  1.711999999999223 0.2 0  1.703999999999279 0.2 0  1.695999999999334 0.2 0  1.68799999999939 0.2 0  1.679999999999446 0.2 0  1.671999999999501 0.2 0  1.663999999999557 0.2 0  1.655999999999612 0.2 0  1.647999999999668 0.2 0  1.639999999999723 0.2 0  1.631999999999779 0.2 0  1.623999999999834 0.2 0  1.61599999999989 0.2 0  1.607999999999945 0.2 0  1.600000000000001 0.2 0  1.592000000000056 0.2 0  1.584000000000112 0.2 0  1.576000000000167 0.2 0  1.568000000000223 0.2 0  1.560000000000279 0.2 0  1.552000000000334 0.2 0  1.54400000000039 0.2 0  1.536000000000445 0.2 0  1.528000000000501 0.2 0  1.520000000000556 0.2 0  1.512000000000612 0.2 0  1.504000000000667 0.2 0  1.496000000000723 0.2 0  1.488000000000778 0.2 0  1.480000000000834 0.2 0  1.472000000000889 0.2 0  1.464000000000945 0.2 0  1.456000000001 0.2 0  1.448000000001056 0.2 0  1.440000000001112 0.2 0  1.432000000001167 0.2 0  1.424000000001223 0.2 0  1.416000000001278 0.2 0  1.408000000001334 0.2 0  1.400000000001389 0.2 0  1.392000000001445 0.2 0  1.3840000000015 0.2 0  1.376000000001556 0.2 0  1.368000000001611 0.2 0  1.360000000001667 0.2 0  1.352000000001722 0.2 0  1.344000000001778 0.2 0  1.336000000001833 0.2 0  1.328000000001889 0.2 0  1.320000000001944 0.2 0  1.312000000002 0.2 0  1.304000000002055 0.2 0  1.296000000002111 0.2 0  1.288000000002166 0.2 0  1.280000000002222 0.2 0  1.272000000002277 0.2 0  1.264000000002333 0.2 0  1.256000000002388 0.2 0  1.248000000002444 0.2 0  1.240000000002499 0.2 0  1.232000000002555 0.2 0  1.22400000000261 0.2 0  1.216000000002666 0.2 0  1.208000000002721 0.2 0  1.200000000002777 0.2 0  1.192000000002832 0.2 0  1.184000000002888 0.2 0  1.176000000002943 0.2 0  1.168000000002999 0.2 0  1.160000000003054 0.2 0  1.15200000000311 0.2 0  1.144000000003165 0.2 0  1.136000000003221 0.2 0  1.128000000003276 0.2 0  1.120000000003332 0.2 0  1.112000000003387 0.2 0  1.104000000003443 0.2 0  1.096000000003498 0.2 0  1.088000000003554 0.2 0  1.080000000003609 0.2 0  1.072000000003665 0.2 0  1.06400000000372 0.2 0  1.056000000003776 0.2 0  1.048000000003831 0.2 0  1.040000000003887 0.2 0  1.032000000003942 0.2 0  1.024000000003998 0.2 0  1.016000000004053 0.2 0  1.008000000004088 0.2 0  1.000000000004121 0.2 0  0.99200000000411 0.2 0  0.984000000004098 0.2 0  0.9760000000040647 0.2 0  0.9680000000040314 0.2 0  0.9600000000039981 0.2 0  0.9520000000039648 0.2 0  0.9440000000039312 0.2 0  0.9360000000038982 0.2 0  0.928000000003864
[...]
<PointData  Scalars="concentration"> 
<DataArray  type="Float64"  Name="concentration"  format="ascii">1.0000000000000000e+00  -1.3532909651177988e-01  -1.7332521091147751e-01  1.0000000000000000e+00  9.6426834422448515e-01  1.0174062855752866e+00  1.0384375887234374e+00  8.8401725412989174e-01  1.0552813838580781e+00  9.0385036404400076e-01  1.0067512243401378e+00  7.9163762535724769e-01  1.0171023171703484e+00  9.4307220095586308e-01  1.1482789633038915e+00  1.0753094068908602e+00  1.0012824082420262e+00  1.1588137377446710e+00  1.2214685800437459e+00  9.5997895156305280e-01  1.0648714256910317e+00  1.4248063560916919e+00  1.0136945116624203e+00  9.0654803251356175e-01  1.1249869727068342e+00  9.6987055482701667e-01  9.2818596546585952e-01  1.4228865090091087e+00  8.6110828839972087e-01  1.3584663544005739e+00  1.3280096783803641e+00  1.9741937764530708e+00  1.1030024639710421e+00  3.0513492698216798e+00  1.1018925675927462e+00  1.5726993784414292e+00  4.7775811926598982e-01  1.1614788383632495e+00  8.6767343428651156e-01  1.0308561574751274e+00  1.1894748869760454e+00  6.9031278987124145e-01  1.0908240528280575e+00  2.4193806773489062e+00  1.8736203666722528e+00  1.6182388362379287e+00  2.1636461133344955e+00  1.0166748078744539e+00  1.3389219257643841e+00  2.2106122558176833e+00  1.5285729042219056e+00  1.2248249450794274e-01  1.4901454437817379e+00  -9.8655928911237489e-01  8.9757263879611215e-01  1.4235952080320466e+00  1.6217412804950215e+00  2.4225726633523989e-01  4.4551612763123349e-01  1.4360434163649367e+00  1.4573393569792672e+00  4.0994525000836990e-01  9.4948987986636613e-01  8.0289859877990988e-01  8.5881174699878304e-01  7.6562697449042882e-01  2.1348219150455758e+00  9.9909941648709200e-01  1.0232059813845225e+00  6.0891642434910320e-01  1.0980974045557015e+00  5.1746602014395426e-01  6.7131547910497968e-01  -1.1144576660795928e-01  6.8897530600239421e-01  5.1270484510205461e-01  1.2057216444678838e+00  7.9405886563893546e-01  1.2306412467678631e+00  1.0744826977775368e+00  8.6171964589306904e-01  1.4189674598719277e+00  1.2861331687633206e+00  7.7280235617933568e-01  9.1219813554193363e-01  1.3014822987841694e+00  2.0957467395490059e-01  1.0225266057771789e+00  6.9728804941417633e-01  1.1871827071048415e+00  1.1174906150673827e+00  1.2366172225855279e+00  1.7583859843644118e+00  9.6457523551628754e-01  3.0736955074788092e-01  1.2648267734077840e+00  1.0393455490748991e+00  8.6113851257714380e-01  1.3688711388870807e+00  -1.0871372193984967e+00  1.1098859716725740e+00  9.8379316643859605e-01  1.3910354915597076e+00  1.2994577939403489e+00  1.3661596143764088e+00  8.6689590526632743e-01  1.1219407878815255e+00  1.1693626187433921e+00  -9.6124163089189793e-02  1.3025350365954407e+00  1.1214036254157198e+00  1.4894553334916736e+00  1.0667125411932747e+00  1.0677234240005726e+00  1.0050270723749504e+00  1.2481409114711342e+00  9.3657448937261367e-01  9.4077751374158358e-01  1.1226366118694897e+00  9.1372067879557184e-01  1.0084758420665880e+00  8.4464080258055951e-01  1.0471904712646325e+00  1.3902346572166535e+00  1.3646436526641419e+00  7.4629778586858786e-01  8.3370498747307153e-01  1.2992803923850427e+00  7.0403651391396094e-01  1.0967526837193018e+00  8.6002517218630847e-01  5.4403585075166960e-01  1.3653849115462562e+00  -1.3499784819953854e-02  1.0614542076833915e+00  1.2162934776738452e+00  2.4250588482737006e+00  5.6476923665730039e-01  2.4268015049758851e-01  5.0615595195639096e-01  8.2296000697525540e-01  8.7761187307217237e-01  7.4101512624207638e-02  2.1688230970383118e-01  5.6097007720457437e-01  1.1733058373541136e+00  8.6225591685334979e-01  4.1076736637919981e-01  8.5351640970248199e-01  9.5903301676021568e-01  7.1648946526257273e-01  9.4113015909930364e-01  2.2473162362077265e-01  4.9460729263964870e-01  -1.5177354560228945e-01  8.3389957317895957e-01  4.4552623385017548e-01  3.2951118076732977e-01  7.7311602915352406e-01  5.1310819716985401e-01  4.5416076278677209e-01  5.9810650044440261e-01  6.9412793169643172e-01  4.0945279320562750e-01  6.5765776154092703e-01  -5.4624414458895451e-03  3.0454297544460202e-01  -1.8440941698000821e-01  5.1368822570391948e-01  2.4206284889659416e-01  1.5921508694075809e-01  4.0181896121013105e-01  2.2784464049828010e-01  4.5244267174843106e-01  -5.2810020703622829e-01  1.8614182009862668e-01  -6.3707246302222420e-01  1.7378805601913133e-01  1.8907538369587171e-01  2.9380954829013167e-01  -3.8824734516800463e-01  2.9360980208980436e-01  1.0029828197404710e-01  -9.8207822077962315e-01  4.1215811809572384e-01  -1.0107938784687442e+00  7.3372485228458059e-02  2.0074874813641903e-02  3.3017258701822721e-01  -4.4079344011226951e-01  3.1137089072807950e-01  -4.1055314664952619e-01  1.0016599038108905e-01  -5.2530106171517055e-01  4.8383540689650723e-01  -2.2953522883481151e-01  -7.0867076568519138e-01  5.5726588325150050e-01  -8.2699256098492480e-01  -3.5676164519177450e-01  -9.6794784581424584e-02  6.4133208700746291e-01  -4.4660019343019153e-01  6.5438104004183584e-01  -2.0650572474123360e-01  1.7828114789685532e-03  -1.5999793494088841e+00  5.8591477270269743e-01  -3.0118771017417506e-01  1.1002534619197651e-01  3.8225100168280474e-01  -3.6875436580944154e-01  -1.2417853551969416e+00  3.7755872371853555e-01  1.2032216005214851e-01  4.0540926792840083e-02  3.3683198921742830e-01  -2.5207606619198319e-01  3.4318570774850954e-02  2.7495210921053743e-02  -2.4615736175557454e-01  8.0666529618538471e-03  -1.5991041274585577e-01  6.7158614479793599e-01  -8.2399393154398939e-02  1.4340877789498159e+00  -9.8799363849161950e-02  -1.1205711429689198e-01  -8.2393716983221163e-02  -2.1354925167892783e-01  2.2576794995622684e-01  -2.2703876238939141e-01  -8.6386513764316469e-03  -8.5487978197587564e-02  -1.7751619127338930e-01  6.5174284621612719e-02  1.8054955032047300e-02  -1.7378887530227463e-01  2.7683294224872723e-01  -6.8416258814550740e-02  -1.4619673138187467e-01  -1.4254998800467319e-01  -1.3399763065674447e-02  -1.1613659845131832e-01  -1.9660805673536502e-01  -7.8739353168834972e-02  -2.5534146405396413e-01  -2.4712795959271783e-01  -1.6246863314411794e-01  -2.1656711545825380e-01  -8.1882764639720385e-02  -1.9664090436578535e-01  1.2938679357198241e-01  7.2245989218568607e-01  1.0604279944913519e+00  1.0046830865514831e+00  1.0428829981923484e+00  1.0130838842291912e+00  9.9011403654210883e-01  9.8079347415251261e-01  1.0150920780467789e+00  1.0008777564150584e+00  9.7295632991288494e-01  9.8543027779724435e-01  1.0401380862071283e+00  1.0483517575222385e+00  1.0112341521601491e+00  1.0177812394005621e+00  1.0384009746097507e+00  1.0115475038568378e+00  1.0134789472573267e+00  9.8297325267935265e-01  9.5725957575314624e-01  9.5596458976240140e-01  9.7674317529704779e-01  1.1058041029411212e+00  8.1336022832865529e-01  7.2145888461785018e-02  -3.2403437901380061e-01  -9.4621717995276716e-02  -1.7205158947897320e-01  -2.6493802544616268e-01  -7.8066075681213498e-01  -5.8030201472381006e-02  8.9801276009559269e-02  -7.4652224861927718e-01  -4.9483315989308274e-02  1.1006240032036532e-01  -6.8279790786156569e-01  -2.1633714452103842e-01  6.2061265068717405e-04  -1.3652406618878983e+00  -9.5499903555339494e-02  -1.3682225540655413e-01  -3.3713813028149914e-01  -9.2852462733156602e-02  -7.0540591913047779e-01  -4.1795367037192893e-01  -1.7072215058362056e-02  1.4489462728278843e-01  4.3312202872151039e-04  -2.1662118981746775e-01  -2.8674631218511970e-01  -3.0108417680977456e-01  -2.6311943711423442e+00  -2.8708135076181479e-01  4.9862319051070358e-01  -3.5098801513585565e-01  7.3253040409190590e-02  1.7804738576450047e-01  -3.6127914851708631e-01  -2.1235446477118938e-01  2.5213948877168041e-01  -2.4358811187721124e-02  -1.1316301770251080e-01  -5.1432608927052599e-02  -3.0835492511108686e-02  3.7362067837624319e-01  -3.3589493768768269e-01  1.5433505398901662e-01  3.5229896110672343e-02  8.8780256217873735e-02  -1.0198213209351666e-01  -3.7137426656926986e-01  1.0455141259083299e-01  -1.7729043927558460e-01  1.5578714473711694e-01  -8.0032336971251139e-04  1.6088979729964370e-01  -2.5525233211612136e-01  -1.4642171722986977e-01  1.2299743372493441e-01  4.0493520007199785e-01  -2.2374820232669904e-01  2.2008346251148275e-01  3.5094893513699843e-01  -1.1388157463311280e-01  3.1510115156730822e-01  -8.0409638515853935e-02  1.4260584701642723e-01  -7.7167706320621268e-02  1.4017354189008341e-01  1.6895920170960391e-01  1.3736196499606690e-01  -8.3319317493006706e-01  1.7675796896450810e-01  -3.2264165982707765e-01  -1.2910457366061731e-01  2.2785137283231907e-01  1.0613887453032984e+00  -2.9524254390237016e-02  -1.5583085648825698e-02  6.4003643934497811e-02  -5.1749946894025345e-01  1.0528412051758841e-01  -9.1602178567430126e-01  -1.6905621087704886e-01  -1.4656448210572023e-01  2.7021431052266237e-01  -2.0703837079966439e-01  3.7669537877086390e-01  2.7929442924206432e-01  -1.9034038475941059e-01  5.3518135763811492e-01  -2.6699061290626463e-02  3.2144275663441918e-01  -1.3452255523838086e-01  3.6105352521279321e-01  9.1487556737357878e-01  1.1259120790383883e-02  -3.3376543232259376e-01  4.7694750522243723e-01  3.1883971834488495e-01  4.9606279338111853e-01  6.6532003474541224e-01  -1.0439297331677726e-01  7.4150334413362529e-01  6.4775839011942293e-01  7.8858397443168193e-01  6.0042216573902374e-01  8.5716779868306181e-01  2.5518048363982204e-01  1.0645469996132706e+00  6.6605762192263518e-01  1.1564193105328222e+00  8.8758249544221068e-01  8.8627951987898390e-01  1.2641420815913238e+00  1.0848612837312011e+00  1.0240157267558490e+00  1.1727613371924550e+00  1.2350154813495691e+00  1.1589929739685585e+00  1.2312602948082756e+00  1.1173424982330817e+00  1.2235589283806840e+00  4.8197722402183046e-01  1.0950179310885837e+00  1.2201730972620455e+00  1.1252062774376135e+00  1.1679317123884259e+00  1.3841014573118748e+00  1.3810189915344944e+00  1.3314573065877886e+00  1.3507331908635156e+00  1.7018481771940515e+00  1.2791503331676615e+00  2.1285020626420579e+00  1.3849821881641731e+00  1.4502388490894753e+00  1.0212940211802621e+00  1.7959649064971928e+00  1.5258546113218094e+00  1.0429444752939676e+00  1.7590652523324648e+00  1.4692964103051980e+00  9.8883437867713464e-01  4.2662862076990515e-01  1.5235426200454203e+00  1.0604295116545774e+00  1.2744729869705902e+00  1.5565008134687430e+00  1.8435413564102445e+00  1.4584953107907799e+00  1.8642711686452751e+00  1.3557076403921573e+00  1.5079150170952786e+00  1.3655409703052517e+00  1.5321995844369836e+00  1.5197113887544960e+00  1.1600465552674584e+00  1.5161846018175769e+00  1.5191206899832013e+00  1.3383905312558182e+00  1.6202329114989176e+00  1.3579219275858805e+00  1.2412002571547913e+00  1.1685143430999947e+00  1.5825676056761262e+00  7.1941714514952404e-01  1.6552372603144949e+00  1.3928964794239076e+00  1.3952441308506982e+00  -8.4551035362014193e-01  1.1200118661818150e+00  1.2448566152471980e+00  1.2004254192090871e+00  1.1592793286298035e+00  9.9667738341841050e-01  1.1777541826373115e+00  -2.6824055702567181e-02  9.2095462253259652e-01  1.0644491123943034e+00  8.8085127607524205e-01  1.3210444692771377e+00  1.2969758098299535e+00  7.2124709783773955e-01  8.3766000041661459e-01  1.3314708485356916e+00  1.1134030264429411e+00  7.7330760769973217e-01  -1.4578670745509217e-01  1.0051817557828904e+00  4.2441589011375458e-01  9.5105626855529768e-01  1.0116662056642634e+00  9.9434668028167383e-01  1.1497693484668841e+00  1.0894992643424901e+00  1.7902683675903759e+00  9.5621937721840844e-01  1.1635987227337226e+00  1.3541369910714547e+00  9.2490641022979692e-01  1.4975001048160665e+00  1.4222035637877832e+00  1.2351880006886991e+00  9.7040152128912260e-01  -2.8893073417131471e-01  1.0136369586345237e+00  8.5383008991965204e-01  7.5640112669295434e-01  2.5792730203958190e+00  1.3297149891814606e+00  7.1054872881395326e-01  1.3399976723489770e+00  1.5243627388448047e+00  4.0866958454687718e-01  1.5282990182875136e+00  1.0955869456286453e+00  1.0130387722994729e+00  2.4825719272868646e-01  1.5366064682052067e+00  8.3693075640234160e-01  9.2001691904370697e-01  1.5858064281166750e+00  4.0328430302176860e-01  8.5292462965214988e-01  8.4615344266936521e-01  1.7228684215123709e+00  4.5189439119318880e-01  1.8497908524767470e+00  1.8591202655237899e+00  6.6023515134039656e-01  5.8921663451633111e-01  1.8252979385830677e+00  5.1186292460557536e-01  1.1968553117424205e+00  1.8046442169741230e+00  4.8086054988478594e-01  1.1446768355516030e+00  1.2246944095923806e+00  6.1388267749383285e-01  4.9046102156103560e-01  7.7067273421147231e-01  5.2880095886046674e-01  8.9756584714952692e-01  7.2464371442699305e-01  -8.7091590329074853e-01  6.1534561660101683e-01  8.5936109796498894e-01  8.7357315606917285e-01  6.8969733937628286e-01  8.6019638656808894e-01  6.9306398766012078e-01  8.8081529692237648e-01  1.0000000000000000e+00  1.0000000000000000e+00  1.0000000000000000e+00  1.0000000000000000e+00  1.0000000000000000e+00  1.0000000000000000e+00  1.0000000000000000e+00  1.0000000000000000e+00  1.0000000000000000e+00  1.0000000000000000e+00  1.0000000000000000e+00  1.0000000000000000e+00  1.0000000000000000e+00  1.0000000000000000e+00  1.0000000000000000e+00  1.0000000000000000e+00  1.0000000000000000e+00  1.0000000000000000e+00  1.0000000000000000e+00  1.0000000000000000e+00  1.0000000000000000e+00  1.0000000000000000e+00  1.0000000000000000e+00  1.0000000000000000e+00  1.0416088661150886e+00  1.0623468914326382e+00  1.0830983093734110e+00  1.1107085034423194e+00  1.0785027430463707e+00  1.1358133019682592e+00  9.8272768763900831e-01  1.1536295272170303e+00  1.0356347652865283e+00  1.0327462016014353e+00  9.8050132930872336e-01  9.9160847237728544e-01  1.0468029654044646e+00  1.0895378345913074e+00  1.1667405538081961e+00  1.0344491665972295e+00  1.0262980303884752e+00  9.3810156475003115e-01  1.0185241265577740e+00  1.0382559995304730e+00  1.0711704128276549e+00  1.0236960704233240e+00  1.0323680218881310e+00  1.0416452380118639e+00  1.0666398293569150e+00  8.7700926981465765e-01  9.0522798847948271e-01  1.0446921432617051e+00  9.7127581485750547e-01  9.8466134328816579e-01  1.1010751161240098e+00  9.1360576817814876e-01  9.8668449403055924e-01  1.0220798554952579e+00  1.1502066263926087e+00  1.0487043625228523e+00  9.6850535395925963e-01  1.0726128507618482e+00  9.1969236561468060e-01  9.2326723054347293e-01  1.0205284853773084e+00  9.8321960921817197e-01  1.0998885118457371e+00  1.0232836315034848e+00  9.8118989928726064e-01  1.0185556187289262e+00  1.0291392798993808e+00  1.0892537530702293e+00  8.6721072072489691e-01  1.1114371225840147e+00  1.0055248279286053e+00  9.6666057368450586e-01  9.7124497998731263e-01  9.8012798167225179e-01  1.0047787682640195e+00  1.0433701728131244e+00  9.9358899521321231e-01  1.0376928479686098e+00  1.0030922511503890e+00  9.6876914060615016e-01  1.0108979036243315e+00  1.0055095052600056e+00  9.8321498002584673e-01  1.0325110798019439e+00  1.0027234774731801e+00  9.5533960945009833e-01  1.1540024071652184e+00  1.1447735973906119e+00  9.8715254262780305e-01  1.0247035517136491e+00  9.9641987154945511e-01  1.1194777287486066e+00  1.0811723193018290e+00  9.4987917096444296e-01  9.0253460169365451e-01  9.4101304214394288e-01  9.3686401816016696e-01  1.0267214206087958e+00  9.7192063533476092e-01  1.0271139385395138e+00  8.9463914661810440e-01  9.1943797745017730e-01  9.8946615450133890e-01  1.0079609943109693e+00  1.0018335415559572e+00  1.0376623923616068e+00  1.0622261228878220e+00  1.1709049539121710e+00  9.5946132683166485e-01  9.9912640783166906e-01  9.4379325501668165e-01  8.4325901706907358e-01  1.1555915118287068e+00  1.0488492539615086e+00  8.7483458617364485e-01  7.2295653866917309e-01  1.0297336090201488e+00  9.5869016171039478e-01  1.0830950729557647e+00  1.0369755441270729e+00  1.1255664029377370e+00  9.3842454047638879e-01  1.1419781039945240e+00  1.0286579854077096e+00  1.0428466973570953e+00  1.0586210809956651e+00  1.0488172345858686e+00  1.0655376489186408e+00  1.0602690758876536e+00  1.0826814639125606e+00  1.0458498269585663e+00  8.6414468409027667e-01  1.1299629680213190e+00  1.0432208712159288e+00  1.1227178338108303e+00  1.0321421698892037e+00  1.0683476719649654e+00  1.0353965132393466e+00  1.0316023226104993e+00  1.0404910185205269e+00  9.6361937148284749e-01  9.6563822198325988e-01  1.0658653238447440e+00  9.9270767577064911e-01  9.3044458096137028e-01  1.0990875679682530e+00  1.0499292044504087e+00  1.1560338714409808e+00  1.0502299673752082e+00  9.8723173891179150e-01  1.0222490069505379e+00  9.9570615068579305e-01  1.0490258273748669e+00  9.6860302827754330e-01  9.3059346757541084e-01  9.8681449789407050e-01  9.2979499969981394e-01  9.7364412447905346e-01  9.5512209026623007e-01  9.5140082127092240e-01  9.6383786618539635e-01  9.5072845803248618e-01  9.8078341399834146e-01  8.9012753052110438e-01  1.0484176955469044e+00  9.7917222609481180e-01  1.0131221436779434e+00  9.3695469753092808e-01  1.0404845918772851e+00  9.9652729538174645e-01  1.0166442678511982e+00  9.7189518901685246e-01  1.0640117197003269e+00  9.8504834203438596e-01  1.0666377750182812e+00  9.8930249664536685e-01  9.5112833697002996e-01  1.0337112790868563e+00  8.7820375267605943e-01  1.0273240649512405e+00  1.0206484695626112e+00  1.0739079072816171e+00  9.6383156077591614e-01  1.1372993434114544e+00  9.4066498783622687e-01  8.7779493707374190e-01  9.8776628905284047e-01  1.0392416844174976e+00  1.0317470804711781e+00  9.3879941009701218e-01  9.4210534876804497e-01  1.0494233780123914e+00  1.1382747035540337e+00  8.5393147750208154e-01  9.8490812125998950e-01  1.0495535534441924e+00  1.0184952320281588e+00  9.6258523849085798e-01  9.6827751460844280e-01  1.0259778406406281e+00  9.9653509660871764e-01  1.0828892880741445e+00  8.8503394395366486e-01  8.4520010114827826e-01  9.8177241770052859e-01  9.4115290849398070e-01  1.0037408811050186e+00  9.7147960031191860e-01  9.8076176234752255e-01  1.0729779723570796e+00  1.0793204144857993e+00  1.0036407909702478e+00  9.4556663944357144e-01  1.1567097533274198e+00  1.0934381489211800e+00  9.8505477167506272e-01  9.9791369957368292e-01  9.8049441370378865e-01  9.2184199713251336e-01  1.0374499930601015e+00  1.0020212766513181e+00  1.1265962486459447e+00  1.0610218605125399e+00  9.8721959683307992e-01  1.0221346092961117e+00  9.6796195692475151e-01  9.8324702367117101e-01  1.0548101347360248e+00  9.9036126303851846e-01  1.0489567057907072e+00  1.0938972754285119e+00  1.0208475563322337e+00  1.0339532723681999e+00  1.0381471091098686e+00  9.8488881131891304e-01  1.0487544146841425e+00  9.5624149353105381e-01  1.0547577376182762e+00  1.0236935807978653e+00  9.6780457135739839e-01  1.0014181214030997e+00  9.6341600251470794e-01  1.1413037430008823e+00  1.0518360418742791e+00  1.0637045031340975e+00  1.0002971668027048e+00  1.0165975827474041e+00  1.0628193494751339e+00  1.1848875605999460e+00  1.0296154057681712e+00  1.0547791359720964e+00  1.0214708193802715e+00  1.0420985633667723e+00  1.0536348141843197e+00  9.7532573548548473e-01  1.0591709497239112e+00  1.1003850742128112e+00  1.0827322749449655e+00  9.7726982788954908e-01  1.0256162663768893e+00  1.0627231788151996e+00  9.9364602452908368e-01  1.0831754894312271e+00  1.0606736897401743e+00  9.5995627602473343e-01  1.0475439083308373e+00  9.8356339225717926e-01  9.5079953094576231e-01  1.0283199391087203e+00  9.5554533067949454e-01  1.0896466763265458e+00  1.0112700852897034e+00  1.1480404812179770e+00  9.7098552509760971e-01  9.8198976643683455e-01  9.0792091847198120e-01  1.1163365405081700e+00  9.8810280836884268e-01  1.0541561679223748e+00  9.9958689358598785e-01  1.0219181279866252e+00  9.4447824714430650e-01  1.0738555654445623e+00  1.0059258460257148e+00  8.9880795868908570e-01  9.9262714964076348e-01  1.0573144121928879e+00  8.1558908994696244e-01  8.6529752502834856e-01  1.0240100362395399e+00  1.0682725558222879e+00  9.8809752008304252e-01  9.3643151628178356e-01  9.1723613920963210e-01  1.078