<?xml version="1.0"?>
<VTKFile type="UnstructuredGrid"  version="0.1"  >
<UnstructuredGrid>
<Piece  NumberOfPoints="8545" NumberOfCells="16538">
<Points>
<DataArray  type="Float64"  NumberOfComponents="3"  format="ascii">0 0 0  2 0 0  2 0.2 0  0 0.2 0  0.007999999999984813 0 0  0.01599999999996964 0 0  0.02399999999995461 0 0  0.03199999999993959 0 0  0.03999999999992457 0 0  0.04799999999990945 0 0  0.05599999999989373 0 0  0.06399999999987775 0 0  0.07199999999986065 0 0  0.07999999999984338 0 0  0.08799999999982558 0 0  0.09599999999980778 0 0  0.10399999999979 0 0  0.1119999999997726 0 0  0.1199999999997562 0 0  0.1279999999997408 0 0  0.1359999999997272 0 0  0.1439999999997141 0 0  0.1519999999997019 0 0  0.1599999999996896 0 0  0.1679999999996774 0 0  0.1759999999996651 0 0  0.1839999999996529 0 0  0.1919999999996407 0 0  0.1999999999996284 0 0  0.2079999999996162 0 0  0.2159999999996039 0 0  0.2239999999995916 0 0  0.2319999999995794 0 0  0.2399999999995652 0 0  0.2479999999995501 0 0  0.2559999999995309 0 0  0.2639999999995103 0 0  0.2719999999994875 0 0  0.2799999999994642 0 0  0.2879999999994408 0 0  0.2959999999994175 0 0  0.3039999999993941 0 0  0.3119999999993708 0 0  0.3199999999993474 0 0  0.3279999999993241 0 0  0.3359999999993007 0 0  0.3439999999992774 0 0  0.351999999999254 0 0  0.3599999999992307 0 0  0.3679999999992074 0 0  0.375999999999184 0 0  0.3839999999991606 0 0  0.3919999999991373 0 0  0.3999999999991139 0 0  0.4079999999990906 0 0  0.4159999999990672 0 0  0.4239999999990439 0 0  0.4319999999990204 0 0  0.4399999999989971 0 0  0.4479999999989738 0 0  0.4559999999989504 0 0  0.463999999998927 0 0  0.4719999999989037 0 0  0.4799999999988804 0 0  0.487999999998857 0 0  0.4959999999988337 0 0  0.5039999999988103 0 0  0.511999999998787 0 0  0.5199999999987636 0 0  0.5279999999987403 0 0  0.5359999999987169 0 0  0.5439999999986936 0 0  0.5519999999986703 0 0  0.559999999998647 0 0  0.5679999999986237 0 0  0.5759999999986004 0 0  0.583999999998577 0 0  0.5919999999985537 0 0  0.5999999999985304 0 0  0.6079999999985071 0 0  0.6159999999984838 0 0  0.6239999999984605 0 0  0.6319999999984371 0 0  0.6399999999984138 0 0  0.6479999999983904 0 0  0.6559999999983671 0 0  0.6639999999983438 0 0  0.6719999999983205 0 0  0.6799999999982972 0 0  0.6879999999982739 0 0  0.6959999999982506 0 0  0.7039999999982272 0 0  0.7119999999982038 0 0  0.7199999999981805 0 0  0.7279999999981572 0 0  0.7359999999981339 0 0  0.7439999999981106 0 0  0.7519999999980873 0 0  0.759999999998064 0 0  0.7679999999980406 0 0  0.7759999999980173 0 0  0.783999999997994 0 0  0.7919999999979707 0 0  0.7999999999979474 0 0  0.807999999997924 0 0  0.8159999999979007 0 0  0.8239999999978773 0 0  0.831999999997854 0 0  0.8399999999978307 0 0  0.8479999999978074 0 0  0.855999999997784 0 0  0.8639999999977607 0 0  0.8719999999977374 0 0  0.8799999999977141 0 0  0.8879999999976906 0 0  0.8959999999976673 0 0  0.903999999997644 0 0  0.9119999999976207 0 0  0.9199999999975974 0 0  0.9279999999975741 0 0  0.9359999999975508 0 0  0.9439999999975274 0 0  0.9519999999975041 0 0  0.9599999999974808 0 0  0.9679999999974574 0 0  0.9759999999974341 0 0  0.9839999999974108 0 0  0.9919999999973981 0 0  0.9999999999973858 0 0  1.007999999997396 0 0  1.015999999997406 0 0  1.023999999997427 0 0  1.031999999997449 0 0  1.039999999997469 0 0  1.04799999999749 0 0  1.055999999997512 0 0  1.063999999997533 0 0  1.071999999997554 0 0  1.079999999997575 0 0  1.087999999997596 0 0  1.095999999997617 0 0  1.103999999997638 0 0  1.111999999997659 0 0  1.11999999999768 0 0  1.127999999997702 0 0  1.135999999997722 0 0  1.143999999997744 0 0  1.151999999997765 0 0  1.159999999997786 0 0  1.167999999997807 0 0  1.175999999997828 0 0  1.183999999997849 0 0  1.19199999999787 0 0  1.199999999997891 0 0  1.207999999997912 0 0  1.215999999997933 0 0  1.223999999997955 0 0  1.231999999997976 0 0  1.239999999997997 0 0  1.247999999998018 0 0  1.255999999998039 0 0  1.26399999999806 0 0  1.271999999998081 0 0  1.279999999998102 0 0  1.287999999998123 0 0  1.295999999998144 0 0  1.303999999998166 0 0  1.311999999998186 0 0  1.319999999998208 0 0  1.327999999998229 0 0  1.33599999999825 0 0  1.343999999998271 0 0  1.351999999998292 0 0  1.359999999998313 0 0  1.367999999998334 0 0  1.375999999998355 0 0  1.383999999998376 0 0  1.391999999998397 0 0  1.399999999998418 0 0  1.40799999999844 0 0  1.41599999999846 0 0  1.423999999998482 0 0  1.431999999998503 0 0  1.439999999998524 0 0  1.447999999998545 0 0  1.455999999998566 0 0  1.463999999998587 0 0  1.471999999998608 0 0  1.479999999998629 0 0  1.48799999999865 0 0  1.495999999998672 0 0  1.503999999998693 0 0  1.511999999998714 0 0  1.519999999998735 0 0  1.527999999998756 0 0  1.535999999998777 0 0  1.543999999998798 0 0  1.551999999998819 0 0  1.55999999999884 0 0  1.567999999998861 0 0  1.575999999998882 0 0  1.583999999998904 0 0  1.591999999998924 0 0  1.599999999998946 0 0  1.607999999998967 0 0  1.615999999998988 0 0  1.623999999999009 0 0  1.63199999999903 0 0  1.639999999999051 0 0  1.647999999999072 0 0  1.655999999999093 0 0  1.663999999999114 0 0  1.671999999999136 0 0  1.679999999999157 0 0  1.687999999999177 0 0  1.695999999999199 0 0  1.70399999999922 0 0  1.711999999999241 0 0  1.719999999999262 0 0  1.727999999999283 0 0  1.735999999999304 0 0  1.743999999999325 0 0  1.751999999999346 0 0  1.759999999999367 0 0  1.767999999999389 0 0  1.775999999999409 0 0  1.783999999999431 0 0  1.791999999999452 0 0  1.799999999999473 0 0  1.807999999999494 0 0  1.815999999999515 0 0  1.823999999999536 0 0  1.831999999999557 0 0  1.839999999999578 0 0  1.847999999999599 0 0  1.85599999999962 0 0  1.863999999999641 0 0  1.871999999999663 0 0  1.879999999999684 0 0  1.887999999999705 0 0  1.895999999999726 0 0  1.903999999999747 0 0  1.911999999999768 0 0  1.919999999999789 0 0  1.92799999999981 0 0  1.935999999999831 0 0  1.943999999999853 0 0  1.951999999999873 0 0  1.959999999999895 0 0  1.967999999999916 0 0  1.975999999999937 0 0  1.983999999999958 0 0  1.991999999999979 0 0  2 0.007999999999985056 0  2 0.01599999999997076 0  2 0.02399999999995914 0  2 0.03199999999993772 0  2 0.03999999999991205 0  2 0.04799999999988908 0  2 0.05599999999986612 0  2 0.06399999999984315 0  2 0.07199999999982019 0  2 0.07999999999979179 0  2 0.08799999999976883 0  2 0.09599999999974587 0  2 0.1039999999997452 0  2 0.1119999999997669 0  2 0.1199999999997886 0  2 0.1279999999998103 0  2 0.135999999999832 0  2 0.1439999999998537 0  2 0.1519999999998738 0  2 0.1599999999998949 0  2 0.1679999999999159 0  2 0.175999999999937 0  2 0.183999999999958 0  2 0.191999999999979 0  1.991999999999967 0.2 0  1.983999999999933 0.2 0  1.9759999999999 0.2 0  1.967999999999867 0.2 0  1.959999999999834 0.2 0  1.9519999999998 0.2 0  1.943999999999767 0.2 0  1.935999999999734 0.2 0  1.9279999999997 0.2 0  1.919999999999667 0.2 0  1.911999999999634 0.2 0  1.9039999999996 0.2 0  1.895999999999567 0.2 0  1.887999999999534 0.2 0  1.879999999999501 0.2 0  1.871999999999467 0.2 0  1.863999999999434 0.2 0  1.855999999999401 0.2 0  1.847999999999367 0.2 0  1.839999999999334 0.2 0  1.831999999999301 0.2 0  1.823999999999268 0.2 0  1.815999999999234 0.2 0  1.807999999999201 0.2 0  1.799999999999168 0.2 0  1.791999999999135 0.2 0  1.783999999999101 0.2 0  1.775999999999068 0.2 0  1.767999999999035 0.2 0  1.759999999999017 0.2 0  1.751999999999006 0.2 0  1.743999999999028 0.2 0  1.735999999999061 0.2 0  1.727999999999112 0.2 0  1.719999999999168 0.2 0  1.711999999999223 0.2 0  1.703999999999279 0.2 0  1.695999999999334 0.2 0  1.68799999999939 0.2 0  1.679999999999446 0.2 0  1.671999999999501 0.2 0  1.663999999999557 0.2 0  1.655999999999612 0.2 0  1.647999999999668 0.2 0  1.639999999999723 0.2 0  1.631999999999779 0.2 0  1.623999999999834 0.2 0  1.61599999999989 0.2 0  1.607999999999945 0.2 0  1.600000000000001 0.2 0  1.592000000000056 0.2 0  1.584000000000112 0.2 0  1.576000000000167 0.2 0  1.568000000000223 0.2 0  1.560000000000279 0.2 0  1.552000000000334 0.2 0  1.54400000000039 0.2 0  1.536000000000445 0.2 0  1.528000000000501 0.2 0  1.520000000000556 0.2 0  1.512000000000612 0.2 0  1.504000000000667 0.2 0  1.496000000000723 0.2 0  1.488000000000778 0.2 0  1.480000000000834 0.2 0  1.472000000000889 0.2 0  1.464000000000945 0.2 0  1.456000000001 0.2 0  1.448000000001056 0.2 0  1.440000000001112 0.2 0  1.432000000001167 0.2 0  1.424000000001223 0.2 0  1.416000000001278 0.2 0  1.408000000001334 0.2 0  1.400000000001389 0.2 0  1.392000000001445 0.2 0  1.3840000000015 0.2 0  1.376000000001556 0.2 0  1.368000000001611 0.2 0  1.360000000001667 0.2 0  1.352000000001722 0.2 0  1.344000000001778 0.2 0  1.336000000001833 0.2 0  1.328000000001889 0.2 0  1.320000000001944 0.2 0  1.312000000002 0.2 0  1.304000000002055 0.2 0  1.296000000002111 0.2 0  1.288000000002166 0.2 0  1.280000000002222 0.2 0  1.272000000002277 0.2 0  1.264000000002333 0.2 0  1.256000000002388 0.2 0  1.248000000002444 0.2 0  1.240000000002499 0.2 0  1.232000000002555 0.2 0  1.22400000000261 0.2 0  1.216000000002666 0.2 0  1.208000000002721 0.2 0  1.200000000002777 0.2 0  1.192000000002832 0.2 0  1.184000000002888 0.2 0  1.176000000002943 0.2 0  1.168000000002999 0.2 0  1.160000000003054 0.2 0  1.15200000000311 0.2 0  1.144000000003165 0.2 0  1.136000000003221 0.2 0  1.128000000003276 0.2 0  1.120000000003332 0.2 0  1.112000000003387 0.2 0  1.104000000003443 0.2 0  1.096000000003498 0.2 0  1.088000000003554 0.2 0  1.080000000003609 0.2 0  1.072000000003665 0.2 0  1.06400000000372 0.2 0  1.056000000003776 0.2 0  1.048000000003831 0.2 0  1.040000000003887 0.2 0  1.032000000003942 0.2 0  1.024000000003998 0.2 0  1.016000000004053 0.2 0  1.008000000004088 0.2 0  1.000000000004121 0.2 0  0.99200000000411 0.2 0  0.984000000004098 0.2 0  0.9760000000040647 0.2 0  0.9680000000040314 0.2 0  0.9600000000039981 0.2 0  0.9520000000039648 0.2 0  0.9440000000039312 0.2 0  0.9360000000038982 0.2 0  0.928000000003864
[...]
<PointData  Scalars="concentration"> 
<DataArray  type="Float64"  Name="concentration"  format="ascii">1.0000000000000000e+00  9.6089989117472918e-01  9.5117236121664950e-01  1.0000000000000000e+00  1.0004760465722304e+00  9.5943425727062503e-01  1.0083171183773483e+00  9.9273776924573665e-01  9.6001450293056922e-01  9.8247560722281846e-01  9.9374790934989499e-01  9.4771290432483346e-01  9.8814788854820079e-01  9.7884977253551653e-01  9.6606836914643457e-01  9.6550646039077082e-01  9.8160862919310288e-01  9.6044823729333828e-01  9.9324820618787235e-01  9.7231756315950779e-01  9.8556914709551868e-01  9.8575425736343036e-01  9.8297039908634865e-01  9.7305102158554946e-01  9.8516340830084903e-01  9.6521573959433982e-01  9.7244285386873597e-01  9.8110551760653586e-01  9.6515600527376411e-01  9.8849486816202203e-01  1.0160427119345974e+00  9.9277418837741094e-01  9.8710547726287279e-01  9.7726923809451860e-01  9.7881656473279877e-01  9.8786872787066915e-01  9.6874277044465729e-01  9.9334316319711891e-01  9.7700370212843557e-01  9.5439858182623660e-01  9.9027495097617757e-01  9.7851619478816021e-01  9.5821388458220502e-01  1.0405480013549067e+00  1.0161466699499746e+00  1.0076540392069595e+00  1.0275572381394165e+00  9.6962623600561149e-01  9.9750006227123678e-01  9.9801626215498129e-01  9.9930796698831825e-01  9.2850541958298927e-01  9.9904705942626848e-01  9.2331167357424437e-01  9.7619635602222554e-01  9.6519152322593615e-01  1.0097860465972450e+00  9.4835899032925197e-01  9.6244772367802078e-01  1.0062305045859348e+00  1.0420223532796704e+00  9.5828873889320065e-01  9.8172809291798657e-01  9.7602021577045828e-01  9.5046128131683916e-01  9.7583931816860303e-01  1.1048301244476026e+00  9.8785715671002272e-01  1.0279500816066436e+00  9.7700714796378629e-01  1.0065997983833905e+00  9.6904094937072083e-01  9.7951290236086763e-01  9.7152828260803570e-01  9.6279310635972559e-01  9.7526255942957440e-01  1.0000844220219485e+00  9.7821883179839331e-01  9.9999997931692852e-01  9.1678400800572990e-01  9.8018699900288397e-01  9.3956849165565992e-01  9.9749125079453504e-01  9.6617949720746277e-01  9.6966227287971396e-01  9.9709840916146453e-01  8.9873129105336835e-01  9.8061111921378541e-01  9.7399285233073474e-01  9.9118058446278146e-01  1.0005340224338035e+00  9.9106852754020958e-01  1.0506236170003715e+00  9.8081551198480754e-01  1.0407018058712987e+00  9.9842254837261679e-01  9.8629725590616601e-01  9.7916629033489089e-01  9.9868394180219300e-01  1.0004020947029071e+00  9.7794919688919502e-01  9.9499251865010552e-01  9.8653956848233981e-01  1.0487060938130723e+00  9.8659020721802748e-01  9.1367926661407917e-01  9.9155342743788444e-01  9.5696475170623851e-01  7.3426472173996038e-01  1.0088316703903453e+00  9.8700927803130156e-01  1.0149055025215179e+00  9.9379025460533521e-01  9.9180358682966707e-01  9.9023274905433412e-01  1.0032152043696032e+00  9.9010545439470132e-01  1.0085320834528786e+00  1.0119466861352062e+00  9.8728677830446010e-01  9.6458844486023521e-01  1.0014535415019716e+00  9.9242486816924225e-01  9.9898133754106366e-01  9.8812998597634794e-01  9.9964893523968656e-01  9.8992277913834181e-01  9.8626823383423401e-01  1.0128982031525586e+00  9.7167383685921316e-01  1.0045783762213494e+00  9.8997357135630937e-01  9.9486958294315719e-01  1.0097486103435012e+00  9.9755741179774637e-01  9.9479096481779428e-01  9.6765909509747461e-01  9.9577837719183826e-01  9.9494676508926172e-01  9.9542573168670723e-01  1.0058252129780099e+00  1.0049331752531774e+00  9.8143123087201700e-01  9.9087230624246059e-01  9.9924712268453619e-01  1.0192264212810855e+00  1.0048223608754185e+00  9.9339824015469891e-01  9.8978999467071860e-01  1.0130454970507659e+00  1.0002845113279175e+00  1.0128763372864189e+00  9.8832951921538847e-01  1.0013222457383633e+00  9.4027493091226111e-01  1.0117739260910306e+00  9.9539516229583669e-01  9.8216807601634271e-01  1.0143169646757662e+00  9.8171879219844915e-01  9.9231384837648862e-01  1.0047672258057052e+00  1.0163298119883681e+00  1.0090640129923221e+00  1.0161636213362619e+00  9.8152724360210908e-01  9.9677693738421924e-01  9.1907528036936392e-01  9.8995754433938588e-01  9.9538747807800010e-01  9.9798697634896516e-01  9.8698884548203980e-01  1.0005751981732218e+00  1.0135839213966580e+00  9.8571829362135510e-01  9.8431702497609508e-01  9.7646720959935285e-01  9.8352729405940109e-01  9.9240213985772741e-01  1.0011110794692020e+00  1.0151870460384085e+00  9.9957447278772449e-01  9.9526925822110091e-01  9.7194384966665237e-01  1.0031591058929923e+00  9.6346277435971495e-01  9.8391167319705652e-01  9.8512468528036967e-01  1.0000847256953413e+00  9.8200595271135571e-01  9.9927007492423670e-01  9.8313385003105014e-01  9.8725473046631995e-01  9.5951554823757468e-01  1.0036254185556182e+00  9.8245643738783950e-01  9.8081134596849739e-01  1.0029615084968806e+00  9.7623267537502811e-01  9.7688765261981747e-01  9.8081860941216614e-01  9.9873345060074936e-01  9.6868658545667796e-01  9.9785188802656477e-01  9.7911720081788156e-01  9.7815302039000340e-01  9.5387819650250893e-01  9.9634835583816483e-01  9.7021127734282553e-01  9.8473952959269095e-01  9.8753059766454065e-01  9.7336242828042185e-01  9.5339701751805983e-01  9.8721394124860429e-01  9.8184601271936400e-01  9.7649257143843560e-01  9.8023218343249319e-01  9.7303591650166432e-01  9.7556043089059241e-01  9.7857829720810574e-01  9.7147896283101520e-01  9.7916553826129882e-01  9.7412326341948785e-01  9.9365389126439874e-01  9.7512831926885413e-01  1.0088636620430291e+00  9.7445536366579466e-01  9.7380806619658611e-01  9.7316354801275595e-01  9.6855372712637278e-01  9.8166511908770937e-01  9.6740605448068995e-01  9.7297423660280424e-01  9.6839325860422698e-01  9.6765801794306305e-01  9.7364910597576948e-01  9.7304616476335626e-01  9.6646752882001585e-01  9.7854908583615507e-01  9.7015991333371876e-01  9.6573305005332766e-01  9.6530427223899307e-01  9.7040453864431109e-01  9.6646347964291091e-01  9.6257600600777249e-01  9.6683203570199938e-01  9.6091754451007338e-01  9.5950025641259662e-01  9.6172411760813648e-01  9.6027201548687446e-01  9.6471857537684658e-01  9.5900461041114771e-01  9.7357966462362955e-01  9.9199049322926514e-01  1.0028632203908086e+00  1.0008448637307676e+00  1.0020953614795225e+00  1.0002881250532714e+00  9.9891373150186413e-01  9.9780226595057475e-01  9.9997928068319231e-01  1.0003266983873942e+00  9.9868536029019239e-01  9.9869957317769142e-01  1.0007826029428006e+00  1.0005347163299170e+00  9.9891959315643153e-01  9.9920874817928707e-01  1.0012039613571111e+00  1.0019498429161635e+00  9.9848074864921177e-01  9.9585718399849310e-01  9.9891741164714254e-01  1.0023637240725618e+00  1.0029402460716790e+00  1.0066379981744531e+00  9.9276803990524232e-01  9.5943448110303575e-01  9.4811216217326444e-01  9.5614172823437416e-01  9.5516845379471182e-01  9.5209722080377290e-01  9.3397244702777593e-01  9.6234279166896308e-01  9.6728936292759238e-01  9.3754979121410575e-01  9.6436259572215655e-01  9.7132552685378104e-01  9.4137531331928881e-01  9.5924777237685588e-01  9.7127213969579218e-01  9.2297994987003484e-01  9.6793783627125551e-01  9.6443038472570630e-01  9.5948572571017865e-01  9.7024934130930418e-01  9.5276626411333398e-01  9.6101328917977047e-01  9.7337997213774852e-01  9.7297530088590767e-01  9.7450026658558120e-01  9.6661192079565339e-01  9.6706684829988554e-01  9.6309125923400607e-01  8.9079427727085436e-01  9.6578537687801869e-01  9.8058483881286007e-01  9.6752127000699839e-01  9.7908898018821389e-01  9.9213837781901937e-01  9.5932185386744528e-01  9.7722143051412169e-01  9.9876793199189196e-01  9.7526472805475972e-01  9.8233692271019646e-01  9.7153203510913122e-01  9.6567265500141941e-01  9.0404416931000675e-01  9.5814248133189528e-01  9.6623122088828584e-01  9.6699411334600704e-01  9.8029403907070090e-01  9.4644491685169041e-01  9.4083032332604133e-01  9.8095172475508430e-01  9.7041397959739772e-01  9.7560052882564907e-01  9.7262397080229546e-01  9.7641400902883435e-01  1.0306971998841770e+00  9.7380341220327304e-01  9.9565323075724466e-01  9.7906366614087492e-01  9.8841526031375360e-01  9.8787853098668732e-01  9.8124433198330396e-01  1.0198836306013885e+00  9.8597471913614676e-01  9.8443871325021115e-01  9.7407843909356329e-01  9.8355289108211386e-01  9.7475927725565303e-01  9.9437191663629754e-01  9.9278012436322949e-01  9.8158174553762756e-01  9.7353911375139079e-01  9.9290498069754662e-01  9.8897495953218550e-01  9.7522622636642364e-01  9.9876384817582542e-01  9.8652760537427886e-01  9.9475872457890757e-01  9.8027132413001317e-01  9.8728322921049272e-01  9.8083796655377653e-01  9.5661233676172508e-01  9.8957313324149720e-01  1.0089179219219271e+00  9.8584639785516492e-01  9.9999844594576881e-01  9.9429493122357693e-01  9.8758007092396694e-01  1.0102224426245308e+00  9.9250211544669653e-01  9.8638315147038269e-01  9.8674617947967047e-01  9.9214787714160535e-01  9.8714209967387390e-01  9.8117095599487858e-01  9.8684097328288711e-01  9.6201939965240491e-01  9.8228104632203217e-01  9.9401482197514957e-01  9.9430435681195362e-01  9.8398348265080116e-01  9.5257297642753158e-01  1.0000386178197151e+00  9.9883900260233105e-01  9.9239544051142936e-01  9.9105267723286039e-01  9.9262529977994673e-01  9.5563286988410978e-01  1.0036256863176811e+00  1.0089077569331459e+00  9.9530058255285359e-01  9.9456178982362575e-01  9.9196588486292858e-01  9.9552036718437265e-01  1.0094908892859134e+00  9.8995417679083186e-01  9.8474111426804301e-01  9.9497274045242889e-01  9.9318553891702965e-01  9.8570062314924789e-01  9.9008505599799712e-01  9.9330163788293757e-01  9.7406737250772379e-01  9.8915496760110144e-01  9.9521383818616904e-01  9.9122984412573656e-01  9.8955757550490375e-01  9.9929352905057567e-01  9.9967781097726405e-01  9.7477074392030516e-01  9.9970670507348092e-01  1.0192218865397897e+00  9.9937095968631617e-01  1.0303787354694607e+00  1.0014862353798550e+00  1.0035882393506113e+00  9.8427686174731666e-01  1.0138509890827665e+00  9.8508542205975747e-01  9.8353818621722233e-01  1.0041663205961708e+00  9.8093221418537457e-01  9.7180834677487693e-01  9.6565040304655969e-01  9.8870536354323624e-01  9.7363270120873513e-01  9.8427933727533712e-01  9.8995682354236725e-01  1.0021865859836430e+00  9.9992406773358711e-01  9.9494361967104283e-01  9.8450739430628598e-01  9.8004620832645972e-01  9.8445040707977516e-01  1.0002284937269528e+00  9.9802316001024705e-01  1.0134897530809719e+00  1.0027452343968395e+00  9.9320004749674218e-01  9.6855133953924344e-01  1.0078765012023809e+00  9.6691690100407246e-01  9.7495993834913497e-01  9.5411235131170746e-01  1.0027903505804254e+00  1.0007057881674157e+00  1.0027824135860779e+00  1.0009893517928619e+00  1.0080664534252941e+00  7.9614178719067275e-01  9.5921027915622559e-01  1.0012981292148060e+00  9.3367106851289083e-01  9.6927531823886093e-01  9.2842193035472653e-01  9.8207165547753539e-01  9.3046524029080568e-01  9.6989377899072093e-01  9.7608974094648016e-01  9.7000791653927276e-01  9.8261379812902405e-01  1.0041542243846009e+00  9.5346149326339547e-01  9.7368276842535562e-01  9.9862344599850428e-01  9.7703126490537018e-01  9.7427855803886587e-01  8.9608050654397708e-01  9.8806687933102655e-01  9.0490667572278771e-01  9.8924344963617628e-01  9.4390102514678109e-01  9.8930532066644583e-01  9.7231916507175253e-01  9.8237659352973161e-01  9.2608488558072233e-01  9.7724172615826888e-01  9.8178457395313234e-01  1.0069046117805849e+00  9.7501423590930736e-01  9.8334589429618002e-01  9.7488823809816938e-01  1.0151586858447834e+00  9.7955805483557101e-01  9.6317854011299064e-01  9.7985278282416977e-01  9.8218592172223751e-01  9.8204105438900335e-01  1.0122642572356746e+00  9.8370514215434590e-01  9.8523632227586033e-01  9.8849497357105875e-01  1.0010590368727807e+00  9.6673947672275640e-01  1.0495144630539952e+00  9.8751803792190362e-01  9.9556388221277836e-01  9.6652244998377268e-01  1.0141265562833006e+00  9.8894089554107967e-01  9.8880406421226907e-01  1.0169223097135107e+00  9.7189503359973750e-01  9.8404921857087824e-01  9.9076238842376707e-01  1.0186732141917094e+00  9.6520920709696378e-01  1.0292607690732212e+00  1.0197665231211164e+00  9.8532083800061188e-01  8.6114005525771087e-01  9.9854240981495590e-01  9.8100613130002123e-01  9.8945302084984166e-01  1.0010747655292782e+00  9.6368574313520161e-01  9.8771996192794020e-01  9.5747343604176083e-01  9.7975795246609221e-01  9.7557308787395502e-01  9.7940080819578956e-01  9.8000541259882967e-01  1.0034430194746349e+00  9.7256649048410482e-01  6.2971295132272986e-01  9.4370870290364472e-01  9.9886086353093795e-01  9.9946134776286910e-01  9.6377673360277960e-01  1.0012453758247570e+00  9.8129968406099710e-01  1.0013202342379286e+00  1.0000000000000000e+00  1.0000000000000000e+00  1.0000000000000000e+00  1.0000000000000000e+00  1.0000000000000000e+00  1.0000000000000000e+00  1.0000000000000000e+00  1.0000000000000000e+00  1.0000000000000000e+00  1.0000000000000000e+00  1.0000000000000000e+00  1.0000000000000000e+00  1.0000000000000000e+00  1.0000000000000000e+00  1.0000000000000000e+00  9.9999999999999989e-01  1.0000000000000000e+00  1.0000000000000000e+00  1.0000000000000000e+00  1.0000000000000000e+00  1.0000000000000000e+00  1.0000000000000000e+00  1.0000000000000000e+00  1.0000000000000000e+00  1.0031276800167457e+00  1.0018213224829677e+00  1.0006477326992538e+00  1.0041851248901188e+00  1.0004231105297408e+00  1.0031850380892595e+00  9.9944206760837495e-01  1.0036621612215546e+00  9.9837017191472421e-01  1.0013990283692318e+00  9.9886972514834094e-01  9.9848812755909677e-01  1.0015747724114139e+00  9.9973161019144319e-01  1.0019323049648998e+00  1.0006874441062994e+00  1.0015226473154342e+00  9.9954850822906194e-01  9.9884821776344512e-01  1.0013649050097966e+00  1.0003918692577152e+00  1.0025067989254270e+00  9.9974419499244205e-01  1.0015718723039237e+00  1.0021769745316735e+00  9.9175137849343331e-01  9.9549548735636451e-01  9.9757545402106051e-01  9.9567206129344399e-01  1.0004598398113445e+00  1.0046454435599605e+00  9.9628173896844019e-01  9.9965935892030089e-01  9.9993981009323996e-01  1.0044858602938940e+00  1.0028959205306336e+00  9.9844193053055086e-01  1.0021538865416175e+00  9.9634840669593705e-01  9.9630344022982464e-01  1.0016780811175330e+00  9.9897622713636269e-01  1.0068123640211191e+00  9.9970320525219358e-01  1.0002309022811715e+00  1.0033592787061305e+00  9.9991451040815638e-01  1.0096699016182107e+00  9.9428739193678151e-01  1.0040980215718034e+00  1.0006183586275754e+00  9.9884999313688394e-01  1.0021553509232000e+00  9.9823726978772487e-01  9.9941300511353781e-01  9.9651853822813730e-01  9.9983194566252220e-01  9.9868784478732131e-01  1.0005107313864945e+00  9.9555509643130768e-01  9.9816083015712287e-01  9.9537148198091019e-01  9.9626708100476091e-01  9.9466880770487065e-01  9.9734824601405925e-01  9.9374281591359459e-01  1.0023254357220359e+00  1.0017127132354071e+00  9.9683789188081739e-01  9.9931402942545766e-01  1.0043683581622631e+00  1.0014340219802560e+00  1.0025666882478641e+00  9.9765710831532928e-01  9.9705124781104881e-01  9.9717053339121609e-01  9.9722611548307183e-01  9.9790161653579723e-01  9.9318931305818303e-01  9.9886774600534056e-01  9.9225665739026492e-01  9.9100809735385953e-01  9.9530584022232660e-01  9.9435066822556895e-01  9.9877166376442506e-01  9.9598808765967684e-01  1.0021217104152162e+00  1.0062924299451750e+00  1.0006765026937168e+00  9.9898133873689809e-01  9.9400638702153277e-01  9.9010407366006203e-01  1.0016683423045776e+00  1.0007532279392903e+00  9.9831608189216281e-01  9.9029001832417440e-01  1.0016608654430399e+00  1.0008593143668119e+00  9.9882957612358270e-01  1.0016385553085281e+00  1.0015715659083209e+00  9.9954059173565923e-01  1.0000810943762790e+00  1.0014797228946415e+00  1.0003553569788417e+00  1.0018322600647294e+00  1.0020208926964995e+00  1.0016790600400256e+00  1.0011915771618565e+00  1.0001533873380317e+00  1.0011999763368002e+00  9.9332484564441181e-01  1.0029309891678537e+00  1.0044991773251781e+00  1.0038385738952671e+00  9.9718903261484382e-01  1.0008238178691629e+00  1.0022251725040576e+00  9.9892609169545921e-01  1.0100798303604954e+00  1.0025792568893717e+00  1.0006807370272754e+00  1.0031814139504596e+00  1.0024852117091667e+00  9.9958741107055682e-01  1.0021595837829769e+00  1.0033634822463566e+00  1.0093222001727256e+00  1.0045468772528567e+00  9.9846967831464972e-01  1.0028718503638823e+00  1.0015593522810646e+00  1.0033489841193357e+00  1.0012669766472315e+00  1.0054117448017272e+00  9.9956967033711164e-01  1.0009958410195270e+00  1.0002141737311128e+00  1.0017430281277913e+00  1.0005511418374873e+00  9.9984221845137122e-01  1.0045037893103446e+00  1.0027703964931629e+00  9.9553949605655023e-01  9.9646611633840987e-01  1.0003402596668989e+00  9.9610072750476264e-01  9.9541776630335521e-01  1.0068566338810547e+00  1.0000203270139902e+00  9.9939809580934125e-01  9.9991563926215599e-01  1.0064842433030383e+00  9.9977151559412925e-01  1.0013869692468076e+00  1.0014358528452560e+00  9.9864044258655094e-01  1.0073168531074028e+00  9.9681681685390255e-01  1.0000820324352011e+00  1.0046671952939468e+00  1.0020237071676674e+00  1.0000070381304220e+00  1.0024379209947423e+00  1.0012905212912302e+00  9.9793858612767772e-01  1.0044652172075579e+00  1.0019065972550885e+00  1.0013496187399216e+00  1.0012006600968022e+00  1.0010754382114457e+00  1.0026747478824019e+00  1.0020478929643020e+00  1.0019813928045507e+00  1.0046960376487866e+00  1.0023872954563566e+00  1.0005635318847996e+00  1.0029797875439861e+00  1.0004496949025474e+00  9.9885257246486414e-01  1.0012404604446805e+00  1.0002360430197086e+00  9.9912863406166186e-01  9.9230950833510456e-01  9.9765636535517421e-01  9.9902868841945092e-01  9.9959044129401464e-01  9.9769018427492384e-01  9.9886492992747600e-01  9.9918009198466373e-01  9.9803688189235029e-01  1.0018822700173062e+00  9.9807270298034512e-01  1.0021939688044688e+00  1.0002629455970795e+00  9.9553088224169739e-01  1.0001219820689735e+00  1.0031823599294578e+00  9.9807165994481861e-01  9.9667003207652671e-01  9.9919233194165336e-01  1.0037656732281324e+00  1.0019815050828929e+00  9.9509812419402421e-01  9.9994337206509298e-01  1.0022658789926866e+00  9.9958734390457549e-01  9.9986048709936515e-01  9.9958743040450260e-01  9.9879980033357929e-01  1.0024777757899883e+00  9.9892377211765160e-01  9.9900481979345890e-01  1.0014339952726612e+00  9.9950680657147584e-01  1.0016886873430983e+00  1.0020510979012216e+00  1.0016548172534669e+00  1.0001041798356824e+00  9.9816830414510005e-01  9.9735194852022147e-01  9.9693617932827727e-01  1.0005291011525672e+00  9.9951159062997830e-01  1.0004203772446636e+00  9.9910312073461705e-01  9.9993426699276344e-01  1.0026632861409970e+00  1.0077501431854883e+00  1.0029509268944745e+00  9.9939490052211599e-01  1.0011276520477312e+00  1.0014795854484171e+00  1.0003487699589144e+00  1.0014211523117740e+00  1.0045353890859414e+00  1.0031160811955699e+00  9.9932060093446939e-01  1.0007452641924912e+00  1.0019868825164431e+00  9.9929628926874958e-01  1.0030453933700691e+00  9.9886016059233207e-01  1.0020350772338791e+00  1.0003089138441532e+00  1.0012990143637044e+00  9.9767572104689883e-01  9.9838942921513241e-01  1.0005253177946571e+00  9.9766160767840295e-01  9.9830542429267355e-01  9.9946806365102925e-01  1.0078585105127895e+00  9.9818830699158190e-01  9.9876508342628090e-01  9.9616905521529409e-01  1.0036410200870054e+00  1.0017051796870595e+00  1.0015731325128618e+00  1.0005265393638780e+00  9.9983030221552827e-01  1.0040600377062336e+00  1.0000853224404738e+00  9.9636326130538477e-01  1.0010888390095594e+00  1.0048024305994365e+00  1.0009730832507979e+00  9.8830517440718457e-01  9.9990589038956812e-01  1.0022073149093982e+00  9.9877831343831536e-01  9.9990006887418192e-01  9.9933210863982469e-01  1.0003986198286130e+00  1.0045011152520271e+00  9.9888347675936828e-01  9.9634095306790538e-01  1.0064031821579287e+00  1.0080974172840667e+00  9