<?xml version="1.0"?>
<VTKFile type="UnstructuredGrid"  version="0.1"  >
<UnstructuredGrid>
<Piece  NumberOfPoints="8545" NumberOfCells="16538">
<Points>
<DataArray  type="Float64"  NumberOfComponents="3"  format="ascii">0 0 0  2 0 0  2 0.2 0  0 0.2 0  0.007999999999984813 0 0  0.01599999999996964 0 0  0.02399999999995461 0 0  0.03199999999993959 0 0  0.03999999999992457 0 0  0.04799999999990945 0 0  0.05599999999989373 0 0  0.06399999999987775 0 0  0.07199999999986065 0 0  0.07999999999984338 0 0  0.08799999999982558 0 0  0.09599999999980778 0 0  0.10399999999979 0 0  0.1119999999997726 0 0  0.1199999999997562 0 0  0.1279999999997408 0 0  0.1359999999997272 0 0  0.1439999999997141 0 0  0.1519999999997019 0 0  0.1599999999996896 0 0  0.1679999999996774 0 0  0.1759999999996651 0 0  0.1839999999996529 0 0  0.1919999999996407 0 0  0.1999999999996284 0 0  0.2079999999996162 0 0  0.2159999999996039 0 0  0.2239999999995916 0 0  0.2319999999995794 0 0  0.2399999999995652 0 0  0.2479999999995501 0 0  0.2559999999995309 0 0  0.2639999999995103 0 0  0.2719999999994875 0 0  0.2799999999994642 0 0  0.2879999999994408 0 0  0.2959999999994175 0 0  0.3039999999993941 0 0  0.3119999999993708 0 0  0.3199999999993474 0 0  0.3279999999993241 0 0  0.3359999999993007 0 0  0.3439999999992774 0 0  0.351999999999254 0 0  0.3599999999992307 0 0  0.3679999999992074 0 0  0.375999999999184 0 0  0.3839999999991606 0 0  0.3919999999991373 0 0  0.3999999999991139 0 0  0.4079999999990906 0 0  0.4159999999990672 0 0  0.4239999999990439 0 0  0.4319999999990204 0 0  0.4399999999989971 0 0  0.4479999999989738 0 0  0.4559999999989504 0 0  0.463999999998927 0 0  0.4719999999989037 0 0  0.4799999999988804 0 0  0.487999999998857 0 0  0.4959999999988337 0 0  0.5039999999988103 0 0  0.511999999998787 0 0  0.5199999999987636 0 0  0.5279999999987403 0 0  0.5359999999987169 0 0  0.5439999999986936 0 0  0.5519999999986703 0 0  0.559999999998647 0 0  0.5679999999986237 0 0  0.5759999999986004 0 0  0.583999999998577 0 0  0.5919999999985537 0 0  0.5999999999985304 0 0  0.6079999999985071 0 0  0.6159999999984838 0 0  0.6239999999984605 0 0  0.6319999999984371 0 0  0.6399999999984138 0 0  0.6479999999983904 0 0  0.6559999999983671 0 0  0.6639999999983438 0 0  0.6719999999983205 0 0  0.6799999999982972 0 0  0.6879999999982739 0 0  0.6959999999982506 0 0  0.7039999999982272 0 0  0.7119999999982038 0 0  0.7199999999981805 0 0  0.7279999999981572 0 0  0.7359999999981339 0 0  0.7439999999981106 0 0  0.7519999999980873 0 0  0.759999999998064 0 0  0.7679999999980406 0 0  0.7759999999980173 0 0  0.783999999997994 0 0  0.7919999999979707 0 0  0.7999999999979474 0 0  0.807999999997924 0 0  0.8159999999979007 0 0  0.8239999999978773 0 0  0.831999999997854 0 0  0.8399999999978307 0 0  0.8479999999978074 0 0  0.855999999997784 0 0  0.8639999999977607 0 0  0.8719999999977374 0 0  0.8799999999977141 0 0  0.8879999999976906 0 0  0.8959999999976673 0 0  0.903999999997644 0 0  0.9119999999976207 0 0  0.9199999999975974 0 0  0.9279999999975741 0 0  0.9359999999975508 0 0  0.9439999999975274 0 0  0.9519999999975041 0 0  0.9599999999974808 0 0  0.9679999999974574 0 0  0.9759999999974341 0 0  0.9839999999974108 0 0  0.9919999999973981 0 0  0.9999999999973858 0 0  1.007999999997396 0 0  1.015999999997406 0 0  1.023999999997427 0 0  1.031999999997449 0 0  1.039999999997469 0 0  1.04799999999749 0 0  1.055999999997512 0 0  1.063999999997533 0 0  1.071999999997554 0 0  1.079999999997575 0 0  1.087999999997596 0 0  1.095999999997617 0 0  1.103999999997638 0 0  1.111999999997659 0 0  1.11999999999768 0 0  1.127999999997702 0 0  1.135999999997722 0 0  1.143999999997744 0 0  1.151999999997765 0 0  1.159999999997786 0 0  1.167999999997807 0 0  1.175999999997828 0 0  1.183999999997849 0 0  1.19199999999787 0 0  1.199999999997891 0 0  1.207999999997912 0 0  1.215999999997933 0 0  1.223999999997955 0 0  1.231999999997976 0 0  1.239999999997997 0 0  1.247999999998018 0 0  1.255999999998039 0 0  1.26399999999806 0 0  1.271999999998081 0 0  1.279999999998102 0 0  1.287999999998123 0 0  1.295999999998144 0 0  1.303999999998166 0 0  1.311999999998186 0 0  1.319999999998208 0 0  1.327999999998229 0 0  1.33599999999825 0 0  1.343999999998271 0 0  1.351999999998292 0 0  1.359999999998313 0 0  1.367999999998334 0 0  1.375999999998355 0 0  1.383999999998376 0 0  1.391999999998397 0 0  1.399999999998418 0 0  1.40799999999844 0 0  1.41599999999846 0 0  1.423999999998482 0 0  1.431999999998503 0 0  1.439999999998524 0 0  1.447999999998545 0 0  1.455999999998566 0 0  1.463999999998587 0 0  1.471999999998608 0 0  1.479999999998629 0 0  1.48799999999865 0 0  1.495999999998672 0 0  1.503999999998693 0 0  1.511999999998714 0 0  1.519999999998735 0 0  1.527999999998756 0 0  1.535999999998777 0 0  1.543999999998798 0 0  1.551999999998819 0 0  1.55999999999884 0 0  1.567999999998861 0 0  1.575999999998882 0 0  1.583999999998904 0 0  1.591999999998924 0 0  1.599999999998946 0 0  1.607999999998967 0 0  1.615999999998988 0 0  1.623999999999009 0 0  1.63199999999903 0 0  1.639999999999051 0 0  1.647999999999072 0 0  1.655999999999093 0 0  1.663999999999114 0 0  1.671999999999136 0 0  1.679999999999157 0 0  1.687999999999177 0 0  1.695999999999199 0 0  1.70399999999922 0 0  1.711999999999241 0 0  1.719999999999262 0 0  1.727999999999283 0 0  1.735999999999304 0 0  1.743999999999325 0 0  1.751999999999346 0 0  1.759999999999367 0 0  1.767999999999389 0 0  1.775999999999409 0 0  1.783999999999431 0 0  1.791999999999452 0 0  1.799999999999473 0 0  1.807999999999494 0 0  1.815999999999515 0 0  1.823999999999536 0 0  1.831999999999557 0 0  1.839999999999578 0 0  1.847999999999599 0 0  1.85599999999962 0 0  1.863999999999641 0 0  1.871999999999663 0 0  1.879999999999684 0 0  1.887999999999705 0 0  1.895999999999726 0 0  1.903999999999747 0 0  1.911999999999768 0 0  1.919999999999789 0 0  1.92799999999981 0 0  1.935999999999831 0 0  1.943999999999853 0 0  1.951999999999873 0 0  1.959999999999895 0 0  1.967999999999916 0 0  1.975999999999937 0 0  1.983999999999958 0 0  1.991999999999979 0 0  2 0.007999999999985056 0  2 0.01599999999997076 0  2 0.02399999999995914 0  2 0.03199999999993772 0  2 0.03999999999991205 0  2 0.04799999999988908 0  2 0.05599999999986612 0  2 0.06399999999984315 0  2 0.07199999999982019 0  2 0.07999999999979179 0  2 0.08799999999976883 0  2 0.09599999999974587 0  2 0.1039999999997452 0  2 0.1119999999997669 0  2 0.1199999999997886 0  2 0.1279999999998103 0  2 0.135999999999832 0  2 0.1439999999998537 0  2 0.1519999999998738 0  2 0.1599999999998949 0  2 0.1679999999999159 0  2 0.175999999999937 0  2 0.183999999999958 0  2 0.191999999999979 0  1.991999999999967 0.2 0  1.983999999999933 0.2 0  1.9759999999999 0.2 0  1.967999999999867 0.2 0  1.959999999999834 0.2 0  1.9519999999998 0.2 0  1.943999999999767 0.2 0  1.935999999999734 0.2 0  1.9279999999997 0.2 0  1.919999999999667 0.2 0  1.911999999999634 0.2 0  1.9039999999996 0.2 0  1.895999999999567 0.2 0  1.887999999999534 0.2 0  1.879999999999501 0.2 0  1.871999999999467 0.2 0  1.863999999999434 0.2 0  1.855999999999401 0.2 0  1.847999999999367 0.2 0  1.839999999999334 0.2 0  1.831999999999301 0.2 0  1.823999999999268 0.2 0  1.815999999999234 0.2 0  1.807999999999201 0.2 0  1.799999999999168 0.2 0  1.791999999999135 0.2 0  1.783999999999101 0.2 0  1.775999999999068 0.2 0  1.767999999999035 0.2 0  1.759999999999017 0.2 0  1.751999999999006 0.2 0  1.743999999999028 0.2 0  1.735999999999061 0.2 0  1.727999999999112 0.2 0  1.719999999999168 0.2 0  1.711999999999223 0.2 0  1.703999999999279 0.2 0  1.695999999999334 0.2 0  1.68799999999939 0.2 0  1.679999999999446 0.2 0  1.671999999999501 0.2 0  1.663999999999557 0.2 0  1.655999999999612 0.2 0  1.647999999999668 0.2 0  1.639999999999723 0.2 0  1.631999999999779 0.2 0  1.623999999999834 0.2 0  1.61599999999989 0.2 0  1.607999999999945 0.2 0  1.600000000000001 0.2 0  1.592000000000056 0.2 0  1.584000000000112 0.2 0  1.576000000000167 0.2 0  1.568000000000223 0.2 0  1.560000000000279 0.2 0  1.552000000000334 0.2 0  1.54400000000039 0.2 0  1.536000000000445 0.2 0  1.528000000000501 0.2 0  1.520000000000556 0.2 0  1.512000000000612 0.2 0  1.504000000000667 0.2 0  1.496000000000723 0.2 0  1.488000000000778 0.2 0  1.480000000000834 0.2 0  1.472000000000889 0.2 0  1.464000000000945 0.2 0  1.456000000001 0.2 0  1.448000000001056 0.2 0  1.440000000001112 0.2 0  1.432000000001167 0.2 0  1.424000000001223 0.2 0  1.416000000001278 0.2 0  1.408000000001334 0.2 0  1.400000000001389 0.2 0  1.392000000001445 0.2 0  1.3840000000015 0.2 0  1.376000000001556 0.2 0  1.368000000001611 0.2 0  1.360000000001667 0.2 0  1.352000000001722 0.2 0  1.344000000001778 0.2 0  1.336000000001833 0.2 0  1.328000000001889 0.2 0  1.320000000001944 0.2 0  1.312000000002 0.2 0  1.304000000002055 0.2 0  1.296000000002111 0.2 0  1.288000000002166 0.2 0  1.280000000002222 0.2 0  1.272000000002277 0.2 0  1.264000000002333 0.2 0  1.256000000002388 0.2 0  1.248000000002444 0.2 0  1.240000000002499 0.2 0  1.232000000002555 0.2 0  1.22400000000261 0.2 0  1.216000000002666 0.2 0  1.208000000002721 0.2 0  1.200000000002777 0.2 0  1.192000000002832 0.2 0  1.184000000002888 0.2 0  1.176000000002943 0.2 0  1.168000000002999 0.2 0  1.160000000003054 0.2 0  1.15200000000311 0.2 0  1.144000000003165 0.2 0  1.136000000003221 0.2 0  1.128000000003276 0.2 0  1.120000000003332 0.2 0  1.112000000003387 0.2 0  1.104000000003443 0.2 0  1.096000000003498 0.2 0  1.088000000003554 0.2 0  1.080000000003609 0.2 0  1.072000000003665 0.2 0  1.06400000000372 0.2 0  1.056000000003776 0.2 0  1.048000000003831 0.2 0  1.040000000003887 0.2 0  1.032000000003942 0.2 0  1.024000000003998 0.2 0  1.016000000004053 0.2 0  1.008000000004088 0.2 0  1.000000000004121 0.2 0  0.99200000000411 0.2 0  0.984000000004098 0.2 0  0.9760000000040647 0.2 0  0.9680000000040314 0.2 0  0.9600000000039981 0.2 0  0.9520000000039648 0.2 0  0.9440000000039312 0.2 0  0.9360000000038982 0.2 0  0.928000000003864
[...]
<PointData  Scalars="concentration"> 
<DataArray  type="Float64"  Name="concentration"  format="ascii">1.0000000000000000e+00  3.2508332397320573e-02  2.9477851563898504e-02  1.0000000000000000e+00  1.6971686246449533e+00  1.0061967413602446e+00  1.0090600863101271e+00  1.0685816357649920e+00  9.1027305324051477e-01  7.6117755629311679e-01  1.1389885042052317e+00  7.0001598921627983e-01  8.1566255625807271e-01  9.1353137375339610e-01  5.3329975226471582e-01  8.9584847554291025e-01  6.1594416595124246e-01  7.6849803602771150e-01  1.6252152915712310e+00  6.2149177494388208e-01  1.4134267090513195e+00  1.4281969341887357e+00  1.2695372177712521e+00  8.1193088222194332e-01  1.2112022114508578e+00  7.5752917920179430e-01  8.5900980490310552e-01  1.1710299170650447e+00  4.9871133248517446e-01  8.3193279375644136e-01  1.1739165623083976e+00  6.6435622492274105e-01  4.8789061964689451e-01  -1.3329412000293950e+00  5.7838531594714759e-01  1.4888144084159885e-01  9.4329135554008448e-01  1.8655102228971679e-01  5.6520658606468148e-02  -3.1954330473615129e-02  -2.4262742619801025e-01  5.9026390525374228e-02  -1.8257686139098453e-01  -3.9410346151811804e-01  -6.5350348826218796e-01  2.0697002692313085e-01  -5.2191414257366475e-01  -1.8346376229161734e-01  1.2234823701748326e-01  -9.5613520424944010e-01  -2.2146529676868479e-01  -9.1779120497020195e-01  -1.6157977760700623e-01  3.1312793271077644e-01  3.2402079733850682e-02  5.5682310293178905e-01  -1.5635130954988519e-01  -8.1646658283707138e-02  -2.9312813554469755e-02  -3.9193427452087193e-01  2.8994673743490924e-02  -3.3429738023271766e-01  -4.3386240772749796e-01  -1.2954224735705500e-01  -6.1178176900839376e-01  -7.9395678161206629e-02  2.2364559897477154e-01  -6.6389141270298546e-01  -1.2762672572035993e-01  4.2931572371093296e-01  -7.8566811988603835e-01  5.4457787665971452e-03  3.4461019368007872e-01  2.2988210633735112e-02  7.7196323775901798e-02  -6.6085204884866833e-01  -3.3059399142043761e-01  -6.7690425941500287e-01  -3.8829609115672437e-01  -1.0947389513728585e+00  -7.4213060380410523e-01  -2.6958599658760141e-01  1.0803335828107614e-01  -1.1363369702422186e+00  -6.3783009198391949e-01  5.6215804521131410e-02  3.8699834337127420e-01  -4.8671835172050043e-01  -5.7360587154754894e-01  -3.1903430073356409e-01  -8.8115953765947264e-01  -3.8208099196315221e-01  -6.6315257737151112e-01  -8.2938878085485757e-01  -7.9839222884096506e-01  -4.9730930483630692e-01  -8.9494112674386084e-01  -9.3189872203422480e-02  -3.7101414722976733e-01  -5.2213716099681347e-02  -1.6969450286091065e-01  -4.2363854016866920e-01  -4.5460992454383620e-01  -2.0962712662274316e-01  -3.0963933821298051e-01  1.0201514874980153e-01  -2.8065964014107092e-01  -2.4461452359655836e-01  -8.2534885750789544e-01  -2.3626190332720706e-01  -6.8104581734160785e-01  -2.7060229953940397e-02  -2.1622455389409068e-01  -1.6984319622986793e-01  -3.4730170666367394e-01  8.0822060574546983e-01  -3.2578973773485786e-01  -4.1694241503086660e-01  -6.2917510931559772e-01  -5.1593141464310877e-01  -1.1795950263619890e+00  -9.0861318801339785e-01  -3.6108097554683444e-01  -5.6572470539762421e-01  -3.4926299762546176e-01  -3.9012466418511815e-01  -4.1054269011804589e-01  -1.6827098784044053e-01  -2.8981516633453308e-01  -3.4088853840720940e-01  -1.1419569048662902e-01  -1.5981907442728771e-01  -2.2279504375440604e-01  3.8366272691231773e-01  -4.4463621897217837e-01  2.0342776934641031e-02  -2.7293021531263666e-02  -1.4342457331074562e-01  -1.8750528822894182e-02  -1.9241074405526384e-01  -9.4496588400680009e-02  -2.6180584424421510e-01  -3.2303829671960194e-01  -4.6176472737183651e-02  1.3556264442079796e-01  -7.4722307497508766e-01  -1.7114472537940481e-01  1.3627737797920128e-01  -7.3963697430310643e-02  -3.1429133849659152e-01  -2.2897301835632800e-01  -2.7004497194209498e-01  2.6365254823383910e-01  -1.8491049695833833e-01  -2.7230126648975722e-01  -3.1403911764973436e-01  6.9863830241624722e-02  4.2643011651955082e-01  -3.3753423579033048e-01  3.5282287172720078e-01  -1.6824138670311298e-01  -1.3538616091519504e-01  -4.3484768127023266e-01  1.6047201717872106e-01  -4.5756264306050198e-01  2.4035122516499330e-01  1.4233680544336336e-01  -2.8491133386088308e-01  -1.2296231609126858e-01  4.0152981548802591e-01  3.2110682672057536e-02  -1.1980191933540550e-01  -2.9743225742046103e-01  9.3281673440644280e-02  4.2389516404130212e-01  -2.5288576322546474e-01  3.3513116384706415e-01  -3.0638246547739256e-01  2.0058399051986999e-02  1.6291979767493683e-01  -1.0715446613769054e-01  -8.1854024585003085e-02  2.6779122657467358e-01  -3.3559413585333042e-01  -9.3160561927602151e-02  -3.2823310789995030e-01  -8.3421430961608631e-02  -1.0185104514886116e+00  1.6772257674688038e-01  1.3947647354435716e-01  2.2137808040764453e-01  4.2914771400081841e-01  2.0755773027474569e-01  6.0372857541138791e-01  3.0884086487441459e-01  -5.9065043217297879e-02  1.1886700499051901e-01  -1.6400209055452382e-03  -5.3319604179331737e-02  -2.0635162900040913e-01  -7.0710396796940056e-01  -1.2260160058201536e-01  -9.5604181960608825e-02  7.1131534714786605e-03  6.5611544692928114e-01  1.3969086526946989e-01  1.2094078059990079e+00  -2.8161713045068076e-01  -9.6444407943767477e-02  1.9586151914239119e-01  -1.3998661917559913e-01  3.0372367018501745e-01  -2.3575015523402848e-01  1.7875579405807387e-02  2.6073762614187296e-01  2.1495500364154360e-01  -2.4039094052125110e-01  3.3858033850911579e-01  1.1914837104586497e-01  1.2282727661577850e-01  8.0149846925220855e-02  4.7992571082548041e-01  5.7222857170247082e-02  -3.5245786219968200e-01  -4.7146720032711425e-03  -1.1009471175662978e-01  1.0612795588475557e-01  1.0674296397829330e-01  1.1695229114583976e-01  4.1296791629925257e-02  -3.8445283498298033e-01  2.0957767174558073e-01  8.7704638894414183e-02  -1.5481482477670355e-01  1.6981911775282515e-01  1.1794225915095163e-01  1.3375901031682059e-02  1.1861341055221167e-01  1.1214554819355818e-01  6.3984084101645008e-02  -3.1816783682523275e-02  2.3666515441840823e-03  -8.6424009694544557e-02  2.1379414791147153e-01  5.3927492795740786e-02  -7.1379480995795150e-02  1.6160399289149627e-01  -2.1873212289975089e-02  -4.2146788344536980e-02  1.5049718879667287e-01  4.9159236342660728e-02  -3.0311426932469764e-02  2.3420631216102425e-01  -4.1095379708008535e-02  5.1936444464848054e-02  5.1817804335934847e-01  9.9597806476613537e-01  1.0011185333997754e+00  9.6868095124497144e-01  9.9806807391650809e-01  1.0403056313554699e+00  1.0017055362752685e+00  9.5922633669558310e-01  1.0260582479070381e+00  1.0095159261234681e+00  1.0161767947985436e+00  9.9866971929743098e-01  9.9850871964244259e-01  1.0154112409091356e+00  1.0365251301881360e+00  9.9329708284669904e-01  9.9688240718405419e-01  1.0278125393731430e+00  1.0071593717160561e+00  5.3334422773102574e-01  2.8051211276244360e-02  -3.9619913313758290e-02  -4.1111549127541079e-02  -1.0550245559091782e-01  3.0291171497556953e-02  1.9998342092542634e-01  -1.1543156040997969e-01  -7.9423428229020029e-02  1.0509753334777365e-01  -1.5260622286308076e-01  5.7904753654717769e-02  2.8987135704189626e-01  -8.5317852953449819e-02  8.5202777190248935e-02  1.2939908514118378e-01  1.5513762092895717e-01  -4.7645344144133545e-01  -3.9557349815046629e-03  -2.2320651360736472e-02  9.3566040493772984e-02  -6.8596653683465375e-02  -2.8820673719900561e-02  2.0185638634581707e-01  -9.9778434347299425e-02  -1.1317971984164756e-02  -1.0908996764221982e-01  2.4479108299495347e-01  4.0328928605882795e-02  -4.7751855003435334e-01  6.5923654460442127e-01  -2.7633565540490096e-01  -4.3333801960010743e-01  6.3372247231842024e-03  3.8209130698962601e-01  -9.3549301841721472e-02  -1.3069857212294925e-01  9.7904250274297860e-02  7.7220728953543746e-02  1.3001775211377914e-02  2.9175805363451052e-01  -1.7596028912320170e-02  -2.3970495275941150e-01  2.7207327722892978e-02  1.4414743035763175e-01  -2.1761408075873520e-01  2.7992922257467263e-02  1.9184121864998374e-01  -1.1406428346268664e+00  6.8122561292715800e-01  -3.3559203235357174e-02  3.4116077892200652e-01  -3.2548587195820289e-01  -6.5991447668985695e-02  -1.7793560242555795e-01  -5.2635507730654751e-01  3.8875512657092715e-01  -1.0805831722839947e-01  -1.5559769100680781e-01  3.4760362513683996e-01  1.6533959541910181e-01  -5.4595177249120809e-02  -5.6474884095284217e-01  4.2629301390025527e-02  3.1806350711682518e-01  8.5871984610451577e-02  -1.7656072508314864e-02  9.2476928000692071e-03  -2.9341476403701239e-01  -4.1967096577672322e-02  2.4126025295446876e-01  -4.1773644400317049e-02  4.0480944908913108e-01  -1.8787803936765823e-01  1.5442198725194878e-01  3.8906402991353994e-01  -1.3508763562162865e-01  1.0800825614283036e-02  -1.9371544093761772e-01  -7.1654774047287306e-01  -2.5256687518338655e-01  6.3860670726675048e-02  -6.9231041905307278e-01  5.8531040958980107e-01  2.0757880612167373e-01  3.3458355738677753e-01  -1.3837523544235084e-01  2.4108938423751125e-01  -3.7827980412123863e-01  2.0412662173780845e-02  -5.7728653789098118e-02  -2.6846528742668890e-01  -6.3910561980318115e-01  -3.1103671814714906e-01  -3.5692608876741005e-01  5.0534235159645158e-01  8.6916295419178680e-01  -6.0141909850064970e-02  4.1040292395503319e-01  -2.6586009595395044e-01  -3.6388311692533382e-01  -8.1982625895745054e-01  -3.0781295780368018e-01  -8.1847280050695650e-02  2.2460613917071999e-02  -4.0337116366714965e-01  -1.2190187310225541e-01  -1.5652710855511440e-01  -7.2662112713287486e-01  1.3499783327595822e+00  2.5846790839244849e-01  3.0451332465233866e-01  1.9823002282316978e-02  1.8186136062557626e-01  -5.3915724451825764e-01  -1.8794143095968593e-01  -2.5689238820198368e-01  -1.9356533908610440e-01  -1.7958006137964658e-01  -4.5943195891997624e-01  -1.4310197314748413e-01  -3.1359957733211130e-01  -1.5626877257638714e+00  -1.4624090223709726e-01  -7.6047735397280852e-02  -3.8425856329754027e-01  -2.9831425352651231e-01  -3.1252440973048179e-01  -2.7605870444729264e-01  -1.8669356820590255e+00  -1.7568433304871431e-01  -7.0783465918126801e-02  -9.8179952315614688e-02  1.9892112354539690e-01  -7.3390722806059502e-02  -7.0823806294739305e-02  4.9326609383554354e-01  1.9404873460532954e-01  -2.9173696060516302e-01  4.1786036623586270e-01  -4.4200759823987440e-01  -2.0944719565389511e-01  -2.8886864707359772e-01  1.0051996685454792e+00  2.8068509825666277e-01  1.2045970065158288e-02  -4.9561554484710424e-01  -8.7741766410675770e-02  -2.7174041818068456e-01  -8.6398336734118963e-01  -6.0050367039038721e-01  -4.3616888232003054e-01  2.1805440280667140e-01  -4.1916020032423040e-01  9.8769579320858863e-02  -8.1088591321498080e-02  2.2972544889980864e-01  -3.4265951860851773e-01  -2.2167036918574640e-01  -5.9487007828721139e-01  -5.3089475536641306e-01  -7.5721842635794234e-01  -2.4599371719957094e-01  -1.2126749982373495e+00  -4.0670711888570882e-01  -8.4612135332713034e-01  -4.3098384538687917e-01  -5.8478256671588555e-02  -7.7204089482613120e-02  5.4529060568626320e-01  -2.5454520215937265e-01  -2.5563245298635118e-01  -3.3843019961336224e-01  -3.5020745775170142e-01  -6.3105320525611130e-01  -2.5774854612501702e-01  -7.5832376369620746e-01  -4.3682386336332846e-01  -4.3268969189543266e-01  -5.1632400007823587e-01  -3.4552935260711554e-01  -2.3070948563085533e-01  -9.3819272136332593e-02  -6.1896642887126530e-01  -2.1888947008435375e-01  -2.3824151045976866e-01  -2.6295745898694811e-01  7.3943155829017601e-02  -1.0289920768371016e-01  2.8662566255738331e-01  -1.5972647579538177e-01  -1.3128520493259368e+00  -8.5114239807420403e-02  -2.2681948631172885e-01  -1.2328043172257046e-01  -1.6587511805576327e-01  -3.1700864674733903e-01  -2.7834356758415829e-01  -9.1325507043380716e-01  -3.1743530274431470e-01  -8.7494858568002210e-01  -1.8910859097824162e-01  5.8302285801808584e-01  2.2477386847986247e-01  6.3573455906766789e-03  3.1656006381325802e-01  6.7587982538927963e-02  2.0136830963399663e-01  -9.2400205361452992e-01  5.2443415063473608e-01  2.7217391346372388e-01  6.0077002902858619e-02  2.4933375883219427e-01  4.4033501572527817e-01  9.4602795333656231e-01  -1.0036799364495576e-01  4.3905912546942011e-02  4.3780958671844816e-01  -1.5286928342354134e-01  3.6581304535457032e-01  6.2285175878672105e-02  4.4108702398928633e-02  1.1556346226361396e+00  7.4880073953718884e-01  2.9510697078389503e-01  1.4912216216375598e-01  1.4242415385928533e+00  3.7200106531522448e-01  2.1595512971280120e-01  1.5884013002174067e+00  -3.7655493859481576e-01  5.1215666110528490e-01  1.6643138684106416e+00  1.4152014220296658e+00  5.9208696580791054e-01  1.0639713680207878e+00  1.1961309488850733e+00  -8.1013107850610010e-03  7.1579634410745629e-01  5.3815658272094025e-01  9.5081068980276429e-01  4.8964932052453597e-01  1.1285501688580499e+00  1.0127319567289264e+00  2.3230524620030438e-01  6.0192095740533302e-01  1.1955570728462501e+00  1.3322081681282134e+00  1.3296111418921219e+00  1.4649814124470144e+00  1.5886808202610800e+00  1.5391312779872470e+00  1.0000000000000000e+00  1.0000000000000000e+00  1.0000000000000000e+00  1.0000000000000000e+00  1.0000000000000000e+00  1.0000000000000000e+00  1.0000000000000000e+00  1.0000000000000000e+00  1.0000000000000000e+00  1.0000000000000000e+00  1.0000000000000000e+00  1.0000000000000000e+00  1.0000000000000000e+00  1.0000000000000000e+00  1.0000000000000000e+00  1.0000000000000000e+00  1.0000000000000000e+00  1.0000000000000000e+00  1.0000000000000000e+00  1.0000000000000000e+00  1.0000000000000000e+00  1.0000000000000000e+00  1.0000000000000000e+00  1.0000000000000000e+00  1.1005984038394101e+00  1.0226206498667014e+00  1.1146778678354325e+00  1.0351494346870456e+00  1.0392670631159004e+00  1.0310021516008951e+00  9.9066356918648679e-01  1.0288862033259008e+00  9.4386122871282097e-01  1.0291974657951466e+00  1.0089410663545033e+00  9.3368530712298636e-01  1.0050154353996017e+00  9.9190266344931410e-01  9.6704427911639945e-01  1.0260422050017015e+00  1.0302718590104767e+00  1.0991486180818646e+00  9.5777558747588321e-01  1.0004331677996627e+00  9.3657955708484586e-01  9.8741771861179417e-01  9.6610173501615371e-01  9.8008918826467362e-01  1.0275020406279451e+00  9.8218132566277816e-01  9.9201480312189882e-01  9.8024501849600698e-01  1.0204448638941754e+00  1.0317764814384334e+00  9.7772817434087278e-01  1.0297554865766507e+00  1.0499086606974699e+00  1.0538725633344137e+00  9.6108923351913156e-01  9.6478536835171547e-01  1.0198787681640964e+00  1.1372999069417931e+00  9.6715297666205668e-01  9.3845698500392494e-01  9.6916982651391881e-01  1.0830892500181348e+00  9.8450120290475640e-01  1.0340213787458257e+00  1.0088324995767555e+00  1.0787785499587603e+00  1.1223052638540671e+00  8.7531978626038587e-01  9.4581005320693234e-01  1.0288118050662207e+00  9.8345299167792899e-01  9.5110152012887317e-01  9.8886758703802591e-01  1.0117369159738274e+00  1.0178608459956497e+00  9.4298539426409234e-01  9.7423270980693433e-01  1.0410368741551810e+00  9.1870101953601913e-01  1.0234596134179419e+00  1.0342216732142753e+00  9.8683202259706659e-01  9.7507745124264300e-01  1.0197359194137654e+00  1.0087796755830949e+00  9.2714701111919995e-01  1.1072002811102197e+00  8.8988178457324119e-01  9.8337995966914049e-01  1.0526605474076107e+00  9.4786681794190097e-01  1.0014648687102561e+00  9.9314359725080592e-01  9.9712159014559421e-01  1.0091216696242233e+00  9.9562456441448566e-01  1.0514264547188332e+00  9.9508579313298717e-01  1.0490182376358836e+00  9.4689573936789062e-01  9.5257409966676732e-01  1.0266061688727157e+00  1.0657998022306199e+00  1.0017091042804167e+00  1.0288055519069059e+00  9.1252074709546771e-01  9.2909465597151319e-01  9.1256795539177293e-01  1.0720741388761170e+00  9.5357062577321383e-01  9.5973004955375552e-01  1.1370316092669364e+00  1.0736464888476509e+00  1.0185915273966881e+00  9.6512641099815610e-01  1.1040994237396562e+00  1.0020148535619307e+00  8.8394921446705677e-01  1.0853820561802305e+00  8.9552547787336179e-01  1.0056195173370177e+00  1.0177561777669979e+00  8.8424362189600247e-01  1.0859603247289140e+00  1.0116720852845993e+00  1.0261349902948369e+00  1.1009798556140462e+00  1.0518420016131349e+00  1.0528631460398090e+00  9.4892785899316401e-01  1.0185964429454994e+00  1.0199992700323035e+00  1.0027605460030042e+00  9.8853453505196398e-01  9.7398088227348079e-01  1.0140696829835441e+00  9.6592470734624614e-01  9.3102368889236209e-01  1.0361788793956566e+00  1.0361813632091581e+00  1.0741223004546376e+00  9.9084006990597495e-01  9.7748360532768441e-01  1.0179554740979575e+00  1.0485843611457570e+00  1.0955024889068325e+00  1.0460260104024919e+00  1.1297184561510418e+00  1.0291248434032523e+00  1.0078103339130089e+00  9.0114940135562627e-01  1.0255820132629325e+00  9.7587852312537038e-01  1.0232125016082227e+00  1.1340271059748239e+00  9.8220368622328791e-01  8.9324091474906542e-01  9.8116649494057373e-01  9.8965384794402200e-01  1.0373769837554971e+00  1.0037275311515217e+00  9.4957908642490563e-01  9.4485072812745452e-01  9.9279660597929031e-01  1.0131957944932501e+00  1.0000449991412170e+00  1.0735152848339393e+00  1.0621223723874584e+00  1.1833049126843473e+00  1.0930577592068189e+00  1.0468187891247918e+00  1.0517409254076930e+00  1.0799095490860249e+00  1.1401568405085361e+00  9.3619377699618089e-01  9.4484820391145496e-01  1.0405349655255898e+00  1.0794264527167816e+00  1.0001911863521487e+00  1.0007031242457327e+00  1.0632922179767454e+00  1.0329248949155871e+00  1.0677797352508016e+00  9.9545382080801881e-01  1.0334045962039911e+00  1.0363107607801794e+00  1.0252923388870525e+00  1.0779582054990593e+00  1.0127424840535775e+00  1.0473300665828991e+00  1.0757592657040920e+00  1.1450158928406700e+00  9.2195660352791442e-01  9.2110355024694390e-01  9.7996773404051341e-01  1.0029376796458342e+00  1.0689108902699496e+00  1.0404863686722183e+00  1.0429948626119565e+00  1.0578538139019511e+00  9.8991977401477449e-01  1.0280642529752602e+00  1.0170545116385581e+00  9.2587812955379722e-01  9.6971441359451205e-01  1.0560780980196176e+00  1.0140066706541897e+00  9.5631090716025091e-01  1.0203667987927920e+00  1.0159749637153432e+00  1.1248512502382788e+00  9.9866733175456535e-01  1.0444347920047954e+00  1.0961798000211191e+00  1.0634668992598257e+00  1.0400638105045161e+00  1.1192969712962417e+00  1.0545104136497931e+00  1.0766633312545624e+00  9.6359275022375568e-01  9.1928279176504624e-01  1.1010400014921784e+00  9.6027005685576472e-01  9.4723572644598075e-01  9.9592505938695519e-01  1.0866389127074936e+00  1.0077017382229252e+00  9.3015878460496315e-01  9.3127904891775615e-01  1.0223787873908159e+00  9.8372476329210379e-01  9.8954452896188327e-01  9.6961556665675963e-01  1.0403672377349102e+00  8.7594979016043195e-01  1.0257602765206510e+00  1.0649077752541838e+00  1.0250211392294630e+00  9.8561855554422861e-01  1.0235677615008627e+00  9.9148451518203795e-01  1.0426857879289035e+00  1.0204295561357608e+00  1.0516725749641529e+00  1.0108635730392439e+00  9.3072354471303109e-01  1.0145612201161613e+00  1.0037845478971625e+00  9.1920914459682601e-01  1.1249535483779451e+00  1.0102952184156424e+00  1.0791537258680060e+00  1.0552933818652512e+00  1.0155763730937319e+00  1.0185596289748280e+00  9.8942765740719707e-01  9.8025508305025777e-01  1.0167327285649626e+00  9.8404479885461638e-01  9.3058618391875736e-01  9.5044905354566478e-01  9.1879818380473921e-01  1.0393699798994163e+00  9.4300492696000404e-01  9.7854337884314579e-01  1.0877790694717162e+00  9.0969463842842324e-01  9.9423859220699973e-01  1.0010758576982741e+00  1.0058886622660441e+00  8.7324513650515789e-01  1.0302829673444631e+00  1.0933155822327600e+00  1.0319995026170710e+00  1.1741804953047321e+00  1.0941676696051938e+00  9.8273476944514393e-01  1.0062949954558769e+00  9.8469185546805016e-01  9.8843287379518585e-01  1.0202297963015703e+00  1.0426645554888412e+00  9.4678334607734738e-01  1.0401472531786753e+00  1.0596778916228946e+00  1.0484462563730632e+00  1.0588180691698119e+00  9.1220931238