<?xml version="1.0"?>
<VTKFile type="UnstructuredGrid"  version="0.1"  >
<UnstructuredGrid>
<Piece  NumberOfPoints="8545" NumberOfCells="16538">
<Points>
<DataArray  type="Float64"  NumberOfComponents="3"  format="ascii">0 0 0  2 0 0  2 0.2 0  0 0.2 0  0.007999999999984813 0 0  0.01599999999996964 0 0  0.02399999999995461 0 0  0.03199999999993959 0 0  0.03999999999992457 0 0  0.04799999999990945 0 0  0.05599999999989373 0 0  0.06399999999987775 0 0  0.07199999999986065 0 0  0.07999999999984338 0 0  0.08799999999982558 0 0  0.09599999999980778 0 0  0.10399999999979 0 0  0.1119999999997726 0 0  0.1199999999997562 0 0  0.1279999999997408 0 0  0.1359999999997272 0 0  0.1439999999997141 0 0  0.1519999999997019 0 0  0.1599999999996896 0 0  0.1679999999996774 0 0  0.1759999999996651 0 0  0.1839999999996529 0 0  0.1919999999996407 0 0  0.1999999999996284 0 0  0.2079999999996162 0 0  0.2159999999996039 0 0  0.2239999999995916 0 0  0.2319999999995794 0 0  0.2399999999995652 0 0  0.2479999999995501 0 0  0.2559999999995309 0 0  0.2639999999995103 0 0  0.2719999999994875 0 0  0.2799999999994642 0 0  0.2879999999994408 0 0  0.2959999999994175 0 0  0.3039999999993941 0 0  0.3119999999993708 0 0  0.3199999999993474 0 0  0.3279999999993241 0 0  0.3359999999993007 0 0  0.3439999999992774 0 0  0.351999999999254 0 0  0.3599999999992307 0 0  0.3679999999992074 0 0  0.375999999999184 0 0  0.3839999999991606 0 0  0.3919999999991373 0 0  0.3999999999991139 0 0  0.4079999999990906 0 0  0.4159999999990672 0 0  0.4239999999990439 0 0  0.4319999999990204 0 0  0.4399999999989971 0 0  0.4479999999989738 0 0  0.4559999999989504 0 0  0.463999999998927 0 0  0.4719999999989037 0 0  0.4799999999988804 0 0  0.487999999998857 0 0  0.4959999999988337 0 0  0.5039999999988103 0 0  0.511999999998787 0 0  0.5199999999987636 0 0  0.5279999999987403 0 0  0.5359999999987169 0 0  0.5439999999986936 0 0  0.5519999999986703 0 0  0.559999999998647 0 0  0.5679999999986237 0 0  0.5759999999986004 0 0  0.583999999998577 0 0  0.5919999999985537 0 0  0.5999999999985304 0 0  0.6079999999985071 0 0  0.6159999999984838 0 0  0.6239999999984605 0 0  0.6319999999984371 0 0  0.6399999999984138 0 0  0.6479999999983904 0 0  0.6559999999983671 0 0  0.6639999999983438 0 0  0.6719999999983205 0 0  0.6799999999982972 0 0  0.6879999999982739 0 0  0.6959999999982506 0 0  0.7039999999982272 0 0  0.7119999999982038 0 0  0.7199999999981805 0 0  0.7279999999981572 0 0  0.7359999999981339 0 0  0.7439999999981106 0 0  0.7519999999980873 0 0  0.759999999998064 0 0  0.7679999999980406 0 0  0.7759999999980173 0 0  0.783999999997994 0 0  0.7919999999979707 0 0  0.7999999999979474 0 0  0.807999999997924 0 0  0.8159999999979007 0 0  0.8239999999978773 0 0  0.831999999997854 0 0  0.8399999999978307 0 0  0.8479999999978074 0 0  0.855999999997784 0 0  0.8639999999977607 0 0  0.8719999999977374 0 0  0.8799999999977141 0 0  0.8879999999976906 0 0  0.8959999999976673 0 0  0.903999999997644 0 0  0.9119999999976207 0 0  0.9199999999975974 0 0  0.9279999999975741 0 0  0.9359999999975508 0 0  0.9439999999975274 0 0  0.9519999999975041 0 0  0.9599999999974808 0 0  0.9679999999974574 0 0  0.9759999999974341 0 0  0.9839999999974108 0 0  0.9919999999973981 0 0  0.9999999999973858 0 0  1.007999999997396 0 0  1.015999999997406 0 0  1.023999999997427 0 0  1.031999999997449 0 0  1.039999999997469 0 0  1.04799999999749 0 0  1.055999999997512 0 0  1.063999999997533 0 0  1.071999999997554 0 0  1.079999999997575 0 0  1.087999999997596 0 0  1.095999999997617 0 0  1.103999999997638 0 0  1.111999999997659 0 0  1.11999999999768 0 0  1.127999999997702 0 0  1.135999999997722 0 0  1.143999999997744 0 0  1.151999999997765 0 0  1.159999999997786 0 0  1.167999999997807 0 0  1.175999999997828 0 0  1.183999999997849 0 0  1.19199999999787 0 0  1.199999999997891 0 0  1.207999999997912 0 0  1.215999999997933 0 0  1.223999999997955 0 0  1.231999999997976 0 0  1.239999999997997 0 0  1.247999999998018 0 0  1.255999999998039 0 0  1.26399999999806 0 0  1.271999999998081 0 0  1.279999999998102 0 0  1.287999999998123 0 0  1.295999999998144 0 0  1.303999999998166 0 0  1.311999999998186 0 0  1.319999999998208 0 0  1.327999999998229 0 0  1.33599999999825 0 0  1.343999999998271 0 0  1.351999999998292 0 0  1.359999999998313 0 0  1.367999999998334 0 0  1.375999999998355 0 0  1.383999999998376 0 0  1.391999999998397 0 0  1.399999999998418 0 0  1.40799999999844 0 0  1.41599999999846 0 0  1.423999999998482 0 0  1.431999999998503 0 0  1.439999999998524 0 0  1.447999999998545 0 0  1.455999999998566 0 0  1.463999999998587 0 0  1.471999999998608 0 0  1.479999999998629 0 0  1.48799999999865 0 0  1.495999999998672 0 0  1.503999999998693 0 0  1.511999999998714 0 0  1.519999999998735 0 0  1.527999999998756 0 0  1.535999999998777 0 0  1.543999999998798 0 0  1.551999999998819 0 0  1.55999999999884 0 0  1.567999999998861 0 0  1.575999999998882 0 0  1.583999999998904 0 0  1.591999999998924 0 0  1.599999999998946 0 0  1.607999999998967 0 0  1.615999999998988 0 0  1.623999999999009 0 0  1.63199999999903 0 0  1.639999999999051 0 0  1.647999999999072 0 0  1.655999999999093 0 0  1.663999999999114 0 0  1.671999999999136 0 0  1.679999999999157 0 0  1.687999999999177 0 0  1.695999999999199 0 0  1.70399999999922 0 0  1.711999999999241 0 0  1.719999999999262 0 0  1.727999999999283 0 0  1.735999999999304 0 0  1.743999999999325 0 0  1.751999999999346 0 0  1.759999999999367 0 0  1.767999999999389 0 0  1.775999999999409 0 0  1.783999999999431 0 0  1.791999999999452 0 0  1.799999999999473 0 0  1.807999999999494 0 0  1.815999999999515 0 0  1.823999999999536 0 0  1.831999999999557 0 0  1.839999999999578 0 0  1.847999999999599 0 0  1.85599999999962 0 0  1.863999999999641 0 0  1.871999999999663 0 0  1.879999999999684 0 0  1.887999999999705 0 0  1.895999999999726 0 0  1.903999999999747 0 0  1.911999999999768 0 0  1.919999999999789 0 0  1.92799999999981 0 0  1.935999999999831 0 0  1.943999999999853 0 0  1.951999999999873 0 0  1.959999999999895 0 0  1.967999999999916 0 0  1.975999999999937 0 0  1.983999999999958 0 0  1.991999999999979 0 0  2 0.007999999999985056 0  2 0.01599999999997076 0  2 0.02399999999995914 0  2 0.03199999999993772 0  2 0.03999999999991205 0  2 0.04799999999988908 0  2 0.05599999999986612 0  2 0.06399999999984315 0  2 0.07199999999982019 0  2 0.07999999999979179 0  2 0.08799999999976883 0  2 0.09599999999974587 0  2 0.1039999999997452 0  2 0.1119999999997669 0  2 0.1199999999997886 0  2 0.1279999999998103 0  2 0.135999999999832 0  2 0.1439999999998537 0  2 0.1519999999998738 0  2 0.1599999999998949 0  2 0.1679999999999159 0  2 0.175999999999937 0  2 0.183999999999958 0  2 0.191999999999979 0  1.991999999999967 0.2 0  1.983999999999933 0.2 0  1.9759999999999 0.2 0  1.967999999999867 0.2 0  1.959999999999834 0.2 0  1.9519999999998 0.2 0  1.943999999999767 0.2 0  1.935999999999734 0.2 0  1.9279999999997 0.2 0  1.919999999999667 0.2 0  1.911999999999634 0.2 0  1.9039999999996 0.2 0  1.895999999999567 0.2 0  1.887999999999534 0.2 0  1.879999999999501 0.2 0  1.871999999999467 0.2 0  1.863999999999434 0.2 0  1.855999999999401 0.2 0  1.847999999999367 0.2 0  1.839999999999334 0.2 0  1.831999999999301 0.2 0  1.823999999999268 0.2 0  1.815999999999234 0.2 0  1.807999999999201 0.2 0  1.799999999999168 0.2 0  1.791999999999135 0.2 0  1.783999999999101 0.2 0  1.775999999999068 0.2 0  1.767999999999035 0.2 0  1.759999999999017 0.2 0  1.751999999999006 0.2 0  1.743999999999028 0.2 0  1.735999999999061 0.2 0  1.727999999999112 0.2 0  1.719999999999168 0.2 0  1.711999999999223 0.2 0  1.703999999999279 0.2 0  1.695999999999334 0.2 0  1.68799999999939 0.2 0  1.679999999999446 0.2 0  1.671999999999501 0.2 0  1.663999999999557 0.2 0  1.655999999999612 0.2 0  1.647999999999668 0.2 0  1.639999999999723 0.2 0  1.631999999999779 0.2 0  1.623999999999834 0.2 0  1.61599999999989 0.2 0  1.607999999999945 0.2 0  1.600000000000001 0.2 0  1.592000000000056 0.2 0  1.584000000000112 0.2 0  1.576000000000167 0.2 0  1.568000000000223 0.2 0  1.560000000000279 0.2 0  1.552000000000334 0.2 0  1.54400000000039 0.2 0  1.536000000000445 0.2 0  1.528000000000501 0.2 0  1.520000000000556 0.2 0  1.512000000000612 0.2 0  1.504000000000667 0.2 0  1.496000000000723 0.2 0  1.488000000000778 0.2 0  1.480000000000834 0.2 0  1.472000000000889 0.2 0  1.464000000000945 0.2 0  1.456000000001 0.2 0  1.448000000001056 0.2 0  1.440000000001112 0.2 0  1.432000000001167 0.2 0  1.424000000001223 0.2 0  1.416000000001278 0.2 0  1.408000000001334 0.2 0  1.400000000001389 0.2 0  1.392000000001445 0.2 0  1.3840000000015 0.2 0  1.376000000001556 0.2 0  1.368000000001611 0.2 0  1.360000000001667 0.2 0  1.352000000001722 0.2 0  1.344000000001778 0.2 0  1.336000000001833 0.2 0  1.328000000001889 0.2 0  1.320000000001944 0.2 0  1.312000000002 0.2 0  1.304000000002055 0.2 0  1.296000000002111 0.2 0  1.288000000002166 0.2 0  1.280000000002222 0.2 0  1.272000000002277 0.2 0  1.264000000002333 0.2 0  1.256000000002388 0.2 0  1.248000000002444 0.2 0  1.240000000002499 0.2 0  1.232000000002555 0.2 0  1.22400000000261 0.2 0  1.216000000002666 0.2 0  1.208000000002721 0.2 0  1.200000000002777 0.2 0  1.192000000002832 0.2 0  1.184000000002888 0.2 0  1.176000000002943 0.2 0  1.168000000002999 0.2 0  1.160000000003054 0.2 0  1.15200000000311 0.2 0  1.144000000003165 0.2 0  1.136000000003221 0.2 0  1.128000000003276 0.2 0  1.120000000003332 0.2 0  1.112000000003387 0.2 0  1.104000000003443 0.2 0  1.096000000003498 0.2 0  1.088000000003554 0.2 0  1.080000000003609 0.2 0  1.072000000003665 0.2 0  1.06400000000372 0.2 0  1.056000000003776 0.2 0  1.048000000003831 0.2 0  1.040000000003887 0.2 0  1.032000000003942 0.2 0  1.024000000003998 0.2 0  1.016000000004053 0.2 0  1.008000000004088 0.2 0  1.000000000004121 0.2 0  0.99200000000411 0.2 0  0.984000000004098 0.2 0  0.9760000000040647 0.2 0  0.9680000000040314 0.2 0  0.9600000000039981 0.2 0  0.9520000000039648 0.2 0  0.9440000000039312 0.2 0  0.9360000000038982 0.2 0  0.928000000003864
[...]
<PointData  Scalars="pressure"> 
<DataArray  type="Float64"  Name="pressure"  format="ascii">9.9999915310684015e-02  9.8010575414650894e-08  9.5579257729941340e-08  9.9999930380836308e-02  9.9600015045130497e-02  9.9200032954819897e-02  9.8799980257112799e-02  9.8400063490829151e-02  9.7999964493172331e-02  9.7599981578464459e-02  9.7199987175817584e-02  9.6800053986493717e-02  9.6399997901325377e-02  9.5999984097990793e-02  9.5599997073686355e-02  9.5199976174049863e-02  9.4800015987993910e-02  9.4399959443883658e-02  9.4000008917088068e-02  9.3599989108990603e-02  9.3199986154906087e-02  9.2799989721800494e-02  9.2400026463266352e-02  9.1999976272795145e-02  9.1599940153789125e-02  9.1200032721813887e-02  9.0799968576512832e-02  9.0400013210024638e-02  8.9999973510726028e-02  8.9599974957276465e-02  8.9199960406251014e-02  8.8800035776348721e-02  8.8399976021319215e-02  8.7999964011904214e-02  8.7600005546471613e-02  8.7199969997532975e-02  8.6800007214729982e-02  8.6400050562167791e-02  8.5999876339001871e-02  8.5600011148827898e-02  8.5199953038083559e-02  8.4800075271208281e-02  8.4399949555618733e-02  8.3999955160205378e-02  8.3599987808410520e-02  8.3200022119809799e-02  8.2799987553422869e-02  8.2400016763844619e-02  8.1999927187131075e-02  8.1600003201740892e-02  8.1199960880693436e-02  8.0799988818588908e-02  8.0400007467287843e-02  7.9999950617292676e-02  7.9599989393598511e-02  7.9199975308160253e-02  7.8799998764414222e-02  7.8399952316437677e-02  7.8000004549945615e-02  7.7599958529638038e-02  7.7200012801658863e-02  7.6800004160794993e-02  7.6400003091548235e-02  7.5999905050010905e-02  7.5600030672375362e-02  7.5199998762936440e-02  7.4799952658307592e-02  7.4399989229902208e-02  7.3999975401373680e-02  7.3599998634463634e-02  7.3199952344795122e-02  7.2800011805154510e-02  7.2399949517296155e-02  7.2000015429526623e-02  7.1599999044134471e-02  7.1200019106669607e-02  7.0799903390391258e-02  7.0400032323937295e-02  6.9999998400229982e-02  6.9599952765336523e-02  6.9199989517580079e-02  6.8799975749307407e-02  6.8399999376154125e-02  6.7999953121634218e-02  6.7600005524014919e-02  6.7199959655557556e-02  6.6800014063101987e-02  6.6400005539125867e-02  6.6000004575974908e-02  6.5599906629025623e-02  6.5200032341434469e-02  6.4800000511103142e-02  6.4399954481413016e-02  6.3999991134390449e-02  6.3599977281584272e-02  6.3200000845298462e-02  6.2799954538322794e-02  6.2400006952292336e-02  6.1999960841067715e-02  6.1600016514482887e-02  6.1200002882205597e-02  6.0800011152875512e-02  6.0399909115888835e-02  6.0000030730342623e-02  5.9600002721167625e-02  5.9199966386316132e-02  5.8800008890671475e-02  5.8399949564812037e-02  5.7999999187467885e-02  5.7599986589087777e-02  5.7199938915351696e-02  5.6800018887134665e-02  5.6399991130020276e-02  5.6000009144879237e-02  5.5599930859474553e-02  5.5200036514514828e-02  5.4800004929760775e-02  5.4399915989437449e-02  5.4000075138945620e-02  5.3599922660548097e-02  5.3199973571580642e-02  5.2800059582077286e-02  5.2399973528760385e-02  5.1999968885549495e-02  5.1600051390927139e-02  5.1199938263295580e-02  5.0800012663487194e-02  5.0399988070972013e-02  4.9999975026276594e-02  4.9599985651445536e-02  4.9200019742261056e-02  4.8799970863468566e-02  4.8400000740016408e-02  4.7999954200331589e-02  4.7600029541666020e-02  4.7199964043177597e-02  4.6800021689514415e-02  4.6399959325779859e-02  4.5999969780317833e-02  4.5600045993073206e-02  4.5199960140454756e-02  4.4799981425831914e-02  4.4399962308070424e-02  4.4000036654172452e-02  4.3599978637704789e-02  4.3199960728876476e-02  4.2800082513425992e-02  4.2399932207732041e-02  4.1999999996784179e-02  4.1599970351532504e-02  4.1199955908579937e-02  4.0800063249322817e-02  4.0399949888429793e-02  3.9999972966644960e-02  3.9599951731580062e-02  3.9200039626619797e-02  3.8799954363981919e-02  3.8400008266453949e-02  3.7999989694043557e-02  3.7599998552684075e-02  3.7199981036597655e-02  3.6800016408935175e-02  3.6399969255203411e-02  3.5999953814267883e-02  3.5600066369598331e-02  3.5199949950956176e-02  3.4799975060477363e-02  3.4399953128474187e-02  3.4000040532882844e-02  3.3599955494254485e-02  3.3200006406608869e-02  3.2799989882530113e-02  3.2400003352614101e-02  3.1999985075242175e-02  3.1600028170352346e-02  3.1199969833599576e-02  3.0799955408824447e-02  3.0400065227799710e-02  2.9999950380978229e-02  2.9599976351507209e-02  2.9199952963922277e-02  2.8800041565171946e-02  2.8399956632604337e-02  2.8000006207505493e-02  2.7599990599369358e-02  2.7200004506778692e-02  2.6799986181005160e-02  2.6400029492110118e-02  2.5999971141799732e-02  2.5599956848621305e-02  2.5200066956264221e-02  2.4799951602102896e-02  2.4399978218019352e-02  2.3999953990291992e-02  2.3600042618881399e-02  2.3199958770010878e-02  2.2800010726755457e-02  2.2399993124289495e-02  2.2000002247497992e-02  2.1599985060834406e-02  2.1200020649471400e-02  2.0799973501084510e-02  2.0399957622978530e-02  2.0000071004063466e-02  1.9599953056900654e-02  1.9199980475417943e-02  1.8799954256532646e-02  1.8400034233826610e-02  1.8000033800414181e-02  1.7599957780858478e-02  1.7199998926475203e-02  1.6799945814834905e-02  1.6400044538379979e-02  1.6000008152983015e-02  1.5600002240276202e-02  1.5199947471411080e-02  1.4799992249851573e-02  1.4400029378182575e-02  1.3999998128991270e-02  1.3600022128798739e-02  1.3199962688199915e-02  1.2800045818971640e-02  1.2399973003898154e-02  1.2000014267346317e-02  1.1599975956849402e-02  1.1200004139897100e-02  1.0800026792776699e-02  1.0400006276165084e-02  9.9999999249550647e-03  9.5999676518776951e-03  9.1999752649655053e-03  8.8000469888955789e-03  8.3999873567439636e-03  7.9999811069913582e-03  7.6000810827846783e-03  7.1999398094764943e-03  6.8000826615145392e-03  6.3999168684681822e-03  5.9999829245431843e-03  5.6000538980113014e-03  5.2000035275118761e-03  4.8000469105800858e-03  4.3999072619944710e-03  4.0000569758448096e-03  3.5999815163740658e-03  3.1999415065936516e-03  2.8000408608471737e-03  2.4000183823148992e-03  2.0000391258746960e-03  1.5999212814603384e-03  1.2000570451181588e-03  7.9994318566541784e-04  4.0000819101074046e-04  3.3315296414057149e-09  2.1071666040832214e-08  -6.4193995022650515e-10  4.4811507546499890e-09  -9.1869924266639510e-09  -1.9672902637924292e-10  -3.1446560851702578e-09  -7.7603854423277353e-09  -1.1467790860953546e-09  -1.5292904601660027e-09  -2.3743875802890211e-09  -1.4509166981824038e-09  -2.0888210952008021e-09  -1.1418314794086671e-09  7.1204897117536389e-10  3.0041821943100129e-09  -4.2906624580576823e-09  -4.6868318342764970e-09  -1.0020864744811650e-08  -1.0489635319490919e-08  4.7695429376309522e-09  -5.6531782677626862e-09  1.9899145694790794e-08  3.5654517599875674e-09  4.0000963656581297e-04  7.9997063843742348e-04  1.2000359568835584e-03  1.5999325755735334e-03  2.0000331835964805e-03  2.4000166330413459e-03  2.8000429126018036e-03  3.1999422801086350e-03  3.5999832963392688e-03  4.0000582498051348e-03  4.3998981079560427e-03  4.8000383519742635e-03  5.2000151089811666e-03  5.6000536096498625e-03  5.9999844474241991e-03  6.3999054040867328e-03  6.8000846819981633e-03  7.1999417909494063e-03  7.6000810036720946e-03  7.9999446750424041e-03  8.3999944734801137e-03  8.8000591913926438e-03  9.1999706857888979e-03  9.5999697247319063e-03  9.9999953494571570e-03  1.0400008144228730e-02  1.0800025333515567e-02  1.1200002599721081e-02  1.1599975216483101e-02  1.2000014593203918e-02  1.2399970642499598e-02  1.2800046325209790e-02  1.3199963047788695e-02  1.3600023382574985e-02  1.4000003241440058e-02  1.4400024019906499e-02  1.4799984236812017e-02  1.5199955244601960e-02  1.5600000470735542e-02  1.6000006391172373e-02  1.6400042636069943e-02  1.6799956732836394e-02  1.7199992483266927e-02  1.7599959918090373e-02  1.8000033531114845e-02  1.8400037384404669e-02  1.8799950272327566e-02  1.9199979499059213e-02  1.9599963590620925e-02  2.0000068083605382e-02  2.0399959922887581e-02  2.0799972431331245e-02  2.1200020363470930e-02  2.1599987717190738e-02  2.2000001768086180e-02  2.2399977676538809e-02  2.2800027306789875e-02  2.3199975221479187e-02  2.3600028627115601e-02  2.3999961099276983e-02  2.4399978538133655e-02  2.4799949370052914e-02  2.5200067590055227e-02  2.5599955398630480e-02  2.5999972444017118e-02  2.6400022685814404e-02  2.6799986923363824e-02  2.7199999321423435e-02  2.7599977114607013e-02  2.8000026853416453e-02  2.8399974367160994e-02  2.8800026802447268e-02  2.9199957990319242e-02  2.9599975458344325e-02  2.9999949856898186e-02  3.0400065321538990e-02  3.0799954201954961e-02  3.1199970781666891e-02  3.1600021288578237e-02  3.1999985419786089e-02  3.2399997899954791e-02  3.2799975517184977e-02  3.3200025451934893e-02  3.3599973727137945e-02  3.4000025325470890e-02  3.4399959249005428e-02  3.4799975415107397e-02  3.5199953303544203e-02  3.5600065915658202e-02  3.5999955409007425e-02  3.6399968589073801e-02  3.6800016310056596e-02  3.7199983756174997e-02  3.7599997862073145e-02  3.7999973772815533e-02  3.8400023297062852e-02  3.8799971142743798e-02  3.9200024597691834e-02  3.9599957149494928e-02  3.9999974548847357e-02  4.0399945611970571e-02  4.0800064252410131e-02  4.1199949260274704e-02  4.1599967958210450e-02  4.2000016192737813e-02  4.2399982047263071e-02  4.2799995753827411e-02  4.3199973302197069e-02  4.3600023105716736e-02  4.3999970479125267e-02  4.4400022996331619e-02  4.4799953546747075e-02  4.5199971793087268e-02  4.5599981968342217e-02  4.6000007227772970e-02  4.6399949218738863e-02  4.6800058757198990e-02  4.7199925835430000e-02  4.7600039657445123e-02  4.8000014792858189e-02  4.8399905794275583e-02  4.8800047287982803e-02  4.9199932578713419e-02  4.9599985828552157e-02  5.0000024803780824e-02  5.0400006895575132e-02  5.0799972539360916e-02  5.1199952405710021e-02  5.1599983297815524e-02  5.2000006688116086e-02  5.2400016192720236e-02  5.2799947709526535e-02  5.3199980074505340e-02  5.3599954781558511e-02  5.4000042540578719e-02  5.4399923282128525e-02  5.4800022323331379e-02  5.5199968200316724e-02  5.5599980262407929e-02  5.5999994701522643e-02  5.6400027770126572e-02  5.6799959103011624e-02  5.7200009120141823e-02  5.7599955926997071e-02  5.8000001826291933e-02  5.8399981998892576e-02  5.8799993899190883e-02  5.9199955590256099e-02  5.9600000830718813e-02  6.0000037625613935e-02  6.0399912163824752e-02  6.0800009779831535e-02  6.1199995328604997e-02  6.1600025316928535e-02  6.1999940211649236e-02  6.2400023046863713e-02  6.2799973380326252e-02  6.3199987766988056e-02  6.3599976098749442e-02  6.3999994122230924e-02  6.4399955361113176e-02  6.4799999929755422e-02  6.5200037008036865e-02  6.5599912218653814e-02  6.6000007472839226e-02  6.6399993447610162e-02  6.6800026909955582e-02  6.7199939263705211e-02  6.7600022679158323e-02  6.7999973045300491e-02  6.8399987274272323e-02  6.8799975376643632e-02  6.9199993688817837e-02  6.9599952437812779e-02  7.0000000454446584e-02  7.0400035417537046e-02  7.0799911045878697e-02  7.1200011236187827e-02  7.1599994085376706e-02  7.2000024887546588e-02  7.2399956283837219e-02  7.2800007734920680e-02  7.3199954666540876e-02  7.3600000377713110e-02  7.3999978253100077e-02  7.4399991731181794e-02  7.4799955189367218e-02  7.5200001653250206e-02  7.5600034402894881e-02  7.5999911621660504e-02  7.6400008742714687e-02  7.6799995249436426e-02  7.7200024741129303e-02  7.7599940456597211e-02  7.8000023079861036e-02  7.8399973428271014e-02  7.8799987761568463e-02  7.9199973581964442e-02  7.9599994795571893e-02  7.9999954880759630e-02  8.0400000342441824e-02  8.0800037210754919e-02  8.1199913237726518e-02  8.1600008633495563e-02  8.1999994900280995e-02  8.2400031770247018e-02  8.2799961842668079e-02  8.3199944320764982e-02  8.3600015254453403e-02  8.3999984847291154e-02  8.4400033320778445e-02  8.4799949244072928e-02  8.5199971108309916e-02  8.5599988718834563e-02  8.6000012269772080e-02  8.6399950150061355e-02  8.6800056553490795e-02  8.7199944171273996e-02  8.7600006697066399e-02  8.7999980702265682e-02  8.8399981772864400e-02  8.8799949409157655e-02  8.9200017286351713e-02  8.9600036880911657e-02  8.9999977366309589e-02  9.0399969639163441e-02  9.0799994268125531e-02  9.1200025445605223e-02  9.1599947756171821e-02  9.2000025626851764e-02  9.2399974666948284e-02  9.2800011393093476e-02  9.3199906025920196e-02  9.3600038685652809e-02  9.3999995165087405e-02  9.4399987540880900e-02  9.4800054758858721e-02  9.5199963669348450e-02  9.5600014314966744e-02  9.5999912336378279e-02  9.6400057516354831e-02  9.6800017102879624e-02  9.7199992104251759e-02  9.7599955973518102e-02  9.8000052683448483e-02  9.8399993925461254e-02  9.8800029635784589e-02  9.9200038104522492e-02  9.9599989380973961e-02  9.9999991680490410e-02  9.9999988754428837e-02  1.0000000788873620e-01  1.0000000234262055e-01  1.0000000594222758e-01  1.0000000877861576e-01  1.0000000151521554e-01  9.9999994619716301e-02  9.9999996201391383e-02  1.0000000127192069e-01  9.9999999104481735e-02  1.0000000121843203e-01  9.9999999249408597e-02  9.9999999740373491e-02  1.0000000180772446e-01  1.0000000115214765e-01  1.0000000890843222e-01  1.0000000431528336e-01  1.0000000054946284e-01  1.0000000060407216e-01  9.9999998188669503e-02  1.0000000362286642e-01  9.9999988209934748e-02  9.9999994375344306e-02  1.5008956690471096e-02  2.0199994793804469e-02  2.5461190423049812e-02  3.0590029611806031e-02  3.5799990808481390e-02  4.0999990130583058e-02  4.6175798012234995e-02  8.6215710112350546e-02  8.0994687500268892e-02  9.4599994356333192e-02  7.5794686164409319e-02  7.0603659474135869e-02  6.5394688646967306e-02  6.0227073308066176e-02  5.4999986917245343e-02  5.0260520817363135e-03  1.0000000201550717e-02  5.0617297889200566e-02  9.0392676423890386e-02  1.7586434773871593e-02  2.2796957790079168e-02  2.7996973390933943e-02  3.3199980561572438e-02  3.8405200548464663e-02  4.3599988332545733e-02  8.3621345482918635e-02  7.8335613672938301e-02  7.3135613711904177e-02  6.7935613942620904e-02  6.2735614867806364e-02  5.7625939114743369e-02  4.3559470943546265e-02  3.8454192408638017e-02  3.3205935963852774e-02  5.7599982220873931e-02  6.2781771239483947e-02  2.8006390765132075e-02  2.2863735951923231e-02  6.7986275178052516e-02  7.3199985865102332e-02  7.8404221321637282e-02  1.7606394148108235e-02  8.3665286627606208e-02  7.5438956248444697e-03  7.4746120725568636e-03  1.2420421043759093e-02  1.2573047033817852e-02  9.2162197856650266e-02  8.8660884225871012e-02  4.8654965979050335e-02  5.2519810434681596e-02  9.6944228084800410e-02  9.6949993205538487e-02  2.8540856980065398e-03  2.9277907146673860e-03  5.3031536784088354e-02  4.8163137833821111e-02  9.2819759945712191e-02  8.7912697480255098e-02  1.4999963949506978e-02  2.0200005631069405e-02  2.5413304803501235e-02  3.0640983365703749e-02  3.5800002093736447e-02  4.1000004980937588e-02  4.6200002351308611e-02  8.0904349870024456e-02  7.5704348665457041e-02  7.0504346013185892e-02  6.5304349992210603e-02  6.0200005593640055e-02  4.0913861588828093e-02  3.5715377942547082e-02  3.0533965117124362e-02  2.5313864391365189e-02  2.0115382017844602e-02  1.5015638746524606e-02  5.4943883076176890e-02  6.0199969695191785e-02  6.5472651436063886e-02  7.0672651728323099e-02  7.5799989588945321e-02  8.1072654173996020e-02  8.6172708065481954e-02  9.8833640095766055e-03  9.8892463777596178e-03  9.4548131942350622e-02  5.5384684777475747e-02  4.5867553606807963e-02  5.2416915416509339e-03  5.2416941494943890e-03  8.5747933306384208e-02  5.0233036214358984e-02  2.1903982944716203e-03  9.4895341389458265e-02  5.0607634811029693e-02  9.7865214363396361e-02  9.0851984263512667e-02  9.2561165514939731e-02  8.8277948502752113e-02  5.2642348082735983e-02  4.8250675231935755e-02  9.0416504609756643e-02  1.3046122791453174e-02  6.9471804153780868e-03  1.8260192706680205e-02  4.4266743083815417e-02  2.8660189862988471e-02  3.7739794837067207e-02  3.3860188693071260e-02  2.2133645172998553e-02  5.6948824189035269e-02  8.4262248916582475e-02  7.9027626512787968e-02  7.3799500742183805e-02  6.8641510128450128e-02  6.3448537497086607e-02  9.0438394758438428e-02  9.8224828140827405e-02  9.8217210246371964e-02  5.6602115484236215e-02  6.1836993709214597e-02  3.9358483384153251e-02  6.7040141536028386e-02  7.2236993923907797e-02  3.4214567978857829e-02  7.7440139724826579e-02  2.9017163804478139e-02  8.2640141067712877e-02  2.3843456611533691e-02  1.8572827538925127e-02  2.3757447334345049e-02  1.8611533166649780e-02  2.1847708618390849e-02  1.6547688365062544e-02  2.9011526140017774e-02  3.4211531970265364e-02  2.6952517685951190e-02  3.2152515695790571e-02  3.9349243826573337e-02  3.7447704743944682e-02  4.4611525487739813e-02  4.2552509665513980e-02  8.2550103580404918e-02  7.7338877889823923e-02  7.9352261400120722e-02  7.2138876296403628e-02  7.4152261236312356e-02  6.6938878887529155e-02  6.1738881176763086e-02  6.8952261710860593e-02  6.3752263002638906e-02  5.8614537276948299e-02  1.6627164290424479e-02  2.1826331516983960e-02  8.4614553503699494e-02  2.6990534966439845e-02  7.9373640819495550e-02  7.4152264100928802e-02  3.2190533881857698e-02  6.9004618844851096e-02  3.7395348917292438e-02  6.3773637865992924e-02  4.2585424116099155e-02  5.8638781546020695e-02  5.0321844258286716e-02  1.1473428073465547e-02  1.1476470972595276e-02  1.7135171338066744e-03  1.7391128952537686e-03  1.3473994104885348e-02  1.3473994111581315e-02  8.7736709862236847e-02  4.7728133723021364e-02  5.3489553704051875e-02  9.3019835994541167e-02  8.4061094904118415e-03  8.4358188714730893e-03  6.1822127222927993e-02  5.8635113894906471e-02  6.7030085625184324e-02  7.2230083884976939e-02  7.7369902231447282e-02  8.2569902791244279e-02  2.3822071409325123e-02  3.2181506389201558e-02  1.6583770771967529e-02  2.7018805166618809e-02  3.9422067062669354e-02  4.2648354706221796e-02  9.6201715941138646e-02  9.5986075632290987e-02  5.1877422437611044e-02  5.6852951016903339e-02  4.4309026164334027e-02  8.9248654137666736e-02  6.7056855418084465e-03  6.7152400625848244e-03  8.4243138084020119e-02  3.9907295588669275e-02  2.4307297670219798e-02  8.2040847168640421e-02  7.6840844559955906e-02  7.1661455557079465e-02  6.6440845414928396e-02  6.1181919879211129e-02  5.9138508275175222e-02  1.6095790555710417e-02  2.6492687888602581e-02  3.1688890535680372e-02  4.2092687359758373e-02  8.4769393999286520e-03  1.1471957284223535e-02  1.0991777054542327e-02  8.7201096343303752e-02  3.8344983817218702e-03  3.8406630012402286e-03  4.7175199239389405e-02  5.3953588443342179e-02  8.9607296650175694e-03  9.3566277801172978e-02  5.3971677810138077e-02  4.7228324612066226e-02  9.5520872161083098e-02  5.6044147782178089e-02  3.4726647225147393e-02  2.9525958629312194e-02  1.9126648657641833e-02  4.5115257730046585e-02  3.4621572849144605e-02  2.9424052664455250e-02  3.6842127074479779e-02  1.9021577979137439e-02  2.1278584133140772e-02  6.4315255553722528e-02  6.9515234544853449e-02  7.4715254114560967e-02  7.9915254748413253e-02  2.1236594438823128e-02  8.5038828960502008e-02  7.9913769909462126e-02  7.4687469433247791e-02  6.9514454915282145e-02  3.6875602701389378e-02  6.4307836760454290e-02  1.4023099420884073e-02  1.3981177731680842e-02  9.6378985558665475e-02  5.8616373418128821e-03  5.9658652681826366e-03  9.8374630443318123e-02  9.8454797579489231e-02  8.5150102274813455e-02  3.5936124126844942e-03  8.7049104181326609e-02  5.1480536678210759e-02  4.5391651532229411e-02  5.6014404381991803e-02  4.4018915223601515e-03  1.5022987042389128e-03  1.5899242163936757e-03  4.8882831353892348e-02  4.6836220045755564e-02  5.4408492446451268e-02  4.9226456612722763e-02  5.1981193680058942e-02  9.3616374138466477e-02  8.6691246588492338e-02  8.9357453443153004e-02  9.2055788733012539e-02  9.4003705366531298e-02  4.9271474725235048e-02  9.1520691851851230e-02  8.9175534465496323e-02  6.1413683798266852e-02  6.6626374642660538e-02  7.1826373359752393e-02  7.7022232733053503e-02  8.2219399092970796e