<?xml version="1.0"?>
<VTKFile type="UnstructuredGrid"  version="0.1"  >
<UnstructuredGrid>
<Piece  NumberOfPoints="8545" NumberOfCells="16538">
<Points>
<DataArray  type="Float64"  NumberOfComponents="3"  format="ascii">0 0 0  2 0 0  2 0.2 0  0 0.2 0  0.007999999999984813 0 0  0.01599999999996964 0 0  0.02399999999995461 0 0  0.03199999999993959 0 0  0.03999999999992457 0 0  0.04799999999990945 0 0  0.05599999999989373 0 0  0.06399999999987775 0 0  0.07199999999986065 0 0  0.07999999999984338 0 0  0.08799999999982558 0 0  0.09599999999980778 0 0  0.10399999999979 0 0  0.1119999999997726 0 0  0.1199999999997562 0 0  0.1279999999997408 0 0  0.1359999999997272 0 0  0.1439999999997141 0 0  0.1519999999997019 0 0  0.1599999999996896 0 0  0.1679999999996774 0 0  0.1759999999996651 0 0  0.1839999999996529 0 0  0.1919999999996407 0 0  0.1999999999996284 0 0  0.2079999999996162 0 0  0.2159999999996039 0 0  0.2239999999995916 0 0  0.2319999999995794 0 0  0.2399999999995652 0 0  0.2479999999995501 0 0  0.2559999999995309 0 0  0.2639999999995103 0 0  0.2719999999994875 0 0  0.2799999999994642 0 0  0.2879999999994408 0 0  0.2959999999994175 0 0  0.3039999999993941 0 0  0.3119999999993708 0 0  0.3199999999993474 0 0  0.3279999999993241 0 0  0.3359999999993007 0 0  0.3439999999992774 0 0  0.351999999999254 0 0  0.3599999999992307 0 0  0.3679999999992074 0 0  0.375999999999184 0 0  0.3839999999991606 0 0  0.3919999999991373 0 0  0.3999999999991139 0 0  0.4079999999990906 0 0  0.4159999999990672 0 0  0.4239999999990439 0 0  0.4319999999990204 0 0  0.4399999999989971 0 0  0.4479999999989738 0 0  0.4559999999989504 0 0  0.463999999998927 0 0  0.4719999999989037 0 0  0.4799999999988804 0 0  0.487999999998857 0 0  0.4959999999988337 0 0  0.5039999999988103 0 0  0.511999999998787 0 0  0.5199999999987636 0 0  0.5279999999987403 0 0  0.5359999999987169 0 0  0.5439999999986936 0 0  0.5519999999986703 0 0  0.559999999998647 0 0  0.5679999999986237 0 0  0.5759999999986004 0 0  0.583999999998577 0 0  0.5919999999985537 0 0  0.5999999999985304 0 0  0.6079999999985071 0 0  0.6159999999984838 0 0  0.6239999999984605 0 0  0.6319999999984371 0 0  0.6399999999984138 0 0  0.6479999999983904 0 0  0.6559999999983671 0 0  0.6639999999983438 0 0  0.6719999999983205 0 0  0.6799999999982972 0 0  0.6879999999982739 0 0  0.6959999999982506 0 0  0.7039999999982272 0 0  0.7119999999982038 0 0  0.7199999999981805 0 0  0.7279999999981572 0 0  0.7359999999981339 0 0  0.7439999999981106 0 0  0.7519999999980873 0 0  0.759999999998064 0 0  0.7679999999980406 0 0  0.7759999999980173 0 0  0.783999999997994 0 0  0.7919999999979707 0 0  0.7999999999979474 0 0  0.807999999997924 0 0  0.8159999999979007 0 0  0.8239999999978773 0 0  0.831999999997854 0 0  0.8399999999978307 0 0  0.8479999999978074 0 0  0.855999999997784 0 0  0.8639999999977607 0 0  0.8719999999977374 0 0  0.8799999999977141 0 0  0.8879999999976906 0 0  0.8959999999976673 0 0  0.903999999997644 0 0  0.9119999999976207 0 0  0.9199999999975974 0 0  0.9279999999975741 0 0  0.9359999999975508 0 0  0.9439999999975274 0 0  0.9519999999975041 0 0  0.9599999999974808 0 0  0.9679999999974574 0 0  0.9759999999974341 0 0  0.9839999999974108 0 0  0.9919999999973981 0 0  0.9999999999973858 0 0  1.007999999997396 0 0  1.015999999997406 0 0  1.023999999997427 0 0  1.031999999997449 0 0  1.039999999997469 0 0  1.04799999999749 0 0  1.055999999997512 0 0  1.063999999997533 0 0  1.071999999997554 0 0  1.079999999997575 0 0  1.087999999997596 0 0  1.095999999997617 0 0  1.103999999997638 0 0  1.111999999997659 0 0  1.11999999999768 0 0  1.127999999997702 0 0  1.135999999997722 0 0  1.143999999997744 0 0  1.151999999997765 0 0  1.159999999997786 0 0  1.167999999997807 0 0  1.175999999997828 0 0  1.183999999997849 0 0  1.19199999999787 0 0  1.199999999997891 0 0  1.207999999997912 0 0  1.215999999997933 0 0  1.223999999997955 0 0  1.231999999997976 0 0  1.239999999997997 0 0  1.247999999998018 0 0  1.255999999998039 0 0  1.26399999999806 0 0  1.271999999998081 0 0  1.279999999998102 0 0  1.287999999998123 0 0  1.295999999998144 0 0  1.303999999998166 0 0  1.311999999998186 0 0  1.319999999998208 0 0  1.327999999998229 0 0  1.33599999999825 0 0  1.343999999998271 0 0  1.351999999998292 0 0  1.359999999998313 0 0  1.367999999998334 0 0  1.375999999998355 0 0  1.383999999998376 0 0  1.391999999998397 0 0  1.399999999998418 0 0  1.40799999999844 0 0  1.41599999999846 0 0  1.423999999998482 0 0  1.431999999998503 0 0  1.439999999998524 0 0  1.447999999998545 0 0  1.455999999998566 0 0  1.463999999998587 0 0  1.471999999998608 0 0  1.479999999998629 0 0  1.48799999999865 0 0  1.495999999998672 0 0  1.503999999998693 0 0  1.511999999998714 0 0  1.519999999998735 0 0  1.527999999998756 0 0  1.535999999998777 0 0  1.543999999998798 0 0  1.551999999998819 0 0  1.55999999999884 0 0  1.567999999998861 0 0  1.575999999998882 0 0  1.583999999998904 0 0  1.591999999998924 0 0  1.599999999998946 0 0  1.607999999998967 0 0  1.615999999998988 0 0  1.623999999999009 0 0  1.63199999999903 0 0  1.639999999999051 0 0  1.647999999999072 0 0  1.655999999999093 0 0  1.663999999999114 0 0  1.671999999999136 0 0  1.679999999999157 0 0  1.687999999999177 0 0  1.695999999999199 0 0  1.70399999999922 0 0  1.711999999999241 0 0  1.719999999999262 0 0  1.727999999999283 0 0  1.735999999999304 0 0  1.743999999999325 0 0  1.751999999999346 0 0  1.759999999999367 0 0  1.767999999999389 0 0  1.775999999999409 0 0  1.783999999999431 0 0  1.791999999999452 0 0  1.799999999999473 0 0  1.807999999999494 0 0  1.815999999999515 0 0  1.823999999999536 0 0  1.831999999999557 0 0  1.839999999999578 0 0  1.847999999999599 0 0  1.85599999999962 0 0  1.863999999999641 0 0  1.871999999999663 0 0  1.879999999999684 0 0  1.887999999999705 0 0  1.895999999999726 0 0  1.903999999999747 0 0  1.911999999999768 0 0  1.919999999999789 0 0  1.92799999999981 0 0  1.935999999999831 0 0  1.943999999999853 0 0  1.951999999999873 0 0  1.959999999999895 0 0  1.967999999999916 0 0  1.975999999999937 0 0  1.983999999999958 0 0  1.991999999999979 0 0  2 0.007999999999985056 0  2 0.01599999999997076 0  2 0.02399999999995914 0  2 0.03199999999993772 0  2 0.03999999999991205 0  2 0.04799999999988908 0  2 0.05599999999986612 0  2 0.06399999999984315 0  2 0.07199999999982019 0  2 0.07999999999979179 0  2 0.08799999999976883 0  2 0.09599999999974587 0  2 0.1039999999997452 0  2 0.1119999999997669 0  2 0.1199999999997886 0  2 0.1279999999998103 0  2 0.135999999999832 0  2 0.1439999999998537 0  2 0.1519999999998738 0  2 0.1599999999998949 0  2 0.1679999999999159 0  2 0.175999999999937 0  2 0.183999999999958 0  2 0.191999999999979 0  1.991999999999967 0.2 0  1.983999999999933 0.2 0  1.9759999999999 0.2 0  1.967999999999867 0.2 0  1.959999999999834 0.2 0  1.9519999999998 0.2 0  1.943999999999767 0.2 0  1.935999999999734 0.2 0  1.9279999999997 0.2 0  1.919999999999667 0.2 0  1.911999999999634 0.2 0  1.9039999999996 0.2 0  1.895999999999567 0.2 0  1.887999999999534 0.2 0  1.879999999999501 0.2 0  1.871999999999467 0.2 0  1.863999999999434 0.2 0  1.855999999999401 0.2 0  1.847999999999367 0.2 0  1.839999999999334 0.2 0  1.831999999999301 0.2 0  1.823999999999268 0.2 0  1.815999999999234 0.2 0  1.807999999999201 0.2 0  1.799999999999168 0.2 0  1.791999999999135 0.2 0  1.783999999999101 0.2 0  1.775999999999068 0.2 0  1.767999999999035 0.2 0  1.759999999999017 0.2 0  1.751999999999006 0.2 0  1.743999999999028 0.2 0  1.735999999999061 0.2 0  1.727999999999112 0.2 0  1.719999999999168 0.2 0  1.711999999999223 0.2 0  1.703999999999279 0.2 0  1.695999999999334 0.2 0  1.68799999999939 0.2 0  1.679999999999446 0.2 0  1.671999999999501 0.2 0  1.663999999999557 0.2 0  1.655999999999612 0.2 0  1.647999999999668 0.2 0  1.639999999999723 0.2 0  1.631999999999779 0.2 0  1.623999999999834 0.2 0  1.61599999999989 0.2 0  1.607999999999945 0.2 0  1.600000000000001 0.2 0  1.592000000000056 0.2 0  1.584000000000112 0.2 0  1.576000000000167 0.2 0  1.568000000000223 0.2 0  1.560000000000279 0.2 0  1.552000000000334 0.2 0  1.54400000000039 0.2 0  1.536000000000445 0.2 0  1.528000000000501 0.2 0  1.520000000000556 0.2 0  1.512000000000612 0.2 0  1.504000000000667 0.2 0  1.496000000000723 0.2 0  1.488000000000778 0.2 0  1.480000000000834 0.2 0  1.472000000000889 0.2 0  1.464000000000945 0.2 0  1.456000000001 0.2 0  1.448000000001056 0.2 0  1.440000000001112 0.2 0  1.432000000001167 0.2 0  1.424000000001223 0.2 0  1.416000000001278 0.2 0  1.408000000001334 0.2 0  1.400000000001389 0.2 0  1.392000000001445 0.2 0  1.3840000000015 0.2 0  1.376000000001556 0.2 0  1.368000000001611 0.2 0  1.360000000001667 0.2 0  1.352000000001722 0.2 0  1.344000000001778 0.2 0  1.336000000001833 0.2 0  1.328000000001889 0.2 0  1.320000000001944 0.2 0  1.312000000002 0.2 0  1.304000000002055 0.2 0  1.296000000002111 0.2 0  1.288000000002166 0.2 0  1.280000000002222 0.2 0  1.272000000002277 0.2 0  1.264000000002333 0.2 0  1.256000000002388 0.2 0  1.248000000002444 0.2 0  1.240000000002499 0.2 0  1.232000000002555 0.2 0  1.22400000000261 0.2 0  1.216000000002666 0.2 0  1.208000000002721 0.2 0  1.200000000002777 0.2 0  1.192000000002832 0.2 0  1.184000000002888 0.2 0  1.176000000002943 0.2 0  1.168000000002999 0.2 0  1.160000000003054 0.2 0  1.15200000000311 0.2 0  1.144000000003165 0.2 0  1.136000000003221 0.2 0  1.128000000003276 0.2 0  1.120000000003332 0.2 0  1.112000000003387 0.2 0  1.104000000003443 0.2 0  1.096000000003498 0.2 0  1.088000000003554 0.2 0  1.080000000003609 0.2 0  1.072000000003665 0.2 0  1.06400000000372 0.2 0  1.056000000003776 0.2 0  1.048000000003831 0.2 0  1.040000000003887 0.2 0  1.032000000003942 0.2 0  1.024000000003998 0.2 0  1.016000000004053 0.2 0  1.008000000004088 0.2 0  1.000000000004121 0.2 0  0.99200000000411 0.2 0  0.984000000004098 0.2 0  0.9760000000040647 0.2 0  0.9680000000040314 0.2 0  0.9600000000039981 0.2 0  0.9520000000039648 0.2 0  0.9440000000039312 0.2 0  0.9360000000038982 0.2 0  0.928000000003864
[...]
<PointData  Scalars="pressure"> 
<DataArray  type="Float64"  Name="pressure"  format="ascii">9.9999999989001609e-02  1.1505065682571100e-11  1.1274710714896483e-11  9.9999999990899868e-02  9.9600000000054784e-02  9.9200000002986316e-02  9.8799999996876803e-02  9.8400000007593386e-02  9.7999999996090173e-02  9.7599999997599940e-02  9.7199999997959446e-02  9.6800000006664180e-02  9.6400000000771424e-02  9.5999999998991128e-02  9.5600000000562124e-02  9.5199999997545970e-02  9.4800000002633972e-02  9.4399999995752229e-02  9.4000000001696324e-02  9.3599999999769284e-02  9.3199999999452707e-02  9.2799999999769942e-02  9.2400000004597013e-02  9.1999999998859980e-02  9.1599999993618342e-02  9.1200000005174059e-02  9.0799999997614692e-02  9.0400000003087899e-02  8.9999999998762084e-02  8.9599999998654659e-02  8.9199999996373694e-02  8.8800000005861954e-02  8.8399999999137016e-02  8.7999999997204523e-02  8.7600000002379899e-02  8.7199999998162858e-02  8.6800000002397584e-02  8.6400000009343406e-02  8.5999999987539655e-02  8.5600000002920562e-02  8.5199999995621112e-02  8.4800000011484605e-02  8.4399999996928501e-02  8.3999999996667560e-02  8.3599999999760893e-02  8.3200000004317085e-02  8.2800000000480337e-02  8.2400000004617516e-02  8.1999999993359690e-02  8.1600000002371109e-02  8.1199999997363562e-02  8.0800000000727581e-02  8.0400000003231942e-02  7.9999999996423196e-02  7.9600000000940502e-02  7.9199999999251910e-02  7.8800000002142059e-02  7.8399999996194430e-02  7.8000000002560424e-02  7.7599999996738583e-02  7.7200000003458447e-02  7.6800000003111782e-02  7.6400000003783247e-02  7.5999999990666922e-02  7.5600000005192305e-02  7.5200000002359657e-02  7.4799999996650560e-02  7.4400000000950456e-02  7.3999999999287344e-02  7.3600000002154706e-02  7.3199999996205425e-02  7.2800000003523588e-02  7.2399999995669970e-02  7.2000000003663189e-02  7.1600000002145961e-02  7.1200000005417485e-02  7.0799999990486015e-02  7.0400000005352958e-02  7.0000000002323384e-02  6.9599999996654116e-02  6.9200000000958911e-02  6.8799999999284156e-02  6.8400000002173417e-02  6.7999999996226870e-02  6.7600000002593141e-02  6.7199999996771592e-02  6.6800000003491511e-02  6.6400000003145054e-02  6.6000000003816381e-02  6.5599999990700014e-02  6.5200000005225051e-02  6.4800000002391930e-02  6.4399999996681778e-02  6.4000000000981494e-02  6.3599999999303256e-02  6.3200000002191531e-02  6.2799999996244874e-02  6.2400000002619811e-02  6.1999999996766475e-02  6.1600000003670684e-02  6.1200000002620047e-02  6.0800000004391785e-02  6.0399999990862076e-02  6.0000000004887803e-02  5.9600000002520442e-02  5.9199999997816777e-02  5.8800000003080659e-02  5.8399999995751725e-02  5.8000000001618902e-02  5.7600000000489253e-02  5.7199999994209487e-02  5.6800000003808582e-02  5.6400000000958607e-02  5.6000000003604659e-02  5.5599999993176802e-02  5.5200000005648120e-02  5.4800000002901507e-02  5.4399999991629686e-02  5.4000000011075619e-02  5.3599999992793086e-02  5.3199999997591375e-02  5.2800000008796678e-02  5.2399999999185015e-02  5.1999999998060084e-02  5.1600000008258297e-02  5.1199999993976404e-02  5.0800000002833877e-02  5.0400000000366436e-02  4.9999999998680107e-02  4.9599999999540338e-02  4.9200000003881007e-02  4.8799999998164603e-02  4.8400000001692166e-02  4.7999999995663171e-02  4.7600000004981692e-02  4.7199999997207434e-02  4.6800000004503052e-02  4.6399999996819576e-02  4.5999999997001752e-02  4.5600000006812566e-02  4.5199999996997781e-02  4.4799999999311356e-02  4.4399999996605599e-02  4.4000000006167869e-02  4.3599999999401291e-02  4.3199999996044423e-02  4.2800000011594411e-02  4.2399999993514029e-02  4.2000000001335171e-02  4.1599999997967110e-02  4.1199999995085841e-02  4.0800000008837378e-02  4.0399999996191559e-02  3.9999999998391329e-02  3.9599999995042268e-02  3.9200000005808547e-02  3.8799999995511807e-02  3.8400000001860266e-02  3.7999999999842181e-02  3.7600000001171495e-02  3.7199999999052304e-02  3.6800000003706437e-02  3.6399999997913546e-02  3.5999999994689350e-02  3.5600000009042461e-02  3.5199999995982931e-02  3.4799999998422301e-02  3.4399999995005683e-02  3.4000000005732785e-02  3.3599999995507820e-02  3.3200000001501632e-02  3.2799999999646202e-02  3.2400000001315279e-02  3.1999999999034162e-02  3.1600000004797492e-02  3.1199999997657882e-02  3.0799999994735400e-02  3.0400000008766175e-02  2.9999999995970417e-02  2.9599999998547937e-02  2.9199999994948527e-02  2.8800000005753782e-02  2.8399999995507155e-02  2.8000000001371945e-02  2.7599999999617649e-02  2.7200000001322049e-02  2.6799999999011125e-02  2.6400000004781723e-02  2.5999999997631647e-02  2.5599999994717192e-02  2.5200000008800131e-02  2.4799999995915433e-02  2.4399999998585439e-02  2.3999999994860483e-02  2.3600000005715938e-02  2.3199999995564189e-02  2.2800000001745320e-02  2.2399999999791358e-02  2.2000000001110638e-02  2.1599999999008107e-02  2.1200000003660725e-02  2.0799999997876739e-02  2.0399999994598378e-02  2.0000000009073364e-02  1.9599999995785052e-02  1.9199999998480169e-02  1.8799999994447768e-02  1.8400000003698309e-02  1.8000000004928421e-02  1.7599999995834219e-02  1.7200000000773513e-02  1.6799999993420939e-02  1.6400000005517806e-02  1.6000000001926955e-02  1.5600000001516926e-02  1.5199999994041865e-02  1.4799999998473968e-02  1.4400000003387413e-02  1.3999999999975418e-02  1.3600000003273140e-02  1.3199999995625445e-02  1.2800000006095257e-02  1.2399999997448761e-02  1.2000000002293518e-02  1.1599999997007421e-02  1.1200000000123257e-02  1.0800000003269996e-02  1.0400000001162809e-02  1.0000000000673035e-02  9.5999999963909417e-03  9.1999999964637556e-03  8.8000000055194743e-03  8.3999999986904775e-03  7.9999999972139788e-03  7.6000000101124864e-03  7.1999999927784379e-03  6.8000000107063226e-03  6.3999999907137298e-03  5.9999999969211305e-03  5.6000000061809403e-03  5.2000000005003044e-03  4.8000000068102637e-03  4.3999999891377751e-03  4.0000000070493603e-03  3.5999999987383225e-03  3.1999999923513454e-03  2.8000000042869245e-03  2.4000000018341745e-03  2.0000000053192009e-03  1.5999999903165646e-03  1.2000000066328413e-03  7.9999999258411486e-04  3.9999999951777004e-04  4.7278089935128264e-13  2.1169964316171439e-12  -2.5719264861845904e-13  4.6196111582043840e-13  -7.9300977929761944e-13  -7.3661531786481127e-14  -1.4060356549108263e-13  -5.4867625038371073e-13  -4.6554408011460366e-14  -2.3423932277395598e-13  -1.3177859623194472e-13  -6.5926762620296443e-14  -5.7714825521381519e-14  2.8497369484039932e-14  3.1190980727649550e-14  2.7434694937380294e-14  3.4437777469674453e-14  -3.2240739205686079e-13  -9.3364395945482415e-13  -9.2929574374586011e-13  4.9390649471256092e-13  -6.1695718939497488e-13  2.0214192112126509e-12  4.6921124233028644e-13  3.9999999967248271e-04  7.9999999570784714e-04  1.2000000038633355e-03  1.5999999916146354e-03  2.0000000045817673e-03  2.4000000016711196e-03  2.8000000045094921e-03  3.1999999923024718e-03  3.5999999987730825e-03  4.0000000069509226e-03  4.3999999880405686e-03  4.8000000057776861e-03  5.2000000018695581e-03  5.6000000058998387e-03  5.9999999968945311e-03  6.3999999894942261e-03  6.8000000113507333e-03  7.1999999932646488e-03  7.6000000100836457e-03  7.9999999931758704e-03  8.4000000001539041e-03  8.8000000070466936e-03  9.1999999957448498e-03  9.5999999967007824e-03  1.0000000000126571e-02  1.0400000001380480e-02  1.0800000003118610e-02  1.1200000000041578e-02  1.1599999996975705e-02  1.2000000002282555e-02  1.2399999997132463e-02  1.2800000006085999e-02  1.3199999995588187e-02  1.3600000003328427e-02  1.4000000000531535e-02  1.4400000002874263e-02  1.4799999997689167e-02  1.5199999995131733e-02  1.5600000001398467e-02  1.6000000001736746e-02  1.6400000005324638e-02  1.6799999994679869e-02  1.7199999999782913e-02  1.7599999995889157e-02  1.8000000004731263e-02  1.8400000004017827e-02  1.8799999994118296e-02  1.9199999998520470e-02  1.9599999996949002e-02  2.0000000008583561e-02  2.0399999994852334e-02  2.0799999997630072e-02  2.1200000003421735e-02  2.1599999999092977e-02  2.2000000000767260e-02  2.2399999997883897e-02  2.2800000003801217e-02  2.3199999997393903e-02  2.3600000003742194e-02  2.3999999995603587e-02  2.4399999998356806e-02  2.4799999995493954e-02  2.5200000008770252e-02  2.5599999994492265e-02  2.5999999997758805e-02  2.6400000003891071e-02  2.6799999999048741e-02  2.7200000000508522e-02  2.7599999997917950e-02  2.8000000003806171e-02  2.8399999997339876e-02  2.8800000003637114e-02  2.9199999995413093e-02  2.9599999998192551e-02  2.9999999995737287e-02  3.0400000008634995e-02  3.0799999994493402e-02  3.1199999997696053e-02  3.1600000003858729e-02  3.1999999999003229e-02  3.2400000000476346e-02  3.2799999997853567e-02  3.3200000003764468e-02  3.3599999997359180e-02  3.4000000003555533e-02  3.4399999995640383e-02  3.4799999998201415e-02  3.5199999995971135e-02  3.5600000008770109e-02  3.5999999994693520e-02  3.6399999997577689e-02  3.6800000003306958e-02  3.7199999998988063e-02  3.7600000000662000e-02  3.7999999997778741e-02  3.8400000003691225e-02  3.8799999997280794e-02  3.9200000003636361e-02  3.9599999995503052e-02  3.9999999998242330e-02  4.0399999995392566e-02  4.0800000008718196e-02  4.1199999994202471e-02  4.1599999997762420e-02  4.2000000003636510e-02  4.2399999998857803e-02  4.2800000000473522e-02  4.3199999997834519e-02  4.3600000003684684e-02  4.3999999997206919e-02  4.4400000003534362e-02  4.4799999995232181e-02  4.5199999998151580e-02  4.5599999999527199e-02  4.6000000001959626e-02  4.6399999995138344e-02  4.6800000008390838e-02  4.7199999992201612e-02  4.7600000006387186e-02  4.8000000002086152e-02  4.8399999989663767e-02  4.8800000007022518e-02  4.9199999992807518e-02  4.9600000000308883e-02  5.0000000004583600e-02  5.0400000001948185e-02  5.0799999997492469e-02  5.1199999995809840e-02  5.1599999999829615e-02  5.2000000002098597e-02  5.2400000002546458e-02  5.2799999994460813e-02  5.3199999999102507e-02  5.3599999996281546e-02  5.4000000006330193e-02  5.4399999991859932e-02  5.4800000004326367e-02  5.5199999997505314e-02  5.5599999999690751e-02  5.6000000001387280e-02  5.6400000004713589e-02  5.6799999996093600e-02  5.7200000002451783e-02  5.7599999995961645e-02  5.8000000001833432e-02  5.8399999999220437e-02  5.8800000000649340e-02  5.9199999996316317e-02  5.9600000001979653e-02  6.0000000005369890e-02  6.0399999990787830e-02  6.0800000003809800e-02  6.1200000001488085e-02  6.1600000004468282e-02  6.1999999994067106e-02  6.2400000004433132e-02  6.2799999998102304e-02  6.3200000000098011e-02  6.3599999998791804e-02  6.4000000000866822e-02  6.4399999996412369e-02  6.4800000001967673e-02  6.5200000005406891e-02  6.5599999990864744e-02  6.6000000003629350e-02  6.6400000001396467e-02  6.6800000004773791e-02  6.7199999994006263e-02  6.7600000004455180e-02  6.7999999998128516e-02  6.8400000000117964e-02  6.8799999998798739e-02  6.9200000000930961e-02  6.9599999996160192e-02  7.0000000002079080e-02  7.0400000005237037e-02  7.0799999990867127e-02  7.1200000004257039e-02  7.1600000001456679e-02  7.2000000004530246e-02  7.2399999995955394e-02  7.2800000002530715e-02  7.3199999996061568e-02  7.3600000001916202e-02  7.3999999999170410e-02  7.4400000000781050e-02  7.4799999996467623e-02  7.5200000002208042e-02  7.5600000005124318e-02  7.5999999990920483e-02  7.6400000003835525e-02  7.6800000001641527e-02  7.7200000004539568e-02  7.7599999994191787e-02  7.8000000004502718e-02  7.8399999998168102e-02  7.8800000000189246e-02  7.9199999998572204e-02  7.9600000001060864e-02  7.9999999996450299e-02  8.0400000002018704e-02  8.0800000005408157e-02  8.1199999990952801e-02  8.1600000003693662e-02  8.2000000001454965e-02  8.2400000005217092e-02  8.2799999996041304e-02  8.3199999995150681e-02  8.3600000004055847e-02  8.4000000000108141e-02  8.4400000005215109e-02  8.4799999994907269e-02  8.5199999998350082e-02  8.5600000000595172e-02  8.6000000002642768e-02  8.6399999995303997e-02  8.6800000008296477e-02  8.7199999994339736e-02  8.7600000002363801e-02  8.7999999998985889e-02  8.8399999999283330e-02  8.8799999995523543e-02  8.9200000003862218e-02  8.9600000005502320e-02  8.9999999998188668e-02  9.0399999997639743e-02  9.0800000000832701e-02  9.1200000004078394e-02  9.1599999994504633e-02  9.2000000004133636e-02  9.2399999997678131e-02  9.2800000001888566e-02  9.3199999989654073e-02  9.3600000006299700e-02  9.4000000000168893e-02  9.4399999999459208e-02  9.4800000007094626e-02  9.5199999995478721e-02  9.5600000001932209e-02  9.5999999989943741e-02  9.6400000007894490e-02  9.6800000001825717e-02  9.7199999998592940e-02  9.7599999994677764e-02  9.8000000006221208e-02  9.8399999998427815e-02  9.8800000002685684e-02  9.9200000002972036e-02  9.9599999996659014e-02  9.9999999998923755e-02  9.9999999998297798e-02  1.0000000000102820e-01  9.9999999999525357e-02  1.0000000000106281e-01  1.0000000000122262e-01  9.9999999999945965e-02  9.9999999999338562e-02  1.0000000000020115e-01  1.0000000000016050e-01  9.9999999999952460e-02  1.0000000000026210e-01  9.9999999999969266e-02  9.9999999999827727e-02  1.0000000000025978e-01  1.0000000000035500e-01  1.0000000000102501e-01  1.0000000000079329e-01  1.0000000000033259e-01  1.0000000000023425e-01  9.9999999999756201e-02  1.0000000000060348e-01  9.9999999998220568e-02  9.9999999999324463e-02  1.5008956881212189e-02  2.0199999999958664e-02  2.5461196605600523e-02  3.0590038237436987e-02  3.5799999999851381e-02  4.0999999999879466e-02  4.6175807828365792e-02  8.6215723152397117e-02  8.0994705766225097e-02  9.4599999999934903e-02  7.5794705766237994e-02  7.0603676808442928e-02  6.5394705766300840e-02  6.0227090705580091e-02  5.5000000000218242e-02  5.0260517394687242e-03  9.9999999998725275e-03  5.0617309441841410e-02  9.0392687083027876e-02  1.7586449688329311e-02  2.2796959914550125e-02  2.7996972556806506e-02  3.3199999998492345e-02  3.8405206390489124e-02  4.3599999999193118e-02  8.3621349988904956e-02  7.8335622661734342e-02  7.3135622661760033e-02  6.7935622661738748e-02  6.2735622661706444e-02  5.7625944182048118e-02  4.3559480886936210e-02  3.8454198885045983e-02  3.3205951166617134e-02  5.7599999999714532e-02  6.2781782744193049e-02  2.8006408999985674e-02  2.2863745950401734e-02  6.7986289824067458e-02  7.3200000000106041e-02  7.8404249272355439e-02  1.7606409000130482e-02  8.3665295622476432e-02  7.5438903198767875e-03  7.4746201860561249e-03  1.2420427838621219e-02  1.2573045654606610e-02  9.2162198814283419e-02  8.8660898006096750e-02  4.8654977395422204e-02  5.2519832344738643e-02  9.6944236511073312e-02  9.6950000000614558e-02  2.8541015981123478e-03  2.9277777796323855e-03  5.3031578625369308e-02  4.8163157409887879e-02  9.2819769845981101e-02  8.7912704943067410e-02  1.4999999997878492e-02  2.0200000000762948e-02  2.5413303876033067e-02  3.0641013604904014e-02  3.5800000000662482e-02  4.1000000001677570e-02  4.6200000001002425e-02  8.0904366582696285e-02  7.5704366582688989e-02  7.0504366582690492e-02  6.5304366582722234e-02  6.0200000000954067e-02  4.0913865487620590e-02  3.5715382096425774e-02  3.0533968300307517e-02  2.5313865487605388e-02  2.0115382096324273e-02  1.5015638584579974e-02  5.4943892389269382e-02  6.0199999998627060e-02  6.5472673635256273e-02  7.0672673635608557e-02  7.5800000000562251e-02  8.1072673635782119e-02  8.6172726739441471e-02  9.8833646303069251e-03  9.8892408271435590e-03  9.4548141343424624e-02  5.5384694468902852e-02  4.5867564315935472e-02  5.2416949239215346e-03  5.2416949232634178e-03  8.5747947498385185e-02  5.0233054519459121e-02  2.1903963737209971e-03  9.4895338312111291e-02  5.0607649903984718e-02  9.7865215321415636e-02  9.0851994013555967e-02  9.2561172127682181e-02  8.8277961002897989e-02  5.2642360536694410e-02  4.8250685962950457e-02  9.0416512742730978e-02  1.3046124799906666e-02  6.9471812834986137e-03  1.8260196923005803e-02  4.4266752672851434e-02  2.8660196922933770e-02  3.7739803076852665e-02  3.3860196922895811e-02  2.2133648848501927e-02  5.6948838193104520e-02  8.4262263958271022e-02  7.9027640122670523e-02  7.3799517098757136e-02  6.8641523873694890e-02  6.3448549539168370e-02  9.0438401153820847e-02  9.8224823902505615e-02  9.8217222220126812e-02  5.6602120535953218e-02  6.1837003887826862e-02  3.9358485205414212e-02  6.7040151612329901e-02  7.2237003887883899e-02  3.4214566674685219e-02  7.7440151612035227e-02  2.9017159332903959e-02  8.2640151612235230e-02  2.3843468800200253e-02  1.8572814085694306e-02  2.3757450169341585e-02  1.8611524478344049e-02  2.1847720230431175e-02  1.6547718199098251e-02  2.9011524477879899e-02  3.4211524478797474e-02  2.6952532466825996e-02  3.2152532466733788e-02  3.9349248985241371e-02  3.7447720230328281e-02  4.4611524478122798e-02  4.2552532466406737e-02  8.2550118026777752e-02  7.7338883293763303e-02  7.9352279769480699e-02  7.2138883293460090e-02  7.4152279769498841e-02  6.6938883293795798e-02  6.1738883293924039e-02  6.8952279769515165e-02  6.3752279769529338e-02  5.8614566672766689e-02  1.6627155628808298e-02  2.1826338047888947e-02  8.4614566674137998e-02  2.6990536086584725e-02  7.9373661952658076e-02  7.4152279769455723e-02  3.2190536086591011e-02  6.9004637436744579e-02  3.7395362563183154e-02  6.3773661952161415e-02  4.2585433327266588e-02  5.8638770931420808e-02  5.0321854070981741e-02  1.1473429730694906e-02  1.1476451615208516e-02  1.7134972459127427e-03  1.7391099712218158e-03  1.3474006031721121e-02  1.3474006031631271e-02  8.7736709385604794e-02  4.7728144133874648e-02  5.3489534657451404e-02  9.3019849286631415e-02  8.4060736897523299e-03  8.4358212714852471e-03  6.1822140074620349e-02  5.8635131203400102e-02  6.7030098461708126e-02  7.2230098461685099e-02  7.7369917902070415e-02  8.2569917902276885e-02  2.3822077340760330e-02  3.2181511814704432e-02  1.6583771808458516e-02  2.7018808796037717e-02  3.9422077340615452e-02  4.2648363491876513e-02  9.6201719153746076e-02  9.5986085109321370e-02  5.1877430366476934e-02  5.6852986879942780e-02  4.4309021284542317e-02  8.9248672670719065e-02  6.7057033288085667e-03  6.7152487907143768e-03  8.4243156339291372e-02  3.9907309864696955e-02  2.4307309864505543e-02  8.2040866274959157e-02  7.6840866274895947e-02  7.1661476922729409e-02  6.6440866274929386e-02  6.1181933334541791e-02  5.9138523077100227e-02  1.6095789256825511e-02  2.6492690134961826e-02  3.1688893650699178e-02  4.2092690135237872e-02  8.4769376005813142e-03  1.1471958352702117e-02  1.0991782105198142e-02  8.7201106703014272e-02  3.8344713116343003e-03  3.8406933825101482e-03  4.7175214152885440e-02  5.3953599528752533e-02  8.9607422970849615e-03  9.3566288570831518e-02  5.3971676071078487e-02  4.7228323931692129e-02  9.5520875664714205e-02  5.6044162916438052e-02  3.4726648447352376e-02  2.9525963539965169e-02  1.9126648446985965e-02  4.5115254685872568e-02  3.4621576423997838e-02  2.9424056061672439e-02  3.6842135930838370e-02  1.9021576424245391e-02  2.1278590912805165e-02  6.4315254687574042e-02  6.9515254686390776e-02  7.4715254687506297e-02  7.9915254687525597e-02  2.1236593898572593e-02  8.5038845935979213e-02  7.9913786048631752e-02  7.4687494240772256e-02  6.9514468800685916e-02  3.6875606463576849e-02  6.4307853750367044e-02  1.4023100043934734e-02  1.3981178656197654e-02  9.6378998235590652e-02  5.8616480349327794e-03  5.9658595439347917e-03  9.8374615192564144e-02  9.8454787352373146e-02  8.5150118960576143e-02  3.5936069838981683e-03  8.7049134048386767e-02  5.1480542451263385e-02  4.5391659542767505e-02  5.6014415581202369e-02  4.4018886621588378e-03  1.5023025214800385e-03  1.5899184754366612e-03  4.8882863947719568e-02  4.6836229715907209e-02  5.4408499188984112e-02  4.9226453188945730e-02  5.1981208823158070e-02  9.3616396794207746e-02  8.6691247936831584e-02  8.9357464423716143e-02  9.2055795360083209e-02  9.4003709812056399e-02  4.9271487575277134e-02  9.1520692729456093e-02  8.9175551989288532e-02  6.1413696655118123e-02  6.6626387293792652e-02  7.1826387293720415e-02  7.7022246726811489e-02  8.2219410919548500e-0