<?xml version="1.0"?>
<VTKFile type="UnstructuredGrid"  version="0.1"  >
<UnstructuredGrid>
<Piece  NumberOfPoints="30000" NumberOfCells="59202">
<Points>
<DataArray  type="Float64"  NumberOfComponents="3"  format="ascii">0 0 0  0.77 0 0  0.77 0.15 0  0 0.15 0  0.002575250836115831 0 0  0.005150501672231662 0 0  0.007725752508347561 0 0  0.0103010033444635 0 0  0.01287625418057944 0 0  0.01545150501669537 0 0  0.01802675585281131 0 0  0.02060200668892696 0 0  0.0231772575250426 0 0  0.02575250836115786 0 0  0.02832775919727293 0 0  0.03090301003338809 0 0  0.03347826086950344 0 0  0.0360535117056188 0 0  0.03862876254173415 0 0  0.04120401337784951 0 0  0.04377926421396486 0 0  0.04635451505008022 0 0  0.04892976588619594 0 0  0.05150501672231246 0 0  0.05408026755842897 0 0  0.05665551839454548 0 0  0.059230769230662 0 0  0.06180602006677815 0 0  0.06438127090289408 0 0  0.06695652173901002 0 0  0.06953177257512595 0 0  0.07210702341124189 0 0  0.07468227424735784 0 0  0.07725752508347376 0 0  0.07983277591959044 0 0  0.08240802675570753 0 0  0.08498327759182464 0 0  0.08755852842794172 0 0  0.09013377926405881 0 0  0.0927090301001737 0 0  0.09528428093628846 0 0  0.09785953177240253 0 0  0.1004347826085162 0 0  0.1030100334446298 0 0  0.1055852842807434 0 0  0.108160535116857 0 0  0.1107357859529706 0 0  0.1133110367890842 0 0  0.1158862876251971 0 0  0.1184615384613096 0 0  0.1210367892974217 0 0  0.123612040133533 0 0  0.1261872909696443 0 0  0.1287625418057556 0 0  0.1313377926418669 0 0  0.1339130434779796 0 0  0.1364882943140932 0 0  0.1390635451502075 0 0  0.1416387959863234 0 0  0.1442140468224393 0 0  0.1467892976585553 0 0  0.1493645484946712 0 0  0.1519397993307857 0 0  0.1545150501668993 0 0  0.1570903010030123 0 0  0.1596655518391236 0 0  0.1622408026752349 0 0  0.1648160535113462 0 0  0.1673913043474575 0 0  0.1699665551835688 0 0  0.1725418060196801 0 0  0.1751170568557914 0 0  0.1776923076919027 0 0  0.180267558528014 0 0  0.1828428093641274 0 0  0.185418060200241 0 0  0.187993311036356 0 0  0.1905685618724719 0 0  0.1931438127085879 0 0  0.1957190635447038 0 0  0.1982943143808197 0 0  0.2008695652169336 0 0  0.2034448160530472 0 0  0.2060200668891594 0 0  0.2085953177252707 0 0  0.211170568561382 0 0  0.2137458193974934 0 0  0.2163210702336046 0 0  0.2188963210697159 0 0  0.2214715719058272 0 0  0.2240468227419385 0 0  0.2266220735780498 0 0  0.2291973244141617 0 0  0.2317725752502753 0 0  0.2343478260863889 0 0  0.2369230769225046 0 0  0.2394983277586206 0 0  0.2420735785947365 0 0  0.2446488294308524 0 0  0.2472240802669673 0 0  0.2497993311030786 0 0  0.2523745819391899 0 0  0.2549498327753012 0 0  0.2575250836114125 0 0  0.2601003344475263 0 0  0.2626755852836423 0 0  0.2652508361197582 0 0  0.2678260869558742 0 0  0.2704013377919901 0 0  0.272976588628106 0 0  0.275551839464222 0 0  0.2781270903003354 0 0  0.2807023411364467 0 0  0.2832775919725579 0 0  0.2858528428086692 0 0  0.2884280936447806 0 0  0.2910033444808919 0 0  0.2935785953170031 0 0  0.2961538461531145 0 0  0.2987290969892258 0 0  0.301304347825338 0 0  0.3038795986614539 0 0  0.3064548494975699 0 0  0.3090301003336858 0 0  0.3116053511698018 0 0  0.3141806020059177 0 0  0.3167558528420336 0 0  0.3193311036781486 0 0  0.3219063545142599 0 0  0.3244816053503712 0 0  0.3270568561864825 0 0  0.3296321070225938 0 0  0.3322073578587051 0 0  0.3347826086948165 0 0  0.3373578595309277 0 0  0.339933110367039 0 0  0.3425083612031504 0 0  0.3450836120392617 0 0  0.347658862875373 0 0  0.3502341137114842 0 0  0.3528093645475955 0 0  0.3553846153837077 0 0  0.3579598662198236 0 0  0.3605351170559395 0 0  0.3631103678920555 0 0  0.3656856187281714 0 0  0.3682608695642873 0 0  0.3708361204004033 0 0  0.3734113712365184 0 0  0.3759866220726297 0 0  0.378561872908741 0 0  0.3811371237448562 0 0  0.3837123745809721 0 0  0.3862876254170927 0 0  0.3888628762532179 0 0  0.3914381270893431 0 0  0.3940133779254684 0 0  0.3965886287615936 0 0  0.3991638795977189 0 0  0.401739130433844 0 0  0.4043143812699693 0 0  0.4068896321060945 0 0  0.4094648829422198 0 0  0.412040133778345 0 0  0.4146153846144702 0 0  0.4171906354505954 0 0  0.4197658862867207 0 0  0.4223411371228482 0 0  0.4249163879589781 0 0  0.4274916387951079 0 0  0.4300668896312377 0 0  0.4326421404673676 0 0  0.4352173913034975 0 0  0.4377926421396274 0 0  0.4403678929757572 0 0  0.4429431438118872 0 0  0.4455183946480163 0 0  0.4480936454841415 0 0  0.4506688963202668 0 0  0.453244147156392 0 0  0.4558193979925173 0 0  0.4583946488286424 0 0  0.4609698996647677 0 0  0.463545150500893 0 0  0.4661204013370182 0 0  0.4686956521731435 0 0  0.4712709030092686 0 0  0.4738461538453939 0 0  0.4764214046815212 0 0  0.4789966555176511 0 0  0.481571906353781 0 0  0.4841471571899109 0 0  0.4867224080260408 0 0  0.489297658862167 0 0  0.4918729096982922 0 0  0.4944481605344174 0 0  0.4970234113705426 0 0  0.4995986622066672 0 0  0.5021739130427878 0 0  0.5047491638789084 0 0  0.5073244147150326 0 0  0.5098996655511578 0 0  0.5124749163872871 0 0  0.5150501672234217 0 0  0.5176254180595552 0 0  0.5202006688956804 0 0  0.5227759197318056 0 0  0.5253511705679309 0 0  0.5279264214040561 0 0  0.5305016722401854 0 0  0.5330769230763199 0 0  0.5356521739124535 0 0  0.5382274247485787 0 0  0.5408026755847039 0 0  0.5433779264208219 0 0  0.5459531772569379 0 0  0.5485284280930578 0 0  0.5511036789291831 0 0  0.5536789297653092 0 0  0.5562541806014436 0 0  0.5588294314375781 0 0  0.5614046822737055 0 0  0.5639799331098307 0 0  0.5665551839459561 0 0  0.5691304347820813 0 0  0.5717056856182072 0 0  0.5742809364543418 0 0  0.5768561872904763 0 0  0.5794314381266108 0 0  0.5820066889627452 0 0  0.5845819397988758 0 0  0.5871571906350012 0 0  0.5897324414711264 0 0  0.5923076923072516 0 0  0.5948829431433768 0 0  0.5974581939795088 0 0  0.6000334448156434 0 0  0.6026086956517741 0 0  0.6051839464878993 0 0  0.6077591973240239 0 0  0.6103344481601398 0 0  0.6129096989962558 0 0  0.6154849498323786 0 0  0.6180602006685038 0 0  0.6206354515046327 0 0  0.6232107023407671 0 0  0.6257859531769011 0 0  0.6283612040130263 0 0  0.6309364548491515 0 0  0.6335117056852767 0 0  0.636086956521402 0 0  0.6386622073575308 0 0  0.6412374581936653 0 0  0.6438127090297993 0 0  0.6463879598659246 0 0  0.6489632107020498 0 0  0.6515384615381682 0 0  0.6541137123742842 0 0  0.6566889632104037 0 0  0.6592642140465289 0 0  0.6618394648826547 0 0  0.6644147157187892 0 0  0.6669899665549236 0 0  0.6695652173910515 0 0  0.6721404682271768 0 0  0.674715719063302 0 0  0.6772909698994272 0 0  0.6798662207355527 0 0  0.6824414715716872 0 0  0.6850167224078217 0 0  0.6875919732439497 0 0  0.6901672240800749 0 0  0.6927424749161967 0 0  0.6953177257523127 0 0  0.6978929765884289 0 0  0.7004682274245541 0 0  0.7030434782606794 0 0  0.705618729096811 0 0  0.7081939799329454 0 0  0.7107692307690766 0 0  0.7133444816052019 0 0  0.7159197324413271 0 0  0.7184949832774523 0 0  0.7210702341135775 0 0  0.7236454849497092 0 0  0.7262207357858437 0 0  0.7287959866219749 0 0  0.7313712374581001 0 0  0.7339464882942252 0 0  0.7365217391303411 0 0  0.7390969899664571 0 0  0.7416722408025793 0 0  0.7442474916387045 0 0  0.7468227424748329 0 0  0.7493979933109675 0 0  0.7519732441471019 0 0  0.7545484949832271 0 0  0.7571237458193523 0 0  0.7596989966554775 0 0  0.7622742474916027 0 0  0.764849498327731 0 0  0.7674247491638655 0 0  0.77 0.00151515151514865 0  0.77 0.00303030303029739 0  0.77 0.004545454545445983 0  0.77 0.006060606060594207 0  0.77 0.0075757575757424 0  0.77 0.009090909090890721 0  0.77 0.01060606060603985 0  0.77 0.01212121212118902 0  0.77 0.01363636363633808 0  0.77 0.01515151515148738 0  0.77 0.01666666666663625 0  0.77 0.0181818181817851 0  0.77 0.0196969696969334 0  0.77 0.02121212121208063 0  0.77 0.02272727272722773 0  0.77 0.02424242424237482 0  0.77 0.02575757575752192 0  0.77 0.02727272727266921 0  0.77 0.02878787878781718 0  0.77 0.03030303030296458 0  0.77 0.03181818181811168 0  0.77 0.03333333333325877 0  0.77 0.03484848484840587 0  0.77 0.03636363636355297 0  0.77 0.03787878787870007 0  0.77 0.03939393939384717 0  0.77 0.04090909090899427 0  0.77 0.04242424242414138 0  0.77 0.04393939393928849 0  0.77 0.04545454545443559 0  0.77 0.0469696969695827 0  0.77 0.0484848484847298 0  0.77 0.0499999999998769 0  0.77 0.051515151515024 0  0.77 0.0530303030301711 0  0.77 0.05454545454531821 0  0.77 0.05606060606046645 0  0.77 0.05757575757561512 0  0.77 0.05909090909076222 0  0.77 0.06060606060590933 0  0.77 0.06212121212105642 0  0.77 0.06363636363620354 0  0.77 0.06515151515135063 0  0.77 0.06666666666649775 0  0.77 0.06818181818164484 0  0.77 0.06969696969679194 0  0.77 0.07121212121193905 0  0.77 0.07272727272708615 0  0.77 0.07424242424223421 0  0.77 0.07575757575738658 0  0.77 0.07727272727254068 0  0.77 0.07878787878769478 0  0.77 0.08030303030285031 0  0.77 0.08181818181800792 0  0.77 0.08333333333316251 0  0.77 0.08484848484831661 0  0.77 0.08636363636347259 0  0.77 0.08787878787863022 0  0.77 0.08939393939378434 0  0.77 0.09090909090893845 0  0.77 0.0924242424240949 0  0.77 0.09393939393925207 0  0.77 0.09545454545440618 0  0.77 0.09696969696956029 0  0.77 0.09848484848471721 0  0.77 0.09999999999987391 0  0.77 0.101515151515028 0  0.77 0.1030303030301821 0  0.77 0.1045454545453395 0  0.77 0.1060606060604957 0  0.77 0.1075757575756499 0  0.77 0.1090909090908042 0  0.77 0.1106060606059618 0  0.77 0.1121212121211176 0  0.77 0.1136363636362717 0  0.77 0.1151515151514292 0  0.77 0.1166666666665853 0  0.77 0.1181818181817394 0  0.77 0.1196969696968939 0  0.77 0.1212121212120515 0  0.77 0.1227272727272072 0  0.77 0.1242424242423612 0  0.77 0.1257575757575127 0  0.77 0.1272727272726668 0  0.77 0.1287878787878209 0  0.77 0.1303030303029804 0  0.77 0.1318181818181345 0  0.77 0.1333333333332886 0  0.77 0.1348484848484431 0  0.77 0.1363636363636022 0  0.77 0.1378787878787563 0  0.77 0.1393939393939104 0  0.77 0.1409090909090658 0  0.77
[...]
<PointData  Scalars="pressure"> 
<DataArray  type="Float64"  Name="pressure"  format="ascii">0.0000000000000000e+00  0.0000000000000000e+00  0.0000000000000000e+00  0.0000000000000000e+00  0.0000000000000000e+00  0.0000000000000000e+00  0.0000000000000000e+00  0.0000000000000000e+00  0.0000000000000000e+00  0.0000000000000000e+00  0.0000000000000000e+00  0.0000000000000000e+00  0.0000000000000000e+00  0.0000000000000000e+00  0.0000000000000000e+00  0.0000000000000000e+00  0.0000000000000000e+00  0.0000000000000000e+00  0.0000000000000000e+00  0.0000000000000000e+00  0.0000000000000000e+00  0.0000000000000000e+00  0.0000000000000000e+00  0.0000000000000000e+00  0.0000000000000000e+00  0.0000000000000000e+00  0.0000000000000000e+00  0.0000000000000000e+00  0.0000000000000000e+00  0.0000000000000000e+00  0.0000000000000000e+00  0.0000000000000000e+00  0.0000000000000000e+00  0.0000000000000000e+00  0.0000000000000000e+00  0.0000000000000000e+00  0.0000000000000000e+00  0.0000000000000000e+00  0.0000000000000000e+00  0.0000000000000000e+00  0.0000000000000000e+00  0.0000000000000000e+00  0.0000000000000000e+00  0.0000000000000000e+00  0.0000000000000000e+00  0.0000000000000000e+00  0.0000000000000000e+00  0.0000000000000000e+00  0.0000000000000000e+00  0.0000000000000000e+00  0.0000000000000000e+00  0.0000000000000000e+00  0.0000000000000000e+00  0.0000000000000000e+00  0.0000000000000000e+00  0.0000000000000000e+00  0.0000000000000000e+00  0.0000000000000000e+00  0.0000000000000000e+00  0.0000000000000000e+00  0.0000000000000000e+00  0.0000000000000000e+00  0.0000000000000000e+00  0.0000000000000000e+00  0.0000000000000000e+00  0.0000000000000000e+00  0.0000000000000000e+00  0.0000000000000000e+00  0.0000000000000000e+00  0.0000000000000000e+00  0.0000000000000000e+00  0.0000000000000000e+00  0.0000000000000000e+00  0.0000000000000000e+00  0.0000000000000000e+00  0.0000000000000000e+00  0.0000000000000000e+00  0.0000000000000000e+00  0.0000000000000000e+00  0.0000000000000000e+00  0.0000000000000000e+00  0.0000000000000000e+00  0.0000000000000000e+00  0.0000000000000000e+00  0.0000000000000000e+00  0.0000000000000000e+00  0.0000000000000000e+00  0.0000000000000000e+00  0.0000000000000000e+00  0.0000000000000000e+00  0.0000000000000000e+00  0.0000000000000000e+00  0.0000000000000000e+00  0.0000000000000000e+00  0.0000000000000000e+00  0.0000000000000000e+00  0.0000000000000000e+00  0.0000000000000000e+00  0.0000000000000000e+00  0.0000000000000000e+00  0.0000000000000000e+00  0.0000000000000000e+00  0.0000000000000000e+00  0.0000000000000000e+00  0.0000000000000000e+00  0.0000000000000000e+00  0.0000000000000000e+00  0.0000000000000000e+00  0.0000000000000000e+00  0.0000000000000000e+00  0.0000000000000000e+00  0.0000000000000000e+00  0.0000000000000000e+00  0.0000000000000000e+00  0.0000000000000000e+00  0.0000000000000000e+00  0.0000000000000000e+00  0.0000000000000000e+00  0.0000000000000000e+00  0.0000000000000000e+00  0.0000000000000000e+00  0.0000000000000000e+00  0.0000000000000000e+00  0.0000000000000000e+00  0.0000000000000000e+00  0.0000000000000000e+00  0.0000000000000000e+00  0.0000000000000000e+00  0.0000000000000000e+00  0.0000000000000000e+00  0.0000000000000000e+00  0.0000000000000000e+00  0.0000000000000000e+00  0.0000000000000000e+00  0.0000000000000000e+00  0.0000000000000000e+00  0.0000000000000000e+00  0.0000000000000000e+00  0.0000000000000000e+00  0.0000000000000000e+00  0.0000000000000000e+00  0.0000000000000000e+00  0.0000000000000000e+00  0.0000000000000000e+00  0.0000000000000000e+00  0.0000000000000000e+00  0.0000000000000000e+00  0.0000000000000000e+00  0.0000000000000000e+00  0.0000000000000000e+00  0.0000000000000000e+00  0.0000000000000000e+00  0.0000000000000000e+00  0.0000000000000000e+00  0.0000000000000000e+00  0.0000000000000000e+00  0.0000000000000000e+00  0.0000000000000000e+00  0.0000000000000000e+00  0.0000000000000000e+00  0.0000000000000000e+00  0.0000000000000000e+00  0.0000000000000000e+00  0.0000000000000000e+00  0.0000000000000000e+00  0.0000000000000000e+00  0.0000000000000000e+00  0.0000000000000000e+00  0.0000000000000000e+00  0.0000000000000000e+00  0.0000000000000000e+00  0.0000000000000000e+00  0.0000000000000000e+00  0.0000000000000000e+00  0.0000000000000000e+00  0.0000000000000000e+00  0.0000000000000000e+00  0.0000000000000000e+00  0.0000000000000000e+00  0.0000000000000000e+00  0.0000000000000000e+00  0.0000000000000000e+00  0.0000000000000000e+00  0.0000000000000000e+00  0.0000000000000000e+00  0.0000000000000000e+00  0.0000000000000000e+00  0.0000000000000000e+00  0.0000000000000000e+00  0.0000000000000000e+00  0.0000000000000000e+00  0.0000000000000000e+00  0.0000000000000000e+00  0.0000000000000000e+00  0.0000000000000000e+00  0.0000000000000000e+00  0.0000000000000000e+00  0.0000000000000000e+00  0.0000000000000000e+00  0.0000000000000000e+00  0.0000000000000000e+00  0.0000000000000000e+00  0.0000000000000000e+00  0.0000000000000000e+00  0.0000000000000000e+00  0.0000000000000000e+00  0.0000000000000000e+00  0.0000000000000000e+00  0.0000000000000000e+00  0.0000000000000000e+00  0.0000000000000000e+00  0.0000000000000000e+00  0.0000000000000000e+00  0.0000000000000000e+00  0.0000000000000000e+00  0.0000000000000000e+00  0.0000000000000000e+00  0.0000000000000000e+00  0.0000000000000000e+00  0.0000000000000000e+00  0.0000000000000000e+00  0.0000000000000000e+00  0.0000000000000000e+00  0.0000000000000000e+00  0.0000000000000000e+00  0.0000000000000000e+00  0.0000000000000000e+00  0.0000000000000000e+00  0.0000000000000000e+00  0.0000000000000000e+00  0.0000000000000000e+00  0.0000000000000000e+00  0.0000000000000000e+00  0.0000000000000000e+00  0.0000000000000000e+00  0.0000000000000000e+00  0.0000000000000000e+00  0.0000000000000000e+00  0.0000000000000000e+00  0.0000000000000000e+00  0.0000000000000000e+00  0.0000000000000000e+00  0.0000000000000000e+00  0.0000000000000000e+00  0.0000000000000000e+00  0.0000000000000000e+00  0.0000000000000000e+00  0.0000000000000000e+00  0.0000000000000000e+00  0.0000000000000000e+00  0.0000000000000000e+00  0.0000000000000000e+00  0.0000000000000000e+00  0.0000000000000000e+00  0.0000000000000000e+00  0.0000000000000000e+00  0.0000000000000000e+00  0.0000000000000000e+00  0.0000000000000000e+00  0.0000000000000000e+00  0.0000000000000000e+00  0.0000000000000000e+00  0.0000000000000000e+00  0.0000000000000000e+00  0.0000000000000000e+00  0.0000000000000000e+00  0.0000000000000000e+00  0.0000000000000000e+00  0.0000000000000000e+00  0.0000000000000000e+00  0.0000000000000000e+00  0.0000000000000000e+00  0.0000000000000000e+00  0.0000000000000000e+00  0.0000000000000000e+00  0.0000000000000000e+00  0.0000000000000000e+00  0.0000000000000000e+00  0.0000000000000000e+00  0.0000000000000000e+00  0.0000000000000000e+00  0.0000000000000000e+00  0.0000000000000000e+00  0.0000000000000000e+00  0.0000000000000000e+00  0.0000000000000000e+00  0.0000000000000000e+00  0.0000000000000000e+00  0.0000000000000000e+00  0.0000000000000000e+00  0.0000000000000000e+00  0.0000000000000000e+00  0.0000000000000000e+00  0.0000000000000000e+00  0.0000000000000000e+00  0.0000000000000000e+00  0.0000000000000000e+00  0.0000000000000000e+00  0.0000000000000000e+00  0.0000000000000000e+00  0.0000000000000000e+00  0.0000000000000000e+00  0.0000000000000000e+00  0.0000000000000000e+00  0.0000000000000000e+00  0.0000000000000000e+00  0.0000000000000000e+00  0.0000000000000000e+00  0.0000000000000000e+00  0.0000000000000000e+00  0.0000000000000000e+00  0.0000000000000000e+00  0.0000000000000000e+00  0.0000000000000000e+00  0.0000000000000000e+00  0.0000000000000000e+00  0.0000000000000000e+00  0.0000000000000000e+00  0.0000000000000000e+00  0.0000000000000000e+00  0.0000000000000000e+00  0.0000000000000000e+00  0.0000000000000000e+00  0.0000000000000000e+00  0.0000000000000000e+00  0.0000000000000000e+00  0.0000000000000000e+00  0.0000000000000000e+00  0.0000000000000000e+00  0.0000000000000000e+00  0.0000000000000000e+00  0.0000000000000000e+00  0.0000000000000000e+00  0.0000000000000000e+00  0.0000000000000000e+00  0.0000000000000000e+00  0.0000000000000000e+00  0.0000000000000000e+00  0.0000000000000000e+00  0.0000000000000000e+00  0.0000000000000000e+00  0.0000000000000000e+00  0.0000000000000000e+00  0.0000000000000000e+00  0.0000000000000000e+00  0.0000000000000000e+00  0.0000000000000000e+00  0.0000000000000000e+00  0.0000000000000000e+00  0.0000000000000000e+00  0.0000000000000000e+00  0.0000000000000000e+00  0.0000000000000000e+00  0.0000000000000000e+00  0.0000000000000000e+00  0.0000000000000000e+00  0.0000000000000000e+00  0.0000000000000000e+00  0.0000000000000000e+00  0.0000000000000000e+00  0.0000000000000000e+00  0.0000000000000000e+00  0.0000000000000000e+00  0.0000000000000000e+00  0.0000000000000000e+00  0.0000000000000000e+00  0.0000000000000000e+00  0.0000000000000000e+00  0.0000000000000000e+00  0.0000000000000000e+00  0.0000000000000000e+00  0.0000000000000000e+00  0.0000000000000000e+00  0.0000000000000000e+00  0.0000000000000000e+00  0.0000000000000000e+00  0.0000000000000000e+00  0.0000000000000000e+00  0.0000000000000000e+00  0.0000000000000000e+00  0.0000000000000000e+00  0.0000000000000000e+00  0.0000000000000000e+00  0.0000000000000000e+00  0.0000000000000000e+00  0.0000000000000000e+00  0.0000000000000000e+00  0.0000000000000000e+00  0.0000000000000000e+00  0.0000000000000000e+00  0.0000000000000000e+00  0.0000000000000000e+00  0.0000000000000000e+00  0.0000000000000000e+00  0.0000000000000000e+00  0.0000000000000000e+00  0.0000000000000000e+00  0.0000000000000000e+00  0.0000000000000000e+00  0.0000000000000000e+00  0.0000000000000000e+00  0.0000000000000000e+00  0.0000000000000000e+00  0.0000000000000000e+00  0.0000000000000000e+00  0.0000000000000000e+00  0.0000000000000000e+00  0.0000000000000000e+00  0.0000000000000000e+00  0.0000000000000000e+00  0.0000000000000000e+00  0.0000000000000000e+00  0.0000000000000000e+00  0.0000000000000000e+00  0.0000000000000000e+00  0.0000000000000000e+00  0.0000000000000000e+00  0.0000000000000000e+00  0.0000000000000000e+00  0.0000000000000000e+00  0.0000000000000000e+00  0.0000000000000000e+00  0.0000000000000000e+00  0.0000000000000000e+00  0.0000000000000000e+00  0.0000000000000000e+00  0.0000000000000000e+00  0.0000000000000000e+00  0.0000000000000000e+00  0.0000000000000000e+00  0.0000000000000000e+00  0.0000000000000000e+00  0.0000000000000000e+00  0.0000000000000000e+00  0.0000000000000000e+00  0.0000000000000000e+00  0.0000000000000000e+00  0.0000000000000000e+00  0.0000000000000000e+00  0.0000000000000000e+00  0.0000000000000000e+00  0.0000000000000000e+00  0.0000000000000000e+00  0.0000000000000000e+00  0.0000000000000000e+00  0.0000000000000000e+00  0.0000000000000000e+00  0.0000000000000000e+00  0.0000000000000000e+00  0.0000000000000000e+00  0.0000000000000000e+00  0.0000000000000000e+00  0.0000000000000000e+00  0.0000000000000000e+00  0.0000000000000000e+00  0.0000000000000000e+00  0.0000000000000000e+00  0.0000000000000000e+00  0.0000000000000000e+00  0.0000000000000000e+00  0.0000000000000000e+00  0.0000000000000000e+00  0.0000000000000000e+00  0.0000000000000000e+00  0.0000000000000000e+00  0.0000000000000000e+00  0.0000000000000000e+00  0.0000000000000000e+00  0.0000000000000000e+00  0.0000000000000000e+00  0.0000000000000000e+00  0.0000000000000000e+00  0.0000000000000000e+00  0.0000000000000000e+00  0.0000000000000000e+00  0.0000000000000000e+00  0.0000000000000000e+00  0.0000000000000000e+00  0.0000000000000000e+00  0.0000000000000000e+00  0.0000000000000000e+00  0.0000000000000000e+00  0.0000000000000000e+00  0.0000000000000000e+00  0.0000000000000000e+00  0.0000000000000000e+00  0.0000000000000000e+00  0.0000000000000000e+00  0.0000000000000000e+00  0.0000000000000000e+00  0.0000000000000000e+00  0.0000000000000000e+00  0.0000000000000000e+00  0.0000000000000000e+00  0.0000000000000000e+00  0.0000000000000000e+00  0.0000000000000000e+00  0.0000000000000000e+00  0.0000000000000000e+00  0.0000000000000000e+00  0.0000000000000000e+00  0.0000000000000000e+00  0.0000000000000000e+00  0.0000000000000000e+00  0.0000000000000000e+00  0.0000000000000000e+00  0.0000000000000000e+00  0.0000000000000000e+00  0.0000000000000000e+00  0.0000000000000000e+00  0.0000000000000000e+00  0.0000000000000000e+00  0.0000000000000000e+00  0.0000000000000000e+00  0.0000000000000000e+00  0.0000000000000000e+00  0.0000000000000000e+00  0.0000000000000000e+00  0.0000000000000000e+00  0.0000000000000000e+00  0.0000000000000000e+00  0.0000000000000000e+00  0.0000000000000000e+00  0.0000000000000000e+00  0.0000000000000000e+00  0.0000000000000000e+00  0.0000000000000000e+00  0.0000000000000000e+00  0.0000000000000000e+00  0.0000000000000000e+00  0.0000000000000000e+00  0.0000000000000000e+00  0.0000000000000000e+00  0.0000000000000000e+00  0.0000000000000000e+00  0.0000000000000000e+00  0.0000000000000000e+00  0.0000000000000000e+00  0.0000000000000000e+00  0.0000000000000000e+00  0.0000000000000000e+00  0.0000000000000000e+00  0.0000000000000000e+00  0.0000000000000000e+00  0.0000000000000000e+00  0.0000000000000000e+00  0.0000000000000000e+00  0.0000000000000000e+00  0.0000000000000000e+00  0.0000000000000000e+00  0.0000000000000000e+00  0.0000000000000000e+00  0.0000000000000000e+00  0.0000000000000000e+00  0.0000000000000000e+00  0.0000000000000000e+00  0.0000000000000000e+00  0.0000000000000000e+00  0.0000000000000000e+00  0.0000000000000000e+00  0.0000000000000000e+00  0.0000000000000000e+00  0.0000000000000000e+00  0.0000000000000000e+00  0.0000000000000000e+00  0.0000000000000000e+00  0.0000000000000000e+00  0.0000000000000000e+00  0.0000000000000000e+00  0.0000000000000000e+00  0.0000000000000000e+00  0.0000000000000000e+00  0.0000000000000000e+00  0.0000000000000000e+00  0.0000000000000000e+00  0.0000000000000000e+00  0.0000000000000000e+00  0.0000000000000000e+00  0.0000000000000000e+00  0.0000000000000000e+00  0.0000000000000000e+00  0.0000000000000000e+00  0.0000000000000000e+00  0.0000000000000000e+00  0.0000000000000000e+00  0.0000000000000000e+00  0.0000000000000000e+00  0.0000000000000000e+00  0.0000000000000000e+00  0.0000000000000000e+00  0.0000000000000000e+00  0.0000000000000000e+00  0.0000000000000000e+00  0.0000000000000000e+00  0.0000000000000000e+00  0.0000000000000000e+00  0.0000000000000000e+00  0.0000000000000000e+00  0.0000000000000000e+00  0.0000000000000000e+00  0.0000000000000000e+00  0.0000000000000000e+00  0.0000000000000000e+00  0.0000000000000000e+00  0.0000000000000000e+00  0.0000000000000000e+00  0.0000000000000000e+00  0.0000000000000000e+00  0.0000000000000000e+00  0.0000000000000000e+00  0.0000000000000000e+00  0.0000000000000000e+00  0.0000000000000000e+00  0.0000000000000000e+00  0.0000000000000000e+00  0.0000000000000000e+00  0.0000000000000000e+00  0.0000000000000000e+00  0.0000000000000000e+00  0.0000000000000000e+00  0.0000000000000000e+00  0.0000000000000000e+00  0.0000000000000000e+00  0.0000000000000000e+00  0.0000000000000000e+00  0.0000000000000000e+00  0.0000000000000000e+00  0.0000000000000000e+00  0.0000000000000000e+00  0.0000000000000000e+00  0.0000000000000000e+00  0.0000000000000000e+00  0.0000000000000000e+00  0.0000000000000000e+00  0.0000000000000000e+00  0.0000000000000000e+00  0.0000000000000000e+00  0.0000000000000000e+00  0.0000000000000000e+00  0.0000000000000000e+00  0.0000000000000000e+00  0.0000000000000000e+00  0.0000000000000000e+00  0.0000000000000000e+00  0.0000000000000000e+00  0.0000000000000000e+00  0.0000000000000000e+00  0.0000000000000000e+00  0.0000000000000000e+00  0.0000000000000000e+00  0.0000000000000000e+00  0.0000000000000000e+00  0.0000000000000000e+00  0.0000000000000000e+00  0.0000000000000000e+00  0.0000000000000000e+00  0.0000000000000000e+00  0.0000000000000000e+00  0.0000000000000000e+00  0.0000000000000000e+00  0.0000000000000000e+00  0.0000000000000000e+00  0.0000000000000000e+00  0.0000000000000000e+00  0.0000000000000000e+00  0.0000000000000000e+00  0.0000000000000000e+00  0.0000000000000000e+00  0.0000000000000000e+00  0.0000000000000000e+00  0.0000000000000000e+00  0.0000000000000000e+00  0.0000000000000000e+00  0.0000000000000000e+00  0.0000000000000000e+00  0.0000000000000000e+00  0.0000000000000000e+00  0.0000000000000000e+00  0.0000000000000000e+00  0.0000000000000000e+00  0.0000000000000000e+00  0.0000000000000000e+00  0.0000000000000000e+00  0.0000000000000000e+00  0.0000000000000000e+00  0.0000000000000000e+00  0.0000000000000000e+00  0.0000000000000000e+00  0.0000000000000000e+00  0.0000000000000000e+00  0.0000000000000000e+00  0.0000000000000000e+00  0.0000000000000000e+00  0.0000000000000000e+00  0.0000000000000000e+00  0.0000000000000000e+00  0.0000000000000000e+00  0.0000000000000000e+00  0.0000000000000000e+00  0.0000000000000000e+00  0.0000000000000000e+00  0.0000000000000000e+00  0.0000000000000000e+00  0.0000000000000000e+00  0.0000000000000000e+00  0.0000000000000000e+00  0.0000000000000000e+00  0.0000000000000000e+00  0.0000000000000000e+00  0.0000000000000000e+00  0.0000000000000000e+00  0.0000000000000000e+00  0.0000000000000000e+00  0.0000000000000000e+00  0.0000000000000000e+00  0.0000000000000000e+00  0.0000000000000000e+00  0.0000000000000000e+00  0.0000000000000000e+00  0.0000000000000000e+00  0.0000000000000000e+00  0.0000000000000000e+00  0.0000000000000000e+00  0.0000000000000000e+00  0.0000000000000000e+00  0.0000000000000000e+00  0.0000000000000000e+00  0.0000000000000000e+00  0.0000000000000000e+00  0.0000000000000000e+00  0.0000000000000000e+00  0.0000000000000000e+00  0.0000000000000000e+00  0.0000000000000000e+00  0.0000000000000000e+00  0.0000000000000000e+00  0.0000000000000000e+00  0.0000000000000000e+00  0.0000000000000000e+00  0.0000000000000000e+00  0.0000000000000000e+00  0.0000000000000000e+00  0.0000000000000000e+00  0.0000000000000000e+00  0.0000000000000000e+00  0.0000000000000000e+00  0.0000000000000000e+00  0.0000000000000000e+00  0.0000000000000000e+00  0.0000000000000000e+00  0.0000000000000000e+00  0.0000000000000000e+00  0.0000000000000000e+00  0.0000000000000000e+00  0.0000000000000000e+00  0.0000000000000000e+00  0.0000000000000000e+00  0.0000000000000000e+00  0.0000000000000000e+00  0.0000000000000000e+00  0.0000000000000000e+00  0.0000000000000000e+00  0.0000000000000000e+00  0.0000000000000000e+00  0.0000000000000000e+00  0.0000000000000000e+00  0.0000000000000000e+00  0.0000000000000000e+00  0.0000000000000000e+00  0.0000000000000000e+00  0.0000000000000000e+00  0.0000000000000000e+00  0.0000000000000000e+00  0.0000000000000000e+00  0.0000000000000000e+00  0.0000000000000000e+00  0.0000000000000000e+00  0.0000000000000000e+00  0.0000000000000000e+00  0.0000000000000000e+00  0.0000000000000000e+00  0.0000000000000000e+00  0.0000000000000000e+00  0.0000000000000000e+00  0.0000000000000000e+00  0.0000000000000000e+00  0.0000000000000000e+00  0.0000000000000000e+00  0.0000000000000000e+00  0.0000000000000000e+00  0.0000000000000000e+00  0.0000000000000000e+00  0.0000000000000000e+00  0.0000000000000000e+00  0.0000000000000000e+00  0.0000000000000000e+00  0.0000000000000000e+00  0.0000000000000000e+00  0.0000000000000000e+00  0.0000000000000000e+00  0.0000000000000000e+00  0.0000000000000000e+00  0.0000000000000000e+00  0.0000000000000000e+00  0.0000000000000000e+00  0.0000000000000000e+00  0.0000000000000000e+00  0.0000000000000000e+00  0.0000000000000000e+00  0.0000000000000000e+00  0.0000000000000000e+00  0.0000000000000000e+00  0.0000000000000000e+00  0.0000000000000000e+00  0.0000000000000000e+00  0.0000000000000000e+00  0.0000000000000000e+00  0.0000000000000000e+00  0.0000000000000000e+00  0.0000000000000000e+00  0.0000000000000000e+00  0.0000000000000000e+00  0.0000000000000000e+00  0.0000000000000000e+00  0.0000000000000000e+00  0.0000000000000000e+00  0.0000000000000000e+00  0.0000000000000000e+00  0.0000000000000000e+00  0.000000000