<?xml version="1.0"?>
<VTKFile type="UnstructuredGrid"  version="0.1"  >
<UnstructuredGrid>
<Piece  NumberOfPoints="21337" NumberOfCells="41988">
<Points>
<DataArray  type="Float64"  NumberOfComponents="3"  format="ascii">0 0 0  0.77 0 0  0.77 0.15 0  0 0.15 0  0.002692307692302917 0 0  0.005384615384605834 0 0  0.008076923076908835 0 0  0.01076923076921186 0 0  0.01346153846151489 0 0  0.01615384615381792 0 0  0.01884615384612085 0 0  0.02153846153842357 0 0  0.02423076923072626 0 0  0.02692307692302838 0 0  0.02961538461533049 0 0  0.03230769230763287 0 0  0.03499999999993529 0 0  0.03769230769223771 0 0  0.04038461538454013 0 0  0.04307692307684255 0 0  0.04576923076914497 0 0  0.04846153846144754 0 0  0.05115384615375117 0 0  0.0538461538460548 0 0  0.05653846153835843 0 0  0.05923076923066205 0 0  0.06192307692296529 0 0  0.06461538461526832 0 0  0.06730769230757135 0 0  0.06999999999987438 0 0  0.07269230769217741 0 0  0.07538461538448044 0 0  0.07807692307678345 0 0  0.08076923076908764 0 0  0.08346153846139188 0 0  0.08615384615369612 0 0  0.08884615384600036 0 0  0.0915384615383034 0 0  0.09423076923060524 0 0  0.09692307692290673 0 0  0.09961538461520734 0 0  0.1023076923075079 0 0  0.1049999999998086 0 0  0.1076923076921091 0 0  0.1103846153844097 0 0  0.1130769230767103 0 0  0.1157692307690103 0 0  0.1184615384613097 0 0  0.1211538461536087 0 0  0.1238461538459068 0 0  0.126538461538205 0 0  0.1292307692305032 0 0  0.1319230769228014 0 0  0.1346153846151016 0 0  0.1373076923074022 0 0  0.1399999999997043 0 0  0.1426923076920073 0 0  0.1453846153843103 0 0  0.1480769230766134 0 0  0.150769230768916 0 0  0.1534615384612166 0 0  0.1561538461535172 0 0  0.1588461538458156 0 0  0.1615384615381138 0 0  0.164230769230412 0 0  0.1669230769227102 0 0  0.1696153846150083 0 0  0.1723076923073065 0 0  0.1749999999996047 0 0  0.1776923076919029 0 0  0.180384615384201 0 0  0.1830769230765016 0 0  0.1857692307688022 0 0  0.1884615384611046 0 0  0.1911538461534076 0 0  0.1938461538457106 0 0  0.1965384615380136 0 0  0.199230769230316 0 0  0.2019230769226166 0 0  0.2046153846149171 0 0  0.2073076923072153 0 0  0.2099999999995135 0 0  0.2126923076918116 0 0  0.2153846153841098 0 0  0.218076923076408 0 0  0.2207692307687062 0 0  0.2234615384610044 0 0  0.2261538461533025 0 0  0.2288461538456009 0 0  0.2315384615379015 0 0  0.2342307692302022 0 0  0.2369230769225048 0 0  0.2396153846148079 0 0  0.2423076923071109 0 0  0.2449999999994139 0 0  0.247692307691715 0 0  0.2503846153840132 0 0  0.2530769230763114 0 0  0.2557692307686096 0 0  0.2584615384609077 0 0  0.2611538461532104 0 0  0.2638461538455134 0 0  0.2665384615378165 0 0  0.2692307692301195 0 0  0.2719230769224225 0 0  0.2746153846147255 0 0  0.2773076923070275 0 0  0.2799999999993256 0 0  0.2826923076916238 0 0  0.285384615383922 0 0  0.2880769230762202 0 0  0.2907692307685183 0 0  0.2934615384608165 0 0  0.2961538461531147 0 0  0.2988461538454129 0 0  0.3015384615377124 0 0  0.3042307692300155 0 0  0.3069230769223185 0 0  0.3096153846146215 0 0  0.3123076923069245 0 0  0.3149999999992276 0 0  0.3176923076915306 0 0  0.3203846153838307 0 0  0.323076923076129 0 0  0.3257692307684272 0 0  0.3284615384607253 0 0  0.3311538461530235 0 0  0.3338461538453217 0 0  0.3365384615376198 0 0  0.339230769229918 0 0  0.3419230769222162 0 0  0.3446153846145144 0 0  0.3473076923068126 0 0  0.3499999999991107 0 0  0.3526923076914089 0 0  0.3553846153837079 0 0  0.3580769230760109 0 0  0.360769230768314 0 0  0.363461538460617 0 0  0.3661538461529201 0 0  0.3688461538452231 0 0  0.3715384615375261 0 0  0.3742307692298269 0 0  0.3769230769221251 0 0  0.3796153846144243 0 0  0.3823076923067274 0 0  0.3849999999990304 0 0  0.3876923076913432 0 0  0.3903846153836559 0 0  0.3930769230759686 0 0  0.3957692307682814 0 0  0.3984615384605941 0 0  0.4011538461529068 0 0  0.4038461538452195 0 0  0.4065384615375321 0 0  0.409230769229845 0 0  0.4119230769221576 0 0  0.4146153846144704 0 0  0.4173076923067831 0 0  0.4199999999990959 0 0  0.4226923076914115 0 0  0.425384615383729 0 0  0.4280769230760466 0 0  0.4307692307683642 0 0  0.4334615384606818 0 0  0.4361538461529995 0 0  0.438846153845317 0 0  0.4415384615376347 0 0  0.4442307692299522 0 0  0.4469230769222666 0 0  0.4496153846145793 0 0  0.4523076923068921 0 0  0.4549999999992048 0 0  0.4576923076915175 0 0  0.4603846153838302 0 0  0.463076923076143 0 0  0.4657692307684557 0 0  0.4684615384607684 0 0  0.471153846153081 0 0  0.4738461538453938 0 0  0.4765384615377089 0 0  0.4792307692300266 0 0  0.4819230769223441 0 0  0.4846153846146617 0 0  0.4873076923069792 0 0  0.489999999999292 0 0  0.4926923076916048 0 0  0.4953846153839174 0 0  0.4980769230762301 0 0  0.5007692307685402 0 0  0.5034615384608481 0 0  0.5061538461531575 0 0  0.5088461538454702 0 0  0.5115384615377837 0 0  0.5142307692301061 0 0  0.5169230769224287 0 0  0.5196153846147429 0 0  0.5223076923070555 0 0  0.5249999999993683 0 0  0.527692307691681 0 0  0.5303846153839974 0 0  0.5330769230763198 0 0  0.5357692307686409 0 0  0.5384615384609537 0 0  0.5411538461532663 0 0  0.5438461538455703 0 0  0.5465384615378733 0 0  0.5492307692301829 0 0  0.5519230769224956 0 0  0.5546153846148125 0 0  0.5573076923071351 0 0  0.5599999999994555 0 0  0.5626923076917683 0 0  0.5653846153840809 0 0  0.5680769230763936 0 0  0.5707692307687064 0 0  0.5734615384610262 0 0  0.5761538461533487 0 0  0.5788461538456712 0 0  0.5815384615379936 0 0  0.5842307692303135 0 0  0.5869230769226261 0 0  0.5896153846149389 0 0  0.5923076923072516 0 0  0.5949999999995643 0 0  0.5976923076918849 0 0  0.6003846153842073 0 0  0.6030769230765242 0 0  0.605769230768837 0 0  0.6084615384611465 0 0  0.6111538461534496 0 0  0.6138461538457535 0 0  0.6165384615380662 0 0  0.6192307692303789 0 0  0.6219230769227 0 0  0.6246153846150224 0 0  0.6273076923073388 0 0  0.6299999999996516 0 0  0.6326923076919642 0 0  0.6353846153842769 0 0  0.6380769230765913 0 0  0.6407692307689137 0 0  0.6434615384612361 0 0  0.6461538461535496 0 0  0.6488461538458623 0 0  0.6515384615381684 0 0  0.6542307692304714 0 0  0.6569230769227788 0 0  0.6596153846150916 0 0  0.6623076923074064 0 0  0.6649999999997288 0 0  0.6676923076920513 0 0  0.6703846153843642 0 0  0.6730769230766769 0 0  0.6757692307689896 0 0  0.6784615384613023 0 0  0.6811538461536201 0 0  0.6838461538459425 0 0  0.6865384615382623 0 0  0.689230769230575 0 0  0.6919230769228872 0 0  0.6946153846151903 0 0  0.6973076923074933 0 0  0.6999999999998043 0 0  0.702692307692117 0 0  0.7053846153844354 0 0  0.7080769230767577 0 0  0.7107692307690769 0 0  0.7134615384613896 0 0  0.7161538461537023 0 0  0.718846153846015 0 0  0.7215384615383277 0 0  0.724230769230649 0 0  0.7269230769229713 0 0  0.7296153846152876 0 0  0.7323076923076003 0 0  0.7349999999999092 0 0  0.7376923076922122 0 0  0.7403846153845167 0 0  0.7430769230768295 0 0  0.7457692307691423 0 0  0.748461538461464 0 0  0.7511538461537864 0 0  0.7538461538461021 0 0  0.7565384615384148 0 0  0.7592307692307275 0 0  0.7619230769230403 0 0  0.7646153846153552 0 0  0.7673076923076777 0 0  0.77 0.002678571428566427 0  0.77 0.005357142857132536 0  0.77 0.008035714285698086 0  0.77 0.01071428571426477 0  0.77 0.01339285714283192 0  0.77 0.01607142857139917 0  0.77 0.01874999999996588 0  0.77 0.02142857142853017 0  0.77 0.02410714285709379 0  0.77 0.0267857142856574 0  0.77 0.02946428571422236 0  0.77 0.03214285714278598 0  0.77 0.03482142857134959 0  0.77 0.0374999999999132 0  0.77 0.04017857142847682 0  0.77 0.04285714285704043 0  0.77 0.04553571428560405 0  0.77 0.04821428571416767 0  0.77 0.05089285714273128 0  0.77 0.05357142857129488 0  0.77 0.05624999999985985 0  0.77 0.05892857142842482 0  0.77 0.06160714285698844 0  0.77 0.06428571428555205 0  0.77 0.06696428571411567 0  0.77 0.06964285714267927 0  0.77 0.07232142857124288 0  0.77 0.07499999999980922 0  0.77 0.07767857142838523 0  0.77 0.08035714285696278 0  0.77 0.08303571428554266 0  0.77 0.08571428571411904 0  0.77 0.08839285714270011 0  0.77 0.09107142857127612 0  0.77 0.09374999999985754 0  0.77 0.09642857142843357 0  0.77 0.09910714285701384 0  0.77 0.101785714285591 0  0.77 0.1044642857141701 0  0.77 0.1071428571427485 0  0.77 0.1098214285713264 0  0.77 0.1124999999999059 0  0.77 0.1151785714284854 0  0.77 0.1178571428570634 0  0.77 0.1205357142856417 0  0.77 0.1232142857142209 0  0.77 0.1258928571427942 0  0.77 0.1285714285713702 0  0.77 0.1312499999999516 0  0.77 0.1339285714285276 0  0.77 0.1366071428571091 0  0.77 0.1392857142856851 0  0.77 0.1419642857142665 0  0.77 0.1446428571428425 0  0.77 0.1473214285714224 0  0.7673076923077067 0.15 0  0.7646153846154133 0.15 0  0.7619230769231125 0.15 0  0.7592307692308095 0.15 0  0.7565384615385063 0.15 0  0.7538461538462033 0.15 0  0.7511538461539002 0.15 0  0.7484615384615971 0.15 0  0.7457692307692941 0.15 0  0.743076923076991 0.15 0  0.7403846153846879 0.15 0  0.7376923076923849 0.15 0  0.7350000000000818 0.15 0  0.7323076923077787 0.15 0  0.7296153846154757 0.15 0  0.7269230769231726 0.15 0  0.7242307692308696 0.15 0  0.7215384615385665 0.15 0  0.7188461538462634 0.15 0  0.7161538461539604 0.15 0  0.7134615384616573 0.15 0  0.7107692307693542 0.15 0  0.7080769230770512 0.15 0  0.7053846153847481 0.15 0  0.702692307692445 0.15 0  0.700000000000142 0.15 0  0.6973076923078388 0.15 0  0.6946153846155358 0.15 0  0.6919230769232327 0.15 0  0.6892307692309296 0.15 0  0.6865384615386265 0.15 0  0.6838461538463235 0.15 0  0.6811538461540204 0.15 0  0.6784615384617174 0.15 0  0.6757692307694143 0.15 0  0.6730769230771112 0.15 0  0.6703846153848081 0.15 0  0.6676923076925051 0.15 0  0.665000000000202 0.15 0  0.662307692307899 0.15 0  0.6596153846155959 0.15 0  0.6569230769232928 0.15 0  0.6542307692309897 0.15 0  0.6515384615386867 0.15 0  0.6488461538463836 0.15 0  0.6461538461540804 0.15 0  0.6434615384617781 0.15 0  0.6407692307694848 0.15 0  0.6380769230771914 0.15 0  0.6353846153848981 0.15 0  0.6326923076926048 0.
[...]
<PointData  Scalars="pressure"> 
<DataArray  type="Float64"  Name="pressure"  format="ascii">9.1894356514353622e+03  7.4254101328040223e-01  7.4253371344162200e-01  9.1889438237862632e+03  9.0869846854069438e+03  8.9983940480491019e+03  8.9035810002243870e+03  8.8134994284019322e+03  8.7210811161228576e+03  8.6359201870761608e+03  8.5433357550626952e+03  8.4549891561356926e+03  8.3666984322523822e+03  8.2764996745108147e+03  8.1887106451438331e+03  8.1013596122307763e+03  8.0105072408722326e+03  7.9199667561119413e+03  7.8317897218962480e+03  7.7443549392479481e+03  7.6523648613262621e+03  7.5675199722787029e+03  7.4747737004639066e+03  7.3848074615840251e+03  7.2983986354982171e+03  7.2086101337576520e+03  7.1201548374829399e+03  7.0291686796830363e+03  6.9454575943082164e+03  6.8519754965476550e+03  6.7650592224709217e+03  6.6739860727116984e+03  6.5862794831895862e+03  6.4934523752014229e+03  6.4091081128570759e+03  6.3139966076686824e+03  6.2251447608612016e+03  6.1260512101635068e+03  4.4004089454922268e+03  4.3451115989866776e+03  4.2831736577280362e+03  4.2238745150299565e+03  4.1623604294278985e+03  4.1014758783380585e+03  4.0753345098813343e+03  4.0570423171223329e+03  4.0395586358925930e+03  4.0232065385630031e+03  4.0057998220436871e+03  3.9890782529661587e+03  3.9730156625997115e+03  3.9559959035174215e+03  3.9400191781602875e+03  3.9222994032576839e+03  3.9057274350633129e+03  3.8898589210272021e+03  3.8725460635521513e+03  3.8557843407194791e+03  3.8394359018605464e+03  3.8235580463416741e+03  3.8064101364795033e+03  3.7890877348852896e+03  3.7727278308448617e+03  3.7564457296167225e+03  3.7400277050020327e+03  3.7228545937744620e+03  3.7063417830607741e+03  3.6894950759764197e+03  3.6736353401706915e+03  3.6564193661378372e+03  3.6400114759875732e+03  3.6232746775279757e+03  3.6066334311683240e+03  3.5900574971539168e+03  3.5733459713239372e+03  3.5565833317242541e+03  3.5403580816321833e+03  3.5238286212759986e+03  3.5066498889838690e+03  3.4907489248394445e+03  3.4735206842598973e+03  3.4569373511803688e+03  3.4407816817720400e+03  3.4239489606292491e+03  3.4072235141700385e+03  3.3906692382546289e+03  3.3741111110177012e+03  3.3574300998063395e+03  3.3409190683365009e+03  3.3242595277889309e+03  3.3072439858965272e+03  3.2909124867176474e+03  3.2744937791714951e+03  3.2575758723358504e+03  3.2411551428145567e+03  3.2248109556959225e+03  3.2082022641990329e+03  3.1910560416398471e+03  3.1746507208421435e+03  3.1581849921471471e+03  3.1415265203899548e+03  3.1244454866185947e+03  3.1086196275027291e+03  3.0914892080900613e+03  3.0749288437693035e+03  3.0585861536454872e+03  3.0414156127340252e+03  3.0252753509113836e+03  3.0086388466599838e+03  2.9919792594931423e+03  2.9748222633579812e+03  2.9582012977261315e+03  2.9417854892706505e+03  2.9248867263176317e+03  2.9089155504547934e+03  2.8917970728431787e+03  2.8752351486684133e+03  2.8587049265898540e+03  2.8425124558938819e+03  2.8249224503713099e+03  2.8090120503102371e+03  2.7922860951676903e+03  2.7755369294460502e+03  2.7591578307618247e+03  2.7426401049290316e+03  2.7259602612044732e+03  2.7094523335962731e+03  2.6931969672023010e+03  2.6759147848234265e+03  2.6587559369458359e+03  2.6431007991649089e+03  2.6261446109925805e+03  2.6096770917765011e+03  2.5925213046208710e+03  2.5760952326269371e+03  2.5592544063846944e+03  2.5434602636334312e+03  2.5256465831487085e+03  2.5100039165630237e+03  2.4926177067552003e+03  2.4767837864127314e+03  2.4596082162897601e+03  2.4430941794254400e+03  2.4266273120058199e+03  2.4101317305987845e+03  2.3932415944361373e+03  2.3770034726439208e+03  2.3605660018469634e+03  2.3433877138703851e+03  2.3268687632911478e+03  2.3104222536459124e+03  2.2940375972512516e+03  2.2770546475279234e+03  2.2606284207599570e+03  2.2441670541722642e+03  2.2276439758424835e+03  2.2103990581380904e+03  2.1939392515240211e+03  2.1770932070319309e+03  2.1612656856385561e+03  2.1437926836490110e+03  2.1276646787992449e+03  2.1108365704043172e+03  2.0941569986457584e+03  2.0775887280742977e+03  2.0604968499468073e+03  2.0448379540080030e+03  2.0278350884389158e+03  2.0110885067149541e+03  1.9948279076865037e+03  1.9772509143702837e+03  1.9610376476351264e+03  1.9447712857270892e+03  1.9282039038638352e+03  1.9106655085664750e+03  1.8947818505432169e+03  1.8778191938555613e+03  1.8619558863105124e+03  1.8446776261383975e+03  1.8284659321313618e+03  1.8118476678247641e+03  1.7951265667655862e+03  1.7783420417429277e+03  1.7617834248993497e+03  1.7451119979208238e+03  1.7286247941816923e+03  1.7121586579497628e+03  1.6955870478208735e+03  1.6792435002789134e+03  1.6623865796716691e+03  1.6448258517751076e+03  1.6288051775894726e+03  1.6123884047253302e+03  1.5954031912980138e+03  1.5791591857341471e+03  1.5624931818250516e+03  1.5457336109079699e+03  1.5292694104815098e+03  1.5121083186059018e+03  1.4962935047284438e+03  1.4795298625909911e+03  1.4628149522885999e+03  1.4454719011612360e+03  1.4295935552057522e+03  1.4129961519997548e+03  1.3967108797366561e+03  1.3794640301316110e+03  1.3624579354833277e+03  1.3466333525577998e+03  1.3295638395487131e+03  1.3132851134357161e+03  1.2961420644657715e+03  1.2803224398361629e+03  1.2628176466987018e+03  1.2463697221933676e+03  1.2299266368825147e+03  1.2136803151488498e+03  1.1969629247845585e+03  1.1795876420849354e+03  1.1637262811732262e+03  1.1471881183162163e+03  1.1295615167354701e+03  1.1136363197299293e+03  1.0967605228974728e+03  1.0804085545905778e+03  1.0633233121844628e+03  1.0473075244213196e+03  1.0305250006807059e+03  1.0140567473897951e+03  9.9692577885936907e+02  9.8119496758801438e+02  9.6371435650734054e+02  9.4723527712588395e+02  9.3075070138478156e+02  9.1426800893358984e+02  8.9768694080353168e+02  8.8060995144634467e+02  8.6426915505388445e+02  8.4771007467992376e+02  8.3125501646980786e+02  8.1413136823892467e+02  7.9822353446137845e+02  7.8112352927989764e+02  7.6501681274347993e+02  7.4730062453556275e+02  7.3146638623928004e+02  7.1448751841756348e+02  6.9795043561868772e+02  6.8147508666057502e+02  6.6510131054653891e+02  6.4801624898041064e+02  6.3142376668250984e+02  6.1508073735078392e+02  5.9857389071452440e+02  5.8149463402084223e+02  5.6571289260898038e+02  5.4861465215705823e+02  5.3157704491409663e+02  5.1495078288131879e+02  4.9853728783238245e+02  4.8250973085527175e+02  4.6513074723350161e+02  4.4887251104001956e+02  4.3200832855121422e+02  4.1554831141761025e+02  3.9862317840625292e+02  3.8263787901385206e+02  3.6560125775613818e+02  3.4957140578688751e+02  3.3264785439226802e+02  3.1623369706370715e+02  2.9909550402931399e+02  2.8260624873443589e+02  2.6640206771386659e+02  2.4979166898540575e+02  2.3232937708846660e+02  2.1601312112271046e+02  1.9961080301521562e+02  1.8281918851833041e+02  1.6649287973662098e+02  1.4915316476202418e+02  1.3357655889934296e+02  1.1671053055318886e+02  1.0011279503193413e+02  8.2690333669388593e+01  6.6184629210461864e+01  4.9748041873113046e+01  3.3114279544428811e+01  1.6421124263533880e+01  -1.2224445210672870e-01  2.0785759673086796e-02  -1.2272345531818278e-03  1.0464027348771251e-04  -6.6577660235612462e-05  -1.2105695118129383e-05  -9.5518510671755726e-06  -2.4450844642783139e-06  -2.8695825426992770e-06  -4.5145751936534157e-06  6.6833017354420437e-06  -5.1157392416073984e-06  2.1080839582541872e-06  -9.9803102061445148e-06  3.2798229906443292e-06  2.3990540233998498e-06  -1.8372093986774366e-06  -3.5039731951806663e-06  1.7797298651506316e-06  2.5122026246453697e-06  1.0401952199215682e-06  1.7334733736301439e-06  1.7771267915513101e-07  3.6950943113782576e-06  7.2945916879092175e-07  9.0476194989150264e-07  -3.1058213407596798e-08  7.7927085804237637e-08  3.8287687405188192e-07  -1.0870569231016419e-06  -4.8721895757816597e-07  4.4283815903187481e-07  7.2983514588202715e-07  -7.4221825004815307e-07  -5.0035625799181538e-07  1.4958009751427543e-06  1.0975814655436178e-06  -7.1808392302786757e-06  4.7503230890242445e-07  -4.0212739863644421e-06  2.4088455832122110e-06  -5.5931861691597557e-06  3.9444411040383375e-06  -4.6716977837864894e-06  6.6318837137765857e-06  -4.3205947310772674e-06  -2.8423255460751064e-06  -2.3951829697561276e-06  -9.5207684215792139e-06  -1.2034107297880706e-05  -6.6543742750063090e-05  1.0463056606028813e-04  -1.2271325929902206e-03  2.0785556911740114e-02  -1.2224329161535835e-01  1.6420961906228829e+01  3.3113952146419699e+01  4.9747548022871797e+01  6.6183970192643486e+01  8.2689506063930480e+01  1.0011178677340621e+02  1.1670934696196494e+02  1.3357519317109231e+02  1.4915162648947896e+02  1.6649114431101702e+02  1.8281726195979283e+02  1.9960867217750240e+02  2.1601078567510319e+02  2.3232682884952197e+02  2.4978888489897091e+02  2.6639904888122061e+02  2.8260299289962586e+02  2.9909199431934900e+02  3.1622991210014862e+02  3.3264379128805700e+02  3.4956704518477636e+02  3.6559659891869899e+02  3.8263288774937917e+02  3.9861785936661897e+02  4.1554262270132114e+02  4.3200226527253562e+02  4.4886603817171260e+02  4.6512385601702840e+02  4.8250236528855390e+02  4.9852946034699215e+02  5.1494244682122701e+02  5.3156816609348732e+02  5.4860517757190746e+02  5.6570278015143163e+02  5.8148389220742627e+02  5.9856241930123463e+02  6.1506850366528147e+02  6.3141073014947267e+02  6.4800232574419636e+02  6.6508639195285912e+02  6.8145916056613737e+02  6.9793336152788640e+02  7.1446921721202034e+02  7.3144669031945341e+02  7.4727948265206885e+02  7.6499387515676233e+02  7.8109879326270141e+02  7.9819662849808674e+02  8.1410209124512130e+02  8.3122288084152899e+02  8.4767454399401208e+02  8.6422948027355267e+02  8.8056369561249392e+02  8.9763787550032180e+02  9.1421113946468950e+02  9.3068138877748333e+02  9.4715919688756355e+02  9.6359405061273617e+02  9.8072030780049261e+02  9.9703456787779317e+02  1.0140365692705692e+03  1.0299617105178672e+03  1.0474806486668340e+03  1.0636105035308137e+03  1.0804301964197437e+03  1.0975367865025660e+03  1.1132701536474424e+03  1.1306502313261162e+03  1.1472632755107506e+03  1.1631172294562002e+03  1.1802231238052184e+03  1.1968707196324822e+03  1.2130962903550308e+03  1.2296347284949704e+03  1.2467238307019495e+03  1.2626893112311477e+03  1.2792497134987559e+03  1.2968773712627872e+03  1.3127039799625006e+03  1.3298234740049916e+03  1.3460544252075390e+03  1.3635437109060381e+03  1.3793341692635645e+03  1.3957374793844838e+03  1.4133100452540198e+03  1.4291048107832760e+03  1.4464184818767494e+03  1.4627077892779198e+03  1.4790544397001192e+03  1.4962618735040489e+03  1.5119868487968288e+03  1.5294604074824836e+03  1.5455588567444731e+03  1.5627712726923612e+03  1.5790894927227300e+03  1.5958871738094949e+03  1.6123975326986053e+03  1.6288900394857881e+03  1.6458267512421937e+03  1.6620127131955880e+03  1.6784780880342962e+03  1.6956526778572913e+03  1.7114387786106511e+03  1.7285537279867096e+03  1.7456558331212577e+03  1.7612500232890227e+03  1.7785602495353962e+03  1.7951082688105171e+03  1.8120032806462580e+03  1.8281640583272626e+03  1.8449507753713458e+03  1.8618561548734294e+03  1.8785511855697146e+03  1.8942909775519984e+03  1.9112213317492951e+03  1.9282834270723340e+03  1.9446195786651740e+03  1.9609066270795429e+03  1.9778222068188693e+03  1.9940793129538895e+03  2.0114725234877924e+03  2.0283199458654788e+03  2.0440792355741910e+03  2.0609459382377254e+03  2.0774315098087368e+03  2.0945936847310954e+03  2.1104736144661238e+03  2.1275872441062261e+03  2.1444951103184371e+03  2.1601461249943773e+03  2.1776387202114711e+03  2.1936280118733175e+03  2.2109225158530694e+03  2.2273505438109078e+03  2.2440015184217118e+03  2.2604547609966353e+03  2.2772561105290529e+03  2.2935396674385720e+03  2.3104927013967535e+03  2.3270216013877562e+03  2.3434441758581102e+03  2.3597892471991354e+03  2.3761714793047354e+03  2.3935687074650768e+03  2.4107634324861092e+03  2.4265751986316704e+03  2.4435316688274133e+03  2.4597204772147793e+03  2.4767775995521320e+03  2.4928377275311159e+03  2.5102546656197837e+03  2.5260502540630423e+03  2.5431641640498251e+03  2.5602768805424485e+03  2.5758161878841188e+03  2.5930238770293440e+03  2.6097491467377536e+03  2.6255204622857177e+03  2.6426178690439942e+03  2.6595931784251102e+03  2.6758576298337407e+03  2.6925260627514690e+03  2.7094966650637307e+03  2.7253913350244256e+03  2.7432051935036711e+03  2.7591162170572829e+03  2.7756556542986609e+03  2.7927872239723220e+03  2.8086093626544684e+03  2.8256344415952731e+03  2.8422557706030138e+03  2.8591120648431506e+03  2.8749208359024828e+03  2.8923130521650864e+03  2.9086853870401055e+03  2.9257422592842709e+03  2.9418383500845443e+03  2.9580909615999872e+03  2.9751400272510373e+03  2.9912185516127456e+03  3.0084653788367987e+03  3.0253084717515426e+03  3.0415656656954329e+03  3.0578480920816173e+03  3.0744027906139017e+03  3.0919769558487992e+03  3.1078078890785373e+03  3.1249230182017541e+03  3.1411526660821537e+03  3.1586310042745222e+03  3.1742180053826301e+03  3.1911773368462332e+03  3.2084918122961521e+03  3.2249439328400176e+03  3.2407102505830890e+03  3.2577636472019312e+03  3.2742591558373856e+03  3.2910628287845570e+03  3.3075381833136807e+03  3.3242697965576681e+03  3.3413918946285903e+03  3.3571863402820700e+03  3.3738743135541549e+03  3.3905721638497189e+03  3.4073849234914856e+03  3.4238967353842945e+03  3.4403616948577969e+03  3.4567876935047780e+03  3.4739015332876884e+03  3.4909334903547033e+03  3.5065064926872465e+03  3.5239626885894477e+03  3.5400691300396943e+03  3.5573529207760539e+03  3.5738643341518236e+03  3.5902404505477821e+03  3.6066368145985007e+03  3.6237814099946941e+03  3.6400370140285299e+03  3.6562891853477227e+03  3.6735251840043688e+03  3.6903372786903183e+03  3.7069010026955434e+03  3.7233649881088577e+03  3.7402149176538537e+03  3.7568064097569531e+03  3.7733975836683458e+03  3.7900640721386958e+03  3.8063024306068151e+03  3.8238406615745762e+03  3.8399317260316875e+03  3.8567994672669388e+03  3.8736666345080193e+03  3.8900563365352441e+03  3.9067158112957172e+03  3.9236964143860027e+03  3.9405809410845213e+03  3.9574299326177493e+03  3.9741809832517697e+03  3.9909879987710619e+03  4.0088749491879662e+03  4.0261274602585459e+03  4.0429226963762758e+03  4.0612030817510040e+03  4.0804559139321482e+03  4.1041773212350863e+03  4.1316972753863120e+03  4.2017441652646621e+03  4.2662507021592064e+03  4.3232639235183269e+03  6.0286153068001913e+03  6.1276037239743328e+03  6.2189821016545447e+03  6.3114441006310908e+03  6.4011534976494404e+03  6.4902165066318103e+03  6.5826399208033372e+03  6.6703959421147702e+03  6.7622508140172140e+03  6.8494745904136207e+03  6.9432655721448173e+03  7.0272274456092427e+03  7.1184741370031097e+03  7.2073099206125671e+03  7.2977971104925946e+03  7.3819940947318719e+03  7.4738056496522449e+03  7.5665183856195217e+03  7.6512672850372064e+03  7.7433952358097458e+03  7.8309128330528629e+03  7.9191554284430904e+03  8.0097508964913450e+03  8.1006522638063216e+03  8.1880433704888374e+03  8.2758662022072967e+03  8.3660956579635422e+03  8.4544115456339714e+03  8.5427797167636254e+03  8.6353827599883225e+03  8.7205578704582022e+03  8.8129883050444641e+03  8.9030784392770547e+03  8.9978981061224877e+03  9.0864922389049243e+03  9.1747664133772778e+03  9.1707774779955453e+03  9.1684618839476498e+03  9.1665166168589421e+03  9.1650889129673305e+03  9.1638793229070325e+03  9.1629166597132371e+03  9.1620979858698920e+03  9.1614202435294392e+03  9.1608049675329876e+03  9.1602796164883966e+03  9.1597927480276085e+03  9.1593939676784230e+03  9.1590149834810072e+03  9.1586935692051302e+03  9.1584053731283802e+03  9.1581663379605798e+03  9.1579363515130026e+03  9.1577447361751019e+03  9.1575824667039669e+03  9.1574388212946669e+03  9.1573260519233336e+03  9.1572219442984533e+03  9.1571435909751453e+03  9.1570862710916899e+03  9.1570512073923601e+03  9.1570319310947034e+03  9.1570311949989446e+03  9.1570506244485241e+03  9.1570895418312557e+03  9.1571452198273146e+03  9.1572189283675925e+03  9.1573190743608302e+03  9.1574434159527536e+03  9.1575806341665411e+03  9.1577360498111102e+03  9.1579293078575301e+03  9.1581410714495505e+03  9.1583911561495897e+03  9.1586541456551477e+03  9.1589725060759902e+03  9.1593108746245907e+03  9.1597124792085906e+03  9.1601320731401211e+03  9.1606412975702387e+03  9.1611865100433370e+03  9.1618215404175135e+03  9.1625164786199130e+03  9.1633516557119056e+03  9.1643287726565031e+03  9.1655515602262913e+03  9.1669899551034232e+03  9.1689431661637973e+03  9.1712651564433854e+03  9.1752570651618898e+03  4.6267218609906860e+02  6.6912173697744374e+03  1.4200964479048789e+03  9.3678371933648020e+02  3.7621889130863769e+03  3.2171649741589508e+03  2.7496554705825929e+03  2.0032747773776518e+03  2.3764511112481232e+03  1.7129292332110881e+03  3.4921535889782058e+03  3.5001775776588374e+03  4.0301865027004505e+03  4.0302580780351800e+03  1.6785208752651602e+03  1.1814845783271326e+03  1.1798237694392460e+03  7.0077829536541537e+02  7.0101408875332174e+02  2.2352590566057688e+03  2.9820616909071873e+03  2.9846760536579632e+03  2.5231681604875835e+03  2.7136746349473850e+02  7.7177231283684414e+03  7.7337077943115364e+03  2.6876026697794043e+02  2.5958197741475287e+03  2.1544555437315380e+03  1.9102852505387696e+03  1.4895152781124059e+03  1.9336182182288808e+03  3.2754782522267997e+03  3.7115012704099649e+03  3.2692874719441793e+03  3.7232677559170343e+03  6.4742611329189549e+03  6.4636972145032923e+03  1.4570720146538392e+03  9.5674081806745664e+02  9.5643829182534182e+02  2.7577123946752095e+03  4.9007813465132983e+02  4.9066495397453440e+02  2.7966861887485989e+03  2.0138028965735882e+02  8.0850947638178613e+03  2.4179124271877413e+03  2.5580790385136897e+03  2.1898826905275751e+03  1.8122774385941050e+03  3.8890434532178024e+03  3.3978862171272385e+03  3.8959364830049976e+03  3.0358913883704208e+03  1.3193927194080920e+03  2.3764688515777634e+03  6.4298897076251762e+02  1.2414936168036513e+03  1.6005386628297338e+03  3.5865209275409597e+03  5.7557420962225469e+03  2.1010922738646559e+03  3.1139609068735008e+03  3.9405835923994791e+03  3.1089095109259865e+03  1.2961910664351080e+03  1.7788244908992056e+03  2.3802121235005839e+03  8.0670851057492052e+02  8.0843563381691501e+02  3.4183549689056690e+03  1.7653590086822458e+03  3.4242353668896803e+03  5.6976861376404986e+03  5.6887755008992599e+03  1.6011575210516430e+03  8.3141191777915592e+03  8.3145620124641846e+03  1.5761651769162631e+02  1.5761511868492346e+02  2.6198390223631127e+03  3.5810131237636369e+03  1.0975857317550553e+03  1.0975795730194870e+03  3.8568729577648041e+03  1.3315186725348560e+03  2.8973639927260051e+03  3.1365002699780962e+03  3.5741454769990410e+03  3.1350518265834344e+03  1.0909082178028018e+03  1.3309276570664026e+03  1.6228612149415414e+03  2.0845329704743463e+03  6.2757043760897216e+02  6.2758091220328936e+02  7.9219459187537041e+02  7.1810210564655899e+03  7.1829677893552453e+03  2.0403486069102701e+03  3.8460201166537163e+03  8.5041426067771101e+02  2.2703216097530049e+03  2.8915549955037500e+03  1.0443727468823995e+03  3.5750285909828744e+02  3.5698171334333205e+02  2.6604880568222020e+03  2.9353714519687496e+03  2.8466483960994624e+03  7.3829346281573244e+03  3.3378158186390385e+02  7.0204118929916795e+03  2.2378868687365730e+03  5.5274842938421318e+02  5.5279000288549616e+02  3.9869304254677905e+02  1.4279922494904895e+02  8.3977799187057408e+03  1.4097946474410466e+02  8.4046496629977846e+03  2.0274592048291015e+03  2.7231870837524489e+03  1.8522699206991001e+03  2.6736375335416215e+03  1.5121097730859647e+03  3.3565890277334984e+03  6.2141116371967928e+03  6.2273302560836819e+03  3.6754037847827194e+03  2.5388932963163943e+03  3.6757619955540490e+03  2.2861080064731677e+03  8.3825924083125335e+02  3.3043702123017774e+03  1.5082861755660279e+03  2.4968357449750542e+03  1.8047152217140836e+03  2.4942835713211753e+03  3.7765825228146027e+03  1.4332327293168446e+03  3.7841733279818873e+03  7.0483369146780442e+03  1.9856