<?xml version="1.0"?>
<VTKFile type="UnstructuredGrid"  version="0.1"  >
<UnstructuredGrid>
<Piece  NumberOfPoints="21337" NumberOfCells="41988">
<Points>
<DataArray  type="Float64"  NumberOfComponents="3"  format="ascii">0 0 0  0.77 0 0  0.77 0.15 0  0 0.15 0  0.002692307692302917 0 0  0.005384615384605834 0 0  0.008076923076908835 0 0  0.01076923076921186 0 0  0.01346153846151489 0 0  0.01615384615381792 0 0  0.01884615384612085 0 0  0.02153846153842357 0 0  0.02423076923072626 0 0  0.02692307692302838 0 0  0.02961538461533049 0 0  0.03230769230763287 0 0  0.03499999999993529 0 0  0.03769230769223771 0 0  0.04038461538454013 0 0  0.04307692307684255 0 0  0.04576923076914497 0 0  0.04846153846144754 0 0  0.05115384615375117 0 0  0.0538461538460548 0 0  0.05653846153835843 0 0  0.05923076923066205 0 0  0.06192307692296529 0 0  0.06461538461526832 0 0  0.06730769230757135 0 0  0.06999999999987438 0 0  0.07269230769217741 0 0  0.07538461538448044 0 0  0.07807692307678345 0 0  0.08076923076908764 0 0  0.08346153846139188 0 0  0.08615384615369612 0 0  0.08884615384600036 0 0  0.0915384615383034 0 0  0.09423076923060524 0 0  0.09692307692290673 0 0  0.09961538461520734 0 0  0.1023076923075079 0 0  0.1049999999998086 0 0  0.1076923076921091 0 0  0.1103846153844097 0 0  0.1130769230767103 0 0  0.1157692307690103 0 0  0.1184615384613097 0 0  0.1211538461536087 0 0  0.1238461538459068 0 0  0.126538461538205 0 0  0.1292307692305032 0 0  0.1319230769228014 0 0  0.1346153846151016 0 0  0.1373076923074022 0 0  0.1399999999997043 0 0  0.1426923076920073 0 0  0.1453846153843103 0 0  0.1480769230766134 0 0  0.150769230768916 0 0  0.1534615384612166 0 0  0.1561538461535172 0 0  0.1588461538458156 0 0  0.1615384615381138 0 0  0.164230769230412 0 0  0.1669230769227102 0 0  0.1696153846150083 0 0  0.1723076923073065 0 0  0.1749999999996047 0 0  0.1776923076919029 0 0  0.180384615384201 0 0  0.1830769230765016 0 0  0.1857692307688022 0 0  0.1884615384611046 0 0  0.1911538461534076 0 0  0.1938461538457106 0 0  0.1965384615380136 0 0  0.199230769230316 0 0  0.2019230769226166 0 0  0.2046153846149171 0 0  0.2073076923072153 0 0  0.2099999999995135 0 0  0.2126923076918116 0 0  0.2153846153841098 0 0  0.218076923076408 0 0  0.2207692307687062 0 0  0.2234615384610044 0 0  0.2261538461533025 0 0  0.2288461538456009 0 0  0.2315384615379015 0 0  0.2342307692302022 0 0  0.2369230769225048 0 0  0.2396153846148079 0 0  0.2423076923071109 0 0  0.2449999999994139 0 0  0.247692307691715 0 0  0.2503846153840132 0 0  0.2530769230763114 0 0  0.2557692307686096 0 0  0.2584615384609077 0 0  0.2611538461532104 0 0  0.2638461538455134 0 0  0.2665384615378165 0 0  0.2692307692301195 0 0  0.2719230769224225 0 0  0.2746153846147255 0 0  0.2773076923070275 0 0  0.2799999999993256 0 0  0.2826923076916238 0 0  0.285384615383922 0 0  0.2880769230762202 0 0  0.2907692307685183 0 0  0.2934615384608165 0 0  0.2961538461531147 0 0  0.2988461538454129 0 0  0.3015384615377124 0 0  0.3042307692300155 0 0  0.3069230769223185 0 0  0.3096153846146215 0 0  0.3123076923069245 0 0  0.3149999999992276 0 0  0.3176923076915306 0 0  0.3203846153838307 0 0  0.323076923076129 0 0  0.3257692307684272 0 0  0.3284615384607253 0 0  0.3311538461530235 0 0  0.3338461538453217 0 0  0.3365384615376198 0 0  0.339230769229918 0 0  0.3419230769222162 0 0  0.3446153846145144 0 0  0.3473076923068126 0 0  0.3499999999991107 0 0  0.3526923076914089 0 0  0.3553846153837079 0 0  0.3580769230760109 0 0  0.360769230768314 0 0  0.363461538460617 0 0  0.3661538461529201 0 0  0.3688461538452231 0 0  0.3715384615375261 0 0  0.3742307692298269 0 0  0.3769230769221251 0 0  0.3796153846144243 0 0  0.3823076923067274 0 0  0.3849999999990304 0 0  0.3876923076913432 0 0  0.3903846153836559 0 0  0.3930769230759686 0 0  0.3957692307682814 0 0  0.3984615384605941 0 0  0.4011538461529068 0 0  0.4038461538452195 0 0  0.4065384615375321 0 0  0.409230769229845 0 0  0.4119230769221576 0 0  0.4146153846144704 0 0  0.4173076923067831 0 0  0.4199999999990959 0 0  0.4226923076914115 0 0  0.425384615383729 0 0  0.4280769230760466 0 0  0.4307692307683642 0 0  0.4334615384606818 0 0  0.4361538461529995 0 0  0.438846153845317 0 0  0.4415384615376347 0 0  0.4442307692299522 0 0  0.4469230769222666 0 0  0.4496153846145793 0 0  0.4523076923068921 0 0  0.4549999999992048 0 0  0.4576923076915175 0 0  0.4603846153838302 0 0  0.463076923076143 0 0  0.4657692307684557 0 0  0.4684615384607684 0 0  0.471153846153081 0 0  0.4738461538453938 0 0  0.4765384615377089 0 0  0.4792307692300266 0 0  0.4819230769223441 0 0  0.4846153846146617 0 0  0.4873076923069792 0 0  0.489999999999292 0 0  0.4926923076916048 0 0  0.4953846153839174 0 0  0.4980769230762301 0 0  0.5007692307685402 0 0  0.5034615384608481 0 0  0.5061538461531575 0 0  0.5088461538454702 0 0  0.5115384615377837 0 0  0.5142307692301061 0 0  0.5169230769224287 0 0  0.5196153846147429 0 0  0.5223076923070555 0 0  0.5249999999993683 0 0  0.527692307691681 0 0  0.5303846153839974 0 0  0.5330769230763198 0 0  0.5357692307686409 0 0  0.5384615384609537 0 0  0.5411538461532663 0 0  0.5438461538455703 0 0  0.5465384615378733 0 0  0.5492307692301829 0 0  0.5519230769224956 0 0  0.5546153846148125 0 0  0.5573076923071351 0 0  0.5599999999994555 0 0  0.5626923076917683 0 0  0.5653846153840809 0 0  0.5680769230763936 0 0  0.5707692307687064 0 0  0.5734615384610262 0 0  0.5761538461533487 0 0  0.5788461538456712 0 0  0.5815384615379936 0 0  0.5842307692303135 0 0  0.5869230769226261 0 0  0.5896153846149389 0 0  0.5923076923072516 0 0  0.5949999999995643 0 0  0.5976923076918849 0 0  0.6003846153842073 0 0  0.6030769230765242 0 0  0.605769230768837 0 0  0.6084615384611465 0 0  0.6111538461534496 0 0  0.6138461538457535 0 0  0.6165384615380662 0 0  0.6192307692303789 0 0  0.6219230769227 0 0  0.6246153846150224 0 0  0.6273076923073388 0 0  0.6299999999996516 0 0  0.6326923076919642 0 0  0.6353846153842769 0 0  0.6380769230765913 0 0  0.6407692307689137 0 0  0.6434615384612361 0 0  0.6461538461535496 0 0  0.6488461538458623 0 0  0.6515384615381684 0 0  0.6542307692304714 0 0  0.6569230769227788 0 0  0.6596153846150916 0 0  0.6623076923074064 0 0  0.6649999999997288 0 0  0.6676923076920513 0 0  0.6703846153843642 0 0  0.6730769230766769 0 0  0.6757692307689896 0 0  0.6784615384613023 0 0  0.6811538461536201 0 0  0.6838461538459425 0 0  0.6865384615382623 0 0  0.689230769230575 0 0  0.6919230769228872 0 0  0.6946153846151903 0 0  0.6973076923074933 0 0  0.6999999999998043 0 0  0.702692307692117 0 0  0.7053846153844354 0 0  0.7080769230767577 0 0  0.7107692307690769 0 0  0.7134615384613896 0 0  0.7161538461537023 0 0  0.718846153846015 0 0  0.7215384615383277 0 0  0.724230769230649 0 0  0.7269230769229713 0 0  0.7296153846152876 0 0  0.7323076923076003 0 0  0.7349999999999092 0 0  0.7376923076922122 0 0  0.7403846153845167 0 0  0.7430769230768295 0 0  0.7457692307691423 0 0  0.748461538461464 0 0  0.7511538461537864 0 0  0.7538461538461021 0 0  0.7565384615384148 0 0  0.7592307692307275 0 0  0.7619230769230403 0 0  0.7646153846153552 0 0  0.7673076923076777 0 0  0.77 0.002678571428566427 0  0.77 0.005357142857132536 0  0.77 0.008035714285698086 0  0.77 0.01071428571426477 0  0.77 0.01339285714283192 0  0.77 0.01607142857139917 0  0.77 0.01874999999996588 0  0.77 0.02142857142853017 0  0.77 0.02410714285709379 0  0.77 0.0267857142856574 0  0.77 0.02946428571422236 0  0.77 0.03214285714278598 0  0.77 0.03482142857134959 0  0.77 0.0374999999999132 0  0.77 0.04017857142847682 0  0.77 0.04285714285704043 0  0.77 0.04553571428560405 0  0.77 0.04821428571416767 0  0.77 0.05089285714273128 0  0.77 0.05357142857129488 0  0.77 0.05624999999985985 0  0.77 0.05892857142842482 0  0.77 0.06160714285698844 0  0.77 0.06428571428555205 0  0.77 0.06696428571411567 0  0.77 0.06964285714267927 0  0.77 0.07232142857124288 0  0.77 0.07499999999980922 0  0.77 0.07767857142838523 0  0.77 0.08035714285696278 0  0.77 0.08303571428554266 0  0.77 0.08571428571411904 0  0.77 0.08839285714270011 0  0.77 0.09107142857127612 0  0.77 0.09374999999985754 0  0.77 0.09642857142843357 0  0.77 0.09910714285701384 0  0.77 0.101785714285591 0  0.77 0.1044642857141701 0  0.77 0.1071428571427485 0  0.77 0.1098214285713264 0  0.77 0.1124999999999059 0  0.77 0.1151785714284854 0  0.77 0.1178571428570634 0  0.77 0.1205357142856417 0  0.77 0.1232142857142209 0  0.77 0.1258928571427942 0  0.77 0.1285714285713702 0  0.77 0.1312499999999516 0  0.77 0.1339285714285276 0  0.77 0.1366071428571091 0  0.77 0.1392857142856851 0  0.77 0.1419642857142665 0  0.77 0.1446428571428425 0  0.77 0.1473214285714224 0  0.7673076923077067 0.15 0  0.7646153846154133 0.15 0  0.7619230769231125 0.15 0  0.7592307692308095 0.15 0  0.7565384615385063 0.15 0  0.7538461538462033 0.15 0  0.7511538461539002 0.15 0  0.7484615384615971 0.15 0  0.7457692307692941 0.15 0  0.743076923076991 0.15 0  0.7403846153846879 0.15 0  0.7376923076923849 0.15 0  0.7350000000000818 0.15 0  0.7323076923077787 0.15 0  0.7296153846154757 0.15 0  0.7269230769231726 0.15 0  0.7242307692308696 0.15 0  0.7215384615385665 0.15 0  0.7188461538462634 0.15 0  0.7161538461539604 0.15 0  0.7134615384616573 0.15 0  0.7107692307693542 0.15 0  0.7080769230770512 0.15 0  0.7053846153847481 0.15 0  0.702692307692445 0.15 0  0.700000000000142 0.15 0  0.6973076923078388 0.15 0  0.6946153846155358 0.15 0  0.6919230769232327 0.15 0  0.6892307692309296 0.15 0  0.6865384615386265 0.15 0  0.6838461538463235 0.15 0  0.6811538461540204 0.15 0  0.6784615384617174 0.15 0  0.6757692307694143 0.15 0  0.6730769230771112 0.15 0  0.6703846153848081 0.15 0  0.6676923076925051 0.15 0  0.665000000000202 0.15 0  0.662307692307899 0.15 0  0.6596153846155959 0.15 0  0.6569230769232928 0.15 0  0.6542307692309897 0.15 0  0.6515384615386867 0.15 0  0.6488461538463836 0.15 0  0.6461538461540804 0.15 0  0.6434615384617781 0.15 0  0.6407692307694848 0.15 0  0.6380769230771914 0.15 0  0.6353846153848981 0.15 0  0.6326923076926048 0.
[...]
<PointData  Scalars="pressure"> 
<DataArray  type="Float64"  Name="pressure"  format="ascii">1.3087642775770284e+04  7.4254064457562885e-01  7.4253408214480687e-01  1.3087301201413497e+04  1.2985192443649830e+04  1.2896605049028332e+04  1.2801798104840233e+04  1.2711724404635323e+04  1.2619317244982996e+04  1.2534169185261904e+04  1.2441601740406990e+04  1.2353274569303914e+04  1.2265006390654276e+04  1.2174834899922818e+04  1.2087075616277099e+04  1.1999759467192906e+04  1.1908948883786603e+04  1.1818454643192314e+04  1.1730330510781241e+04  1.1642954068310763e+04  1.1551034837074703e+04  1.1466264828456635e+04  1.1373611933132790e+04  1.1283749459144072e+04  1.1197455653057410e+04  1.1107809227152156e+04  1.1019511527094824e+04  1.0928719733542513e+04  1.0845223355692582e+04  1.0752026878208439e+04  1.0665438254023333e+04  1.0574793502645476e+04  1.0487619504954460e+04  1.0395525370981193e+04  1.0312115250634724e+04  1.0218586080633242e+04  1.0132626228934927e+04  1.0041834733279231e+04  9.9536672274137691e+03  9.8660935676678346e+03  9.7796781231731748e+03  9.6890321752768905e+03  9.5979522879268716e+03  9.5116686161779799e+03  9.4202103624156334e+03  9.3352068792145437e+03  9.2441715974936888e+03  9.1580254844698593e+03  9.0657348181828256e+03  8.9769026243209701e+03  8.8914835596080811e+03  8.8009277015899097e+03  8.7158929763853139e+03  8.6215412055269244e+03  8.5332714340123148e+03  8.4487438642233301e+03  8.3565153661830991e+03  8.2671658629489011e+03  8.1800607163421946e+03  8.0954427466716243e+03  8.0040518146914856e+03  7.9117261403459952e+03  7.8244870707851833e+03  7.7377222326932679e+03  7.6502070726324773e+03  7.5586718219229233e+03  7.4706433546359103e+03  7.3808418867835480e+03  7.2963242713534728e+03  7.2045370295325683e+03  7.1171136141377447e+03  7.0279078532792109e+03  6.9392226699247140e+03  6.8508952635626174e+03  6.7618205410556702e+03  6.6725355770915548e+03  6.5860511353759975e+03  6.4980186733548235e+03  6.4064917272349758e+03  6.3217881966220793e+03  6.2300309349484360e+03  6.1416685444171080e+03  6.0556607394895873e+03  5.9659817616871087e+03  5.8769353873812170e+03  5.7887659674067945e+03  5.7005882387584288e+03  5.6117589639517191e+03  5.5238043796180837e+03  5.4350581407963437e+03  5.3444185557516375e+03  5.2573848167999859e+03  5.1697931073853933e+03  5.0795327386895569e+03  4.9917086648989798e+03  4.9042000953416409e+03  4.8146811207618366e+03  4.7210760620095407e+03  4.6261089792687244e+03  3.3087692254387280e+03  3.2538520928741978e+03  3.1941571975085608e+03  3.1402625870131938e+03  3.0903528795103784e+03  3.0734561007233356e+03  3.0569621847507779e+03  3.0397583094812530e+03  3.0236282713968667e+03  3.0070271099561992e+03  2.9904125984843349e+03  2.9733101426342969e+03  2.9567452221534909e+03  2.9403863233778166e+03  2.9235464340183012e+03  2.9076304825677653e+03  2.8905700374378557e+03  2.8740636370685347e+03  2.8575867837230203e+03  2.8414454306227576e+03  2.8239090645105080e+03  2.8080456386232227e+03  2.7913671730190372e+03  2.7746638092359003e+03  2.7583275428099100e+03  2.7418515803472728e+03  2.7252116170511617e+03  2.7087419969472417e+03  2.6925222598565992e+03  2.6752763407338643e+03  2.6581518586308762e+03  2.6425265583644018e+03  2.6256010830927730e+03  2.6091619620147399e+03  2.5920343033305812e+03  2.5756338340145112e+03  2.5588179126268069e+03  2.5430458797088609e+03  2.5252559355958870e+03  2.5096330618708571e+03  2.4922676583834264e+03  2.4764517433944116e+03  2.4592946697533830e+03  2.4427974039024939e+03  2.4263465096127934e+03  2.4098660142876925e+03  2.3929905236736204e+03  2.3767656755634348e+03  2.3603410332969861e+03  2.3431753695546940e+03  2.3266678686130840e+03  2.3102323109258650e+03  2.2938577400159561e+03  2.2768848774007820e+03  2.2604677360060182e+03  2.2440151296228701e+03  2.2275002726246707e+03  2.2102634972718006e+03  2.1938110426239432e+03  2.1769721155121447e+03  2.1611509029628110e+03  2.1436844852397171e+03  2.1275622622300066e+03  2.1107398272464766e+03  2.0940655761411863e+03  2.0775022933280566e+03  2.0604152914305414e+03  2.0447606197486998e+03  2.0277620878679968e+03  2.0110195415210510e+03  1.9947626449759189e+03  1.9771894336945948e+03  1.9609794644795120e+03  1.9447162440613872e+03  1.9281518641241680e+03  1.9106164791814138e+03  1.8947354060775331e+03  1.8777753517144170e+03  1.8619143438003873e+03  1.8446384540206652e+03  1.8284288668680958e+03  1.8118126297464951e+03  1.7950934747053384e+03  1.7783107788264740e+03  1.7617538843124264e+03  1.7450840764540094e+03  1.7285984115744820e+03  1.7121336977391315e+03  1.6955634664366189e+03  1.6792211846274081e+03  1.6623655127058573e+03  1.6448060065630611e+03  1.6287863901596120e+03  1.6123706352275035e+03  1.5953864206579237e+03  1.5791433187758589e+03  1.5624781896109935e+03  1.5457194515389169e+03  1.5292560186089158e+03  1.5120956912637887e+03  1.4962815387110356e+03  1.4795185595599062e+03  1.4628042742563896e+03  1.4454618355328043e+03  1.4295840215917415e+03  1.4129871396988403e+03  1.3967023552878998e+03  1.3794559912285174e+03  1.3624503498191109e+03  1.3466261652611549e+03  1.3295570579755540e+03  1.3132786977157411e+03  1.2961360128514921e+03  1.2803167053415432e+03  1.2628122442041506e+03  1.2463646152914948e+03  1.2299218073247960e+03  1.2136757467207667e+03  1.1969586086118923e+03  1.1795835739788299e+03  1.1637224279505319e+03  1.1471844753396063e+03  1.1295580862934237e+03  1.1136330714616165e+03  1.0967574552805506e+03  1.0804056542439175e+03  1.0633205758779532e+03  1.0473049339664044e+03  1.0305225537000754e+03  1.0140544346517258e+03  9.9692359738542757e+02  9.8119290002986770e+02  9.6371240876273544e+02  9.4723343649772721e+02  9.3074896062212611e+02  9.1426636450153057e+02  8.9768538679921983e+02  8.8060848565253116e+02  8.6426776921704300e+02  8.4770876496177880e+02  8.3125377889297806e+02  8.1413020123380340e+02  7.9822242949806866e+02  7.8112248749433422e+02  7.6501582680993795e+02  7.4729969716345738e+02  7.3146550833363506e+02  7.1448669054786001e+02  6.9794965358354682e+02  6.8147434861471334e+02  6.6510061283472555e+02  6.4801559181348773e+02  6.3142314660819216e+02  6.1508015164432152e+02  5.9857333815883931e+02  5.8149411378938521e+02  5.6571240066159305e+02  5.4861418925828059e+02  5.3157660945677844e+02  5.1495037269889633e+02  4.9853690152259566e+02  4.8250936644111590e+02  4.6513040545982415e+02  4.4887218936813457e+02  4.3200802668808075e+02  4.1554802778576641e+02  3.9862291283876147e+02  3.8263762954238450e+02  3.6560102465764459e+02  3.4957118740386534e+02  3.3264765072082872e+02  3.1623350716769488e+02  2.9909532780054116e+02  2.8260608513348836e+02  2.6640191592708885e+02  2.4979152891748151e+02  2.3232924881629282e+02  2.1601300350569784e+02  1.9961069565972360e+02  1.8281909141749617e+02  1.6649279224351793e+02  1.4915308718880246e+02  1.3357649001328531e+02  1.1671047084393713e+02  1.0011274416088048e+02  8.2690291908487808e+01  6.6184595953608408e+01  4.9748016949769664e+01  3.3114263020485666e+01  1.6421116069572289e+01  -1.2224439341611956e-01  2.0785749427655473e-02  -1.2272294835799333e-03  1.0463979308616410e-04  -6.6575964233290115e-05  -1.2102129442116788e-05  -9.5502801562710542e-06  -2.4426711993633074e-06  -2.8677871737846624e-06  -4.5077517201563187e-06  6.6729115754353989e-06  -5.1085366349265515e-06  2.1054870729475035e-06  -9.9636663946775491e-06  3.2742288105309055e-06  2.3943629551081702e-06  -1.8320528662032533e-06  -3.4949298174204687e-06  1.7752446932346330e-06  2.5035475605180072e-06  1.0362949168117944e-06  1.7274945178011298e-06  1.8016216319692368e-07  3.6687047799345465e-06  7.2434931777610702e-07  8.9533848222875127e-07  -2.4641981170783128e-08  8.3856840892815154e-08  3.9529102206435136e-07  -1.1099611561083638e-06  -4.9329507775822656e-07  4.4321300395962665e-07  7.3148903021969168e-07  -7.4899979408183708e-07  -5.0345937097821265e-07  1.5010655012633709e-06  1.0999631724302229e-06  -7.2011157440737087e-06  4.7500858859862484e-07  -4.0305883116934579e-06  2.4122091109276393e-06  -5.6032820566208746e-06  3.9498668333935598e-06  -4.6784661814727208e-06  6.6425109202550918e-06  -4.3272998638846159e-06  -2.8441390281786517e-06  -2.3975932937734540e-06  -9.5223401758341598e-06  -1.2037673237697211e-05  -6.6545438926235792e-05  1.0463104646389268e-04  -1.2271376628578900e-03  2.0785567157120290e-02  -1.2224335030556996e-01  1.6420970100159291e+01  3.3113968670300821e+01  4.9747572946125963e+01  6.6184003449383070e+01  8.2689547824696959e+01  1.0011183764430751e+02  1.1670940667104985e+02  1.3357526205697073e+02  1.4915170406251175e+02  1.6649123180392132e+02  1.8281735906042127e+02  1.9960877953278404e+02  2.1601090329190203e+02  2.3232695712147105e+02  2.4978902496664531e+02  2.6639920066773527e+02  2.8260315650032766e+02  2.9909217054799245e+02  3.1623010199623957e+02  3.3264399495979427e+02  3.4956726356829324e+02  3.6559683201776744e+02  3.8263313722139009e+02  3.9861812493458063e+02  4.1554290633357556e+02  4.3200256713605074e+02  4.4886635984398663e+02  4.6512419779111849e+02  4.8250272970316377e+02  4.9852984665730628e+02  5.1494285700431999e+02  5.3156860155167703e+02  5.4860564047182663e+02  5.6570327210026903e+02  5.8148441244062803e+02  5.9856297185896142e+02  6.1506908937403171e+02  6.3141135022628214e+02  6.4800298291374600e+02  6.6508708966735662e+02  6.8145989861468831e+02  6.9793414356556286e+02  7.1447004508399107e+02  7.3144756822683155e+02  7.4728041002496241e+02  7.6499486108926590e+02  7.8109983504470370e+02  7.9819773345394162e+02  8.1410325823887558e+02  8.3122411840407960e+02  8.4767585368846790e+02  8.6423086606542859e+02  8.8056516133879711e+02  8.9763942943629706e+02  9.1421278380008835e+02  9.3068312938377596e+02  9.4716103732774832e+02  9.6359599780472104e+02  9.8072237235519003e+02  9.9703675081926554e+02  1.0140388824307240e+03  1.0299641532570681e+03  1.0474832418521160e+03  1.0636132432864092e+03  1.0804330981839539e+03  1.0975398624043769e+03  1.1132733993059323e+03  1.1306536752943853e+03  1.1472669196310583e+03  1.1631210762666296e+03  1.1802272013602987e+03  1.1968750364620644e+03  1.2131008524659824e+03  1.2296395544029738e+03  1.2467289463992267e+03  1.2626947127707342e+03  1.2792554304088735e+03  1.2968834420029341e+03  1.3127103866217572e+03  1.3298302657235408e+03  1.3460616037558073e+03  1.3635513302677693e+03  1.3793422082961815e+03  1.3957459831655117e+03  1.4133190733852614e+03  1.4291143381781003e+03  1.4464285883400619e+03  1.4627184716611121e+03  1.4790657355151334e+03  1.4962738513056740e+03  1.5119994873750907e+03  1.5294738218237333e+03  1.5455730273250426e+03  1.5627863003206432e+03  1.5791053784239234e+03  1.5959039961292915e+03  1.6124153279740965e+03  1.6289088680229099e+03  1.6458466937191290e+03  1.6620337927494886e+03  1.6785003815431228e+03  1.6956763168374869e+03  1.7114637261850050e+03  1.7285801779300803e+03  1.7456838689161561e+03  1.7612795932457886e+03  1.7785916190414318e+03  1.7951414597356938e+03  1.8120384403602845e+03  1.8282012086895509e+03  1.8449901192662624e+03  1.8618978330315219e+03  1.8785953036978747e+03  1.8943375337210468e+03  1.9112706575486141e+03  1.9283357322288412e+03  1.9446748410772570e+03  1.9609650759046315e+03  1.9778841449991430e+03  1.9941447766793215e+03  2.0115419980374538e+03  2.0283935259735333e+03  2.0441568875704975e+03  2.0610282032708274e+03  2.0775185496388658e+03  2.0946859805788272e+03  2.1105710630271151e+03  2.1276905656327122e+03  2.1446045723141387e+03  2.1602616196838198e+03  2.1777613395035273e+03  2.1937575292742627e+03  2.2110599286261895e+03  2.2274959521036617e+03  2.2441553958160466e+03  2.2606175714432943e+03  2.2774285694995751e+03  2.2937220418559191e+03  2.3106859729344446e+03  2.3272262105127948e+03  2.3436604971545639e+03  2.3600181873292195e+03  2.3764136310675885e+03  2.3938257789505656e+03  2.4110361108112402e+03  2.4268630765059866e+03  2.4438368110294196e+03  2.4600431473342210e+03  2.4771197106629238e+03  2.4931993069019445e+03  2.5106385448725659e+03  2.5264555699503876e+03  2.5435941207587693e+03  2.5607328715036738e+03  2.5762972563572907e+03  2.5935343384049856e+03  2.6102898234806721e+03  2.6260914128241770e+03  2.6432234963452956e+03  2.6602352890672423e+03  2.6765370017751720e+03  2.6932454552533227e+03  2.7102595201425133e+03  2.7261974428695257e+03  2.7440626219195642e+03  2.7600219834887016e+03  2.7766151100128955e+03  2.7938055909249233e+03  2.8096855708819521e+03  2.8267766772672935e+03  2.8434676506606825e+03  2.8603977331339861e+03  2.8762815994580856e+03  2.8937619322336654e+03  2.9102244281742492e+03  2.9273815073919709e+03  2.9435809964701775e+03  2.9599480031211810e+03  2.9771286528261821e+03  2.9933466494653289e+03  3.0107627203421744e+03  3.0278006322936626e+03  3.0443023159745326e+03  3.0609207598437779e+03  3.0786249270096005e+03  3.1002268310293448e+03  3.1234392185491015e+03  3.1870157679891904e+03  3.2460249551207157e+03  3.3099726011197658e+03  3.3703135687030085e+03  3.4334422718607775e+03  3.4964993990040734e+03  3.5590822345127299e+03  3.6214487256916195e+03  3.6844595287547190e+03  3.7408534642208351e+03  5.2248795462967519e+03  5.3221587984154803e+03  5.4146257397262370e+03  5.5081116979100389e+03  5.5937038375898137e+03  5.6839085424193345e+03  5.7739015354162075e+03  5.8644614548873024e+03  5.9532343494944644e+03  6.0416816033963278e+03  6.1298640206228620e+03  6.2216709025725604e+03  6.3129861729588019e+03  6.3964469462399602e+03  6.4899635646453271e+03  6.5762212423342526e+03  6.6687483584459060e+03  6.7570789212413556e+03  6.8447335473653302e+03  6.9324195812537846e+03  7.0240730488957352e+03  7.1110000343088304e+03  7.1978618973600514e+03  7.2899637476131111e+03  7.3797315628012329e+03  7.4682115528718086e+03  7.5560984420826517e+03  7.6460212651678212e+03  7.7345411999727366e+03  7.8229875701972123e+03  7.9118601580284385e+03  7.9983370803201042e+03  8.0917487325808670e+03  8.1773605359585708e+03  8.2670025183838716e+03  8.3566365888294331e+03  8.4435390234851238e+03  8.5318384143419717e+03  8.6216352319296147e+03  8.7107402944063779e+03  8.7994214964971834e+03  8.8871998190521572e+03  8.9749301514310810e+03  9.0676451708597015e+03  9.1562171210774304e+03  9.2412195532917849e+03  9.3311463984050315e+03  9.4200783122533321e+03  9.5115473199646258e+03  9.5960056459653733e+03  9.6875829944471789e+03  9.7788290054531717e+03  9.8631723780834345e+03  9.9549391779893976e+03  1.0042836457930109e+04  1.0130076741940797e+04  1.0219924021806575e+04  1.0307694319409040e+04  1.0395367474898962e+04  1.0486598244495455e+04  1.0573495573506372e+04  1.0664598121200912e+04  1.0751226178297566e+04  1.0844486281974088e+04  1.0928043041737854e+04  1.1018920816532243e+04  1.1107456209968392e+04  1.1197671436001272e+04  1.1281658287699029e+04  1.1373271718056025e+04  1.1465811302210650e+04  1.1550422879492291e+04  1.1642422544503863e+04  1.1729835626514716e+04  1.1817984471677044e+04  1.1908499396714506e+04  1.1999328558300813e+04  1.2086660245758796e+04  1.2174432947032570e+04  1.2264616861371698e+04  1.2352895472885615e+04  1.2441231749468498e+04  1.2533807253850347e+04  1.2618961502307124e+04  1.2711374069922304e+04  1.2801451621800094e+04  1.2896261568386515e+04  1.2984850564514907e+04  1.3073122056752411e+04  1.3069128727952888e+04  1.3066803776520963e+04  1.3064846915905771e+04  1.3063403629255243e+04  1.3062174836509472e+04  1.3061191262472024e+04  1.3060348831134588e+04  1.3059646483433507e+04  1.3059003060642124e+04  1.3058450041224762e+04  1.3057932458766147e+04  1.3057504941352447e+04  1.3057094957048372e+04  1.3056744036864964e+04  1.3056427021137972e+04  1.3056161525404641e+04  1.3055904149139220e+04  1.3055688271884346e+04  1.3055503853518898e+04  1.3055339775942037e+04  1.3055210000976207e+04  1.3055089615562945e+04  1.3054998440582760e+04  1.3054931173446896e+04  1.3054889360491763e+04  1.3054865621995919e+04  1.3054863189972562e+04  1.3054883791957249e+04  1.3054926478184683e+04  1.3054988190686861e+04  1.3055070072120772e+04  1.3055181335600339e+04  1.3055319173165042e+04  1.3055470694435569e+04  1.3055641474128262e+04  1.3055852630562780e+04  1.3056082976721111e+04  1.3056353336758370e+04  1.3056635715983150e+04  1.3056975607346874e+04  1.3057334373730353e+04  1.3057757656371463e+04  1.3058196938180725e+04  1.3058727030293912e+04  1.3059290667538067e+04  1.3059944326090259e+04  1.3060655335868729e+04  1.3061505928203806e+04  1.3062496511764595e+04  1.3063731608669470e+04  1.3065179927805148e+04  1.3067140473846473e+04  1.3069468376767518e+04  1.3073463086104255e+04  4.6267218616777336e+02  1.0587369378489906e+04  1.4200964629940527e+03  9.3678371255598233e+02  7.7677728660696303e+03  4.8591467244944724e+03  2.7496279049679838e+03  2.0032747391586809e+03  2.3763839861304687e+03  1.7129407670959311e+03  6.3278618967860921e+03  6.3662757563591176e+03  9.1973617536271195e+03  9.2047380334605696e+03  1.6785093760792929e+03  1.1814868151974326e+03  1.1798215955973928e+03  7.0077872740327257e+02  7.0101365239810514e+02  2.2353414559392136e+03  2.9807011017558229e+03  2.9858666350808958e+03  2.5233902558977234e+03  2.7136736876645392e+02  1.1615473317371183e+04  1.1631612713744964e+04  2.6876036034195391e+02  2.5954869261334479e+03  2.1543821652387746e+03  1.9102515325615284e+03  1.4895233690444697e+03  1.9336554977022386e+03  5.1640000910509834e+03  7.4979272009128099e+03  5.1427773031213856e+03  7.5576647573067330e+03  1.0371929896514672e+04  1.0359447806511058e+04  1.4570646156474068e+03  9.5674216619966217e+02  9.5643694592187990e+02  2.7583526073840553e+03  4.9007840633570987e+02  4.9066468197948961e+02  2.7959009670125961e+03  2.0138029110472206e+02  1.1982707559150138e+04  2.4176926689967745e+03  2.5580490808976829e+03  2.1898747239470090e+03  1.8122745645081950e+03  8.4449510985561592e+03  5.8228110720873356e+03  8.4797496771124734e+03  3.0357549958978630e+03  1.3193981020537010e+03  2.3766679738938305e+03  6.4298897078931918e+02  1.2414936301985522e+03  1.6005387096469049e+03  6.8296346879706261e+03  9.6512561520665622e+03  2.1011700915619208e+03  4.3004019644912341e+03  8.7211590981088320e+03  4.2858378220103814e+03  1.2961860006325799e+03  1.7788509620858138e+03  2.3802817458181503e+03  8.0670947231193566e+02  8.0843466637783524e+02  5.9359408999390625e+03  1.7653335273320706e+03  5.9575533686649715e+03  9.5875274168039668e+03  9.5842224380093285e+03  1.6011428852090537e+03  1.2212396423166372e+04  1.2212729107373463e+04  1.5761644690319702e+02  1.5761518947347022e+02  2.6203168645216761e+03  6.7963555053764931e+03  1.0975883800635947e+03  1.0975769248642091e+03  8.2735915944442713e+03  1.3315157346144615e+03  2.8985903721907825e+03  4.4346664787994760e+03  6.7658509130252432e+03  4.4116317056522548e+03  1.0909086160731929e+03  1.3309305340132703e+03  1.6228772634820948e+03  2.0845715878575602e+03  6.2757096918030743e+02  6.2758038063302990e+02  7.9219475418773482e+02  1.1079529477290193e+04  1.1081698916080533e+04  2.0402823145549421e+03  8.2155444622015093e+03  8.5041372402082766e+02  2.2701760715328260e+03  2.8911905791302825e+03  1.0443718325166260e+03  3.5750305683914240e+02  3.5698151584702430e+02  2.6607296025437322e+03  2.9340375560600305e+03  2.8471082479391821e+03  1.1279955350850083e+04  3.3378153952119283e+02  1.0917805765798767e+04  2.2380202130252715e+03  5.5274860297256316e+02  5.5278982491754914e+02  3.9869315402645952e+02  1.4279919338143873e+02  1.2295606569627709e+04  1.4097949574097760e+02  1.2302498748920980e+04  2.0274253336881957e+03  2.7228013948746702e+03  1.8522849845579988e+03  2.6730588722740072e+03  1.5121053284547361e+03  5.6053566935468043e+03  1.0111225870702501e+04  1.0120405408386261e+04  7.3032770545197473e+03  2.5385228023061336e+03  7.3067636948407317e+03  2.2860075117773599e+03  8.3825993919717314e+02  5.3212472854687421e+03  1.5082901387296431e+03  2.4966760814831605e+03  1.8046983638570466e+03  2.4946135816015531e+03  7.8450876080905446e+03  1.4332415427900351e+03  7.8814666555372978e+03  1.0945126796677874e+04  1.9857