<?xml version="1.0"?>
<VTKFile type="UnstructuredGrid"  version="0.1"  >
<UnstructuredGrid>
<Piece  NumberOfPoints="21459" NumberOfCells="42258">
<Points>
<DataArray  type="Float64"  NumberOfComponents="3"  format="ascii">0 0 0  0.77 0 0  0.77 0.15 0  0 0.15 0  0.002575250836115831 0 0  0.005150501672231662 0 0  0.007725752508347561 0 0  0.0103010033444635 0 0  0.01287625418057944 0 0  0.01545150501669537 0 0  0.01802675585281131 0 0  0.02060200668892696 0 0  0.0231772575250426 0 0  0.02575250836115786 0 0  0.02832775919727293 0 0  0.03090301003338809 0 0  0.03347826086950344 0 0  0.0360535117056188 0 0  0.03862876254173415 0 0  0.04120401337784951 0 0  0.04377926421396486 0 0  0.04635451505008022 0 0  0.04892976588619594 0 0  0.05150501672231246 0 0  0.05408026755842897 0 0  0.05665551839454548 0 0  0.059230769230662 0 0  0.06180602006677815 0 0  0.06438127090289408 0 0  0.06695652173901002 0 0  0.06953177257512595 0 0  0.07210702341124189 0 0  0.07468227424735784 0 0  0.07725752508347376 0 0  0.07983277591959044 0 0  0.08240802675570753 0 0  0.08498327759182464 0 0  0.08755852842794172 0 0  0.09013377926405881 0 0  0.0927090301001737 0 0  0.09528428093628846 0 0  0.09785953177240253 0 0  0.1004347826085162 0 0  0.1030100334446298 0 0  0.1055852842807434 0 0  0.108160535116857 0 0  0.1107357859529706 0 0  0.1133110367890842 0 0  0.1158862876251971 0 0  0.1184615384613096 0 0  0.1210367892974217 0 0  0.123612040133533 0 0  0.1261872909696443 0 0  0.1287625418057556 0 0  0.1313377926418669 0 0  0.1339130434779796 0 0  0.1364882943140932 0 0  0.1390635451502075 0 0  0.1416387959863234 0 0  0.1442140468224393 0 0  0.1467892976585553 0 0  0.1493645484946712 0 0  0.1519397993307857 0 0  0.1545150501668993 0 0  0.1570903010030123 0 0  0.1596655518391236 0 0  0.1622408026752349 0 0  0.1648160535113462 0 0  0.1673913043474575 0 0  0.1699665551835688 0 0  0.1725418060196801 0 0  0.1751170568557914 0 0  0.1776923076919027 0 0  0.180267558528014 0 0  0.1828428093641274 0 0  0.185418060200241 0 0  0.187993311036356 0 0  0.1905685618724719 0 0  0.1931438127085879 0 0  0.1957190635447038 0 0  0.1982943143808197 0 0  0.2008695652169336 0 0  0.2034448160530472 0 0  0.2060200668891594 0 0  0.2085953177252707 0 0  0.211170568561382 0 0  0.2137458193974934 0 0  0.2163210702336046 0 0  0.2188963210697159 0 0  0.2214715719058272 0 0  0.2240468227419385 0 0  0.2266220735780498 0 0  0.2291973244141617 0 0  0.2317725752502753 0 0  0.2343478260863889 0 0  0.2369230769225046 0 0  0.2394983277586206 0 0  0.2420735785947365 0 0  0.2446488294308524 0 0  0.2472240802669673 0 0  0.2497993311030786 0 0  0.2523745819391899 0 0  0.2549498327753012 0 0  0.2575250836114125 0 0  0.2601003344475263 0 0  0.2626755852836423 0 0  0.2652508361197582 0 0  0.2678260869558742 0 0  0.2704013377919901 0 0  0.272976588628106 0 0  0.275551839464222 0 0  0.2781270903003354 0 0  0.2807023411364467 0 0  0.2832775919725579 0 0  0.2858528428086692 0 0  0.2884280936447806 0 0  0.2910033444808919 0 0  0.2935785953170031 0 0  0.2961538461531145 0 0  0.2987290969892258 0 0  0.301304347825338 0 0  0.3038795986614539 0 0  0.3064548494975699 0 0  0.3090301003336858 0 0  0.3116053511698018 0 0  0.3141806020059177 0 0  0.3167558528420336 0 0  0.3193311036781486 0 0  0.3219063545142599 0 0  0.3244816053503712 0 0  0.3270568561864825 0 0  0.3296321070225938 0 0  0.3322073578587051 0 0  0.3347826086948165 0 0  0.3373578595309277 0 0  0.339933110367039 0 0  0.3425083612031504 0 0  0.3450836120392617 0 0  0.347658862875373 0 0  0.3502341137114842 0 0  0.3528093645475955 0 0  0.3553846153837077 0 0  0.3579598662198236 0 0  0.3605351170559395 0 0  0.3631103678920555 0 0  0.3656856187281714 0 0  0.3682608695642873 0 0  0.3708361204004033 0 0  0.3734113712365184 0 0  0.3759866220726297 0 0  0.378561872908741 0 0  0.3811371237448562 0 0  0.3837123745809721 0 0  0.3862876254170927 0 0  0.3888628762532179 0 0  0.3914381270893431 0 0  0.3940133779254684 0 0  0.3965886287615936 0 0  0.3991638795977189 0 0  0.401739130433844 0 0  0.4043143812699693 0 0  0.4068896321060945 0 0  0.4094648829422198 0 0  0.412040133778345 0 0  0.4146153846144702 0 0  0.4171906354505954 0 0  0.4197658862867207 0 0  0.4223411371228482 0 0  0.4249163879589781 0 0  0.4274916387951079 0 0  0.4300668896312377 0 0  0.4326421404673676 0 0  0.4352173913034975 0 0  0.4377926421396274 0 0  0.4403678929757572 0 0  0.4429431438118872 0 0  0.4455183946480163 0 0  0.4480936454841415 0 0  0.4506688963202668 0 0  0.453244147156392 0 0  0.4558193979925173 0 0  0.4583946488286424 0 0  0.4609698996647677 0 0  0.463545150500893 0 0  0.4661204013370182 0 0  0.4686956521731435 0 0  0.4712709030092686 0 0  0.4738461538453939 0 0  0.4764214046815212 0 0  0.4789966555176511 0 0  0.481571906353781 0 0  0.4841471571899109 0 0  0.4867224080260408 0 0  0.489297658862167 0 0  0.4918729096982922 0 0  0.4944481605344174 0 0  0.4970234113705426 0 0  0.4995986622066672 0 0  0.5021739130427878 0 0  0.5047491638789084 0 0  0.5073244147150326 0 0  0.5098996655511578 0 0  0.5124749163872871 0 0  0.5150501672234217 0 0  0.5176254180595552 0 0  0.5202006688956804 0 0  0.5227759197318056 0 0  0.5253511705679309 0 0  0.5279264214040561 0 0  0.5305016722401854 0 0  0.5330769230763199 0 0  0.5356521739124535 0 0  0.5382274247485787 0 0  0.5408026755847039 0 0  0.5433779264208219 0 0  0.5459531772569379 0 0  0.5485284280930578 0 0  0.5511036789291831 0 0  0.5536789297653092 0 0  0.5562541806014436 0 0  0.5588294314375781 0 0  0.5614046822737055 0 0  0.5639799331098307 0 0  0.5665551839459561 0 0  0.5691304347820813 0 0  0.5717056856182072 0 0  0.5742809364543418 0 0  0.5768561872904763 0 0  0.5794314381266108 0 0  0.5820066889627452 0 0  0.5845819397988758 0 0  0.5871571906350012 0 0  0.5897324414711264 0 0  0.5923076923072516 0 0  0.5948829431433768 0 0  0.5974581939795088 0 0  0.6000334448156434 0 0  0.6026086956517741 0 0  0.6051839464878993 0 0  0.6077591973240239 0 0  0.6103344481601398 0 0  0.6129096989962558 0 0  0.6154849498323786 0 0  0.6180602006685038 0 0  0.6206354515046327 0 0  0.6232107023407671 0 0  0.6257859531769011 0 0  0.6283612040130263 0 0  0.6309364548491515 0 0  0.6335117056852767 0 0  0.636086956521402 0 0  0.6386622073575308 0 0  0.6412374581936653 0 0  0.6438127090297993 0 0  0.6463879598659246 0 0  0.6489632107020498 0 0  0.6515384615381682 0 0  0.6541137123742842 0 0  0.6566889632104037 0 0  0.6592642140465289 0 0  0.6618394648826547 0 0  0.6644147157187892 0 0  0.6669899665549236 0 0  0.6695652173910515 0 0  0.6721404682271768 0 0  0.674715719063302 0 0  0.6772909698994272 0 0  0.6798662207355527 0 0  0.6824414715716872 0 0  0.6850167224078217 0 0  0.6875919732439497 0 0  0.6901672240800749 0 0  0.6927424749161967 0 0  0.6953177257523127 0 0  0.6978929765884289 0 0  0.7004682274245541 0 0  0.7030434782606794 0 0  0.705618729096811 0 0  0.7081939799329454 0 0  0.7107692307690766 0 0  0.7133444816052019 0 0  0.7159197324413271 0 0  0.7184949832774523 0 0  0.7210702341135775 0 0  0.7236454849497092 0 0  0.7262207357858437 0 0  0.7287959866219749 0 0  0.7313712374581001 0 0  0.7339464882942252 0 0  0.7365217391303411 0 0  0.7390969899664571 0 0  0.7416722408025793 0 0  0.7442474916387045 0 0  0.7468227424748329 0 0  0.7493979933109675 0 0  0.7519732441471019 0 0  0.7545484949832271 0 0  0.7571237458193523 0 0  0.7596989966554775 0 0  0.7622742474916027 0 0  0.764849498327731 0 0  0.7674247491638655 0 0  0.77 0.004999999999990473 0  0.77 0.009999999999980134 0  0.77 0.01499999999997245 0  0.77 0.01999999999996296 0  0.77 0.02499999999994839 0  0.77 0.02999999999993517 0  0.77 0.03499999999992059 0  0.77 0.03999999999990602 0  0.77 0.04499999999989145 0  0.77 0.04999999999987687 0  0.77 0.0549999999998623 0  0.77 0.05999999999985044 0  0.77 0.06499999999983586 0  0.77 0.06999999999982129 0  0.77 0.07499999999980943 0  0.77 0.07999999999981869 0  0.77 0.08499999999983195 0  0.77 0.08999999999984591 0  0.77 0.09499999999985989 0  0.77 0.09999999999987387 0  0.77 0.1049999999998868 0  0.77 0.1099999999998987 0  0.77 0.1149999999999134 0  0.77 0.1199999999999254 0  0.77 0.1249999999999365 0  0.77 0.1299999999999492 0  0.77 0.1349999999999592 0  0.77 0.1399999999999721 0  0.77 0.144999999999986 0  0.7674247491638934 0.15 0  0.7648494983277866 0.15 0  0.7622742474916738 0.15 0  0.7596989966555578 0.15 0  0.7571237458194419 0.15 0  0.7545484949833259 0.15 0  0.7519732441472099 0.15 0  0.7493979933110939 0.15 0  0.7468227424749779 0.15 0  0.7442474916388619 0.15 0  0.741672240802746 0.15 0  0.73909698996663 0.15 0  0.736521739130514 0.15 0  0.733946488294398 0.15 0  0.7313712374582821 0.15 0  0.7287959866221662 0.15 0  0.7262207357860502 0.15 0  0.7236454849499342 0.15 0  0.7210702341138182 0.15 0  0.7184949832777022 0.15 0  0.7159197324415862 0.15 0  0.7133444816054703 0.15 0  0.7107692307693543 0.15 0  0.7081939799332383 0.15 0  0.7056187290971223 0.15 0  0.7030434782610063 0.15 0  0.7004682274248905 0.15 0  0.6978929765887745 0.15 0  0.6953177257526585 0.15 0  0.6927424749165425 0.15 0  0.6901672240804265 0.15 0  0.6875919732443105 0.15 0  0.6850167224081946 0.15 0  0.6824414715720786 0.15 0  0.6798662207359626 0.15 0  0.6772909698998466 0.15 0  0.6747157190637306 0.15 0  0.6721404682276146 0.15 0  0.6695652173914987 0.15 0  0.6669899665553827 0.15 0  0.6644147157192668 0.15 0  0.6618394648831508 0.15 0  0.6592642140470348 0.15 0  0.6566889632109189 0.15 0  0.6541137123748029 0.15 0  0.6515384615386869 0.15 0  0.6489632107025709 0.15 0  0.6463879598664549 0.15 0  0.6438127090303389 0.15 0  0.6412374581942317 0.15 0  0.6386622073581251 0.15 0  0.6360869565220184 0.15 0  0.6335117056859116 0.15 0  0.6309364548498024 0.15 0  0.6283612040136864 0.15 0  0.6257859531775705 0.15 0  0.6232107023414633 0.15 0  0.6206354515053566 0.15 0  0.6180602006692498 0.15 0  0.6154849498331432 0.15 0  0.612909698997034 0.15 0  0.6103344481609181 0.15 0  0.607759197324802 0.15 0  0.6051839464886948 0.15 0  0.602608695652588 0.15 0  0.6000334448164814 0.15
[...]
<PointData  Scalars="concentration"> 
<DataArray  type="Float64"  Name="concentration"  format="ascii">0.0000000000000000e+00  9.9999999999997169e-01  9.9999999999999134e-01  0.0000000000000000e+00  8.1926968490903650e-03  1.0293045795468610e-02  1.7375794102863624e-02  9.9914740017192135e-03  -9.3150100333067708e-03  3.6848106786378593e-02  -1.4682086357613438e-02  -1.5802588254703386e-02  4.1293430439450999e-03  -5.7016515389294242e-04  -1.2245015929391475e-02  -2.1723618223571644e-02  -6.9189321080436374e-03  -5.6064015040971291e-03  -4.5543243448762344e-02  1.0009791535228237e-02  -3.3496258845695466e-02  -8.0270037524694776e-02  2.3109015726209975e-01  5.2634291792937882e-01  9.5031386493534953e-01  7.4644008038010479e-01  7.9570289079550338e-01  1.1093134347874727e+00  9.8698385357581209e-01  7.2302699367232548e-01  1.0357351197807934e+00  1.0715093074348578e+00  1.0899717143955534e+00  9.6137579951483010e-01  9.2594221783881758e-01  9.8283309668795216e-01  1.1789389780452662e+00  7.2039540008017333e-01  9.9210179587139535e-01  1.0964643466466768e+00  8.8474882478742700e-01  7.7962809958769785e-01  1.1799485020418021e+00  8.7736696279051074e-01  9.1091514243311056e-01  1.0268710372001650e+00  9.4834110870481403e-01  9.0392535454185674e-01  1.0363230483899628e+00  8.8274086295826670e-01  8.0674643107455823e-01  1.0100152365948034e+00  1.1114961045402598e+00  6.0572907423816857e-01  1.0783656637709143e+00  6.5042273457421318e-01  8.5814510990585025e-01  9.6142810715947635e-01  6.5358710931846165e-01  1.0843774457573505e+00  6.8199144131267320e-01  1.1064201238474387e+00  8.2148921880063475e-01  9.0174052062711441e-01  1.0323312096896937e+00  8.4070356117155087e-01  9.4448500620313991e-01  9.2262818155975956e-01  9.9990703341400977e-01  9.4269148164526329e-01  7.7818664333036391e-01  8.3284882199141752e-01  1.1526252651813138e+00  6.3858002588753593e-01  1.0867637394339094e+00  8.7751373698461976e-01  1.1509049747943156e+00  6.5508678784845287e-01  6.0111195574547860e-01  7.7517122263027194e-01  6.7877517386362207e-01  8.3470839057137092e-01  8.3620826963281780e-01  8.3043713242235428e-01  9.1362206624898123e-01  9.4794958596885592e-01  9.0792749202593948e-01  9.3870026327797929e-01  9.6495613135118474e-01  9.6366332770865193e-01  9.7674687002505167e-01  9.8280296761546682e-01  9.7671757572157047e-01  9.8610757645171010e-01  9.9766978690099872e-01  9.9277625789300250e-01  9.9678115471495909e-01  9.9266059097145420e-01  9.9971869621747589e-01  9.9420520434028237e-01  9.9853659800269035e-01  1.0076430792273947e+00  9.9651062140948576e-01  1.0006995929271481e+00  9.9640675317897209e-01  9.9812633155530872e-01  1.0000980430991369e+00  9.9984716265982754e-01  9.9818281598239111e-01  9.9905400445608883e-01  9.9985325985553497e-01  9.9981671247689552e-01  9.9946901635753727e-01  1.0006843080798027e+00  9.9969726058407926e-01  9.9900421314819865e-01  1.0000650692368367e+00  9.9957757852354723e-01  9.9961479303285983e-01  1.0002447204062548e+00  9.9983845764479085e-01  9.9982382913332868e-01  1.0001598710518933e+00  9.9983174326482160e-01  9.9989250278807529e-01  1.0000425578943024e+00  1.0000789383619635e+00  9.9977903808348956e-01  1.0001336010155903e+00  1.0003627639891117e+00  9.9983560317982667e-01  9.9974868169855480e-01  9.9993450052246813e-01  9.9997809597809051e-01  9.9993920633776034e-01  9.9994061223285136e-01  9.9997854927159302e-01  9.9999508421044370e-01  9.9995854902334691e-01  1.0000140990005029e+00  9.9998047947581070e-01  1.0000100980439988e+00  9.9999041249121634e-01  9.9999755650246536e-01  1.0000133854244488e+00  9.9998326298412699e-01  1.0000044320946837e+00  1.0000051336387932e+00  9.9999348167421254e-01  1.0000048969201416e+00  1.0000017229945888e+00  9.9999663382736226e-01  1.0000033210736421e+00  9.9999885410155165e-01  1.0000005243955439e+00  1.0000034284046171e+00  9.9999812002494526e-01  1.0000028358036213e+00  9.9999947086916541e-01  9.9999915662964567e-01  1.0000039353341077e+00  9.9999692533457307e-01  9.9999857012832716e-01  1.0000002362451612e+00  9.9999902812852315e-01  9.9999979952312035e-01  9.9999994155135408e-01  9.9999967185427041e-01  1.0000001747582270e+00  1.0000003559483839e+00  9.9999938061340410e-01  9.9999995046987267e-01  1.0000001040859350e+00  9.9999997959619558e-01  1.0000000291458684e+00  1.0000002587667682e+00  1.0000002214643768e+00  1.0000000737741335e+00  9.9999990674058170e-01  9.9999997532726681e-01  1.0000002955304190e+00  9.9999983192069575e-01  1.0000000938570592e+00  9.9999992672598725e-01  9.9999998160779258e-01  1.0000000251720722e+00  9.9999991716913750e-01  1.0000000185481706e+00  1.0000000308938906e+00  9.9999996483152287e-01  1.0000000171320922e+00  9.9999999347034962e-01  9.9999999727121425e-01  1.0000000269386640e+00  1.0000000000811702e+00  1.0000000039834889e+00  9.9999999657567096e-01  1.0000000051956148e+00  1.0000000069638832e+00  1.0000000028409739e+00  9.9999999710307064e-01  1.0000000138071845e+00  1.0000000000107290e+00  1.0000000008699568e+00  1.0000000021299891e+00  1.0000000058503939e+00  1.0000000031324172e+00  1.0000000019256696e+00  9.9999999696743103e-01  1.0000000020055559e+00  9.9999999792269434e-01  1.0000000003304088e+00  1.0000000027130558e+00  9.9999999850161281e-01  9.9999999769424330e-01  9.9999999832692266e-01  1.0000000008878085e+00  1.0000000005870968e+00  9.9999999951054619e-01  9.9999999958590957e-01  1.0000000003348957e+00  1.0000000000155640e+00  1.0000000001856955e+00  1.0000000000423495e+00  9.9999999995192235e-01  9.9999999995952304e-01  1.0000000002114835e+00  1.0000000001979537e+00  1.0000000000806792e+00  1.0000000000825535e+00  1.0000000001085572e+00  1.0000000001413796e+00  1.0000000000412046e+00  1.0000000000204501e+00  1.0000000001185811e+00  1.0000000000371427e+00  1.0000000000445231e+00  1.0000000000773313e+00  1.0000000000534126e+00  1.0000000000480069e+00  1.0000000000564606e+00  1.0000000000251401e+00  1.0000000000109568e+00  1.0000000000834628e+00  1.0000000000077944e+00  1.0000000000076950e+00  1.0000000000190006e+00  1.0000000000222427e+00  9.9999999999644240e-01  1.0000000000281717e+00  9.9999999999932532e-01  1.0000000000061857e+00  1.0000000000284692e+00  9.9999999999962852e-01  9.9999999999520850e-01  1.0000000000048066e+00  1.0000000000061537e+00  1.0000000000035993e+00  1.0000000000023033e+00  9.9999999999873868e-01  9.9999999999936673e-01  9.9999999999863687e-01  1.0000000000016604e+00  9.9999999999929157e-01  1.0000000000014990e+00  9.9999999999961930e-01  1.0000000000000993e+00  1.0000000000021452e+00  9.9999999999837608e-01  9.9999999999975098e-01  1.0000000000000440e+00  9.9999999999917455e-01  9.9999999999995093e-01  1.0000000000009113e+00  9.9999999999973899e-01  1.0000000000004756e+00  1.0000000000000775e+00  9.9999999999992806e-01  1.0000000000000895e+00  1.0000000000004097e+00  1.0000000000000284e+00  1.0000000000001279e+00  1.0000000000003519e+00  1.0000000000000862e+00  1.0000000000001579e+00  1.0000000000001454e+00  1.0000000000000819e+00  1.0000000000000588e+00  1.0000000000001752e+00  9.9999999999998979e-01  1.0000000000001377e+00  1.0000000000000004e+00  1.0000000000000324e+00  1.0000000000000677e+00  9.9999999999994704e-01  1.0000000000000577e+00  1.0000000000000207e+00  9.9999999999995859e-01  1.0000000000000722e+00  9.9999999999999645e-01  9.9999999999997446e-01  1.0000000000000344e+00  9.9999999999965150e-01  9.9999999999973899e-01  9.9999999999984635e-01  9.9999999999996692e-01  9.9999999999996236e-01  9.9999999999980582e-01  9.9999999999975331e-01  9.9999999999968037e-01  9.9999999999967004e-01  9.9999999999979572e-01  9.9999999999975031e-01  9.9999999999948652e-01  9.9999999999937661e-01  9.9999999999942302e-01  9.9999999999956013e-01  9.9999999999976696e-01  9.9999999999999345e-01  1.0000000000000009e+00  9.9999999999969424e-01  9.9999999999945710e-01  9.9999999999934641e-01  9.9999999999925360e-01  9.9999999999926192e-01  9.9999999999930667e-01  9.9999999999944023e-01  9.9999999999965128e-01  9.9999999999991196e-01  9.9999999999998157e-01  9.9999999999988654e-01  1.0000000000000109e+00  9.9999999999999123e-01  1.0000000000000187e+00  1.0000000000000351e+00  9.9999999999999589e-01  1.0000000000000102e+00  9.9999999999997946e-01  1.0000000000000320e+00  1.0000000000000027e+00  1.0000000000000453e+00  1.0000000000000098e+00  1.0000000000000169e+00  1.0000000000000144e+00  9.9999999999999345e-01  1.0000000000000431e+00  1.0000000000000193e+00  1.0000000000000520e+00  1.0000000000000520e+00  1.0000000000000111e+00  1.0000000000000793e+00  1.0000000000000449e+00  1.0000000000000671e+00  9.9999999999992417e-01  9.9999999999996569e-01  1.0000000000001872e+00  9.9999999999988531e-01  9.9999999999993949e-01  1.0000000000002340e+00  9.9999999999953626e-01  9.9999999999989053e-01  1.0000000000007090e+00  1.0000000000003808e+00  9.9999999999956679e-01  9.9999999999998079e-01  1.0000000000000568e+00  1.0000000000011509e+00  9.9999999999949307e-01  1.0000000000009281e+00  9.9999999999975842e-01  1.0000000000008542e+00  1.0000000000007288e+00  9.9999999999944222e-01  1.0000000000009543e+00  9.9999999999958755e-01  1.0000000000005833e+00  9.9999999999943301e-01  9.9999999999758304e-01  1.0000000000053146e+00  1.0000000000024469e+00  1.0000000000010525e+00  1.0000000000034888e+00  1.0000000000058906e+00  1.0000000000044167e+00  9.9999999999946920e-01  1.0000000000151799e+00  1.0000000000060720e+00  9.9999999999768219e-01  1.0000000000096505e+00  1.0000000000239602e+00  9.9999999999904066e-01  1.0000000000040095e+00  9.9999999997569233e-01  9.9999999997676581e-01  1.0000000000288227e+00  9.9999999999374645e-01  9.9999999997920686e-01  1.0000000000321536e+00  9.9999999995129962e-01  9.9999999992948285e-01  9.9999999997806988e-01  1.0000000000304932e+00  1.0000000000445259e+00  9.9999999993704514e-01  1.0000000000855243e+00  9.9999999995871258e-01  1.0000000000107563e+00  1.0000000000380231e+00  9.9999999990613953e-01  1.0000000001279004e+00  1.0000000000145604e+00  9.9999999975983878e-01  9.9999999993370747e-01  1.0000000004940430e+00  1.0000000000104234e+00  1.0000000000964866e+00  9.9999999970207354e-01  9.9999999993282762e-01  9.9999999998592115e-01  9.9999999979358245e-01  9.9999999958719721e-01  9.9999999996043498e-01  1.0000000019368021e+00  9.9999999890778080e-01  1.0000000017684598e+00  1.0000000010111412e+00  9.9999999968584763e-01  1.0000000020594999e+00  1.0000000011318220e+00  9.9999999894766523e-01  1.0000000022418549e+00  1.0000000017610833e+00  9.9999999780536930e-01  1.0000000036380992e+00  1.0000000006856866e+00  9.9999998767125475e-01  1.0000000009554626e+00  1.0000000062728891e+00  9.9999999605830525e-01  1.0000000102943372e+00  1.0000000009782026e+00  1.0000000100733819e+00  1.0000000018631476e+00  9.9999999107211301e-01  9.9999998945187485e-01  1.0000000161848741e+00  1.0000000040176706e+00  9.9999998224578124e-01  9.9999999369619941e-01  9.9999998954785363e-01  1.0000000000971769e+00  9.9999997681523278e-01  1.0000000595797176e+00  1.0000000004944967e+00  1.0000000322216038e+00  1.0000000051246563e+00  9.9999996292355264e-01  1.0000001215426908e+00  9.9999999784783766e-01  9.9999991817556977e-01  1.0000000749485904e+00  1.0000002709683151e+00  9.9999991710330594e-01  1.0000000710185859e+00  1.0000003924827170e+00  1.0000000307271188e+00  9.9999983302975570e-01  1.0000004295438756e+00  1.0000001157917102e+00  9.9999966014621244e-01  1.0000000924950523e+00  1.0000006618030644e+00  9.9999964744303038e-01  1.0000007747642272e+00  1.0000004640742886e+00  9.9999885805553879e-01  1.0000005771789884e+00  9.9999995353467108e-01  9.9999844020990625e-01  1.0000014928495056e+00  9.9999931992314151e-01  1.0000012363119095e+00  1.0000025798890695e+00  9.9999972348777499e-01  9.9999708323184822e-01  1.0000023500714954e+00  1.0000049123478163e+00  9.9999565676041802e-01  9.9999763265909014e-01  1.0000047530882075e+00  9.9999601041319386e-01  9.9999166665551642e-01  1.0000128242826338e+00  1.0000005715230711e+00  1.0000067699536610e+00  1.0000094097779406e+00  9.9999064298686524e-01  1.0000289054171760e+00  1.0000027419915396e+00  9.9998720654004492e-01  9.9999649636709487e-01  9.9998423664508118e-01  1.0000191333433608e+00  9.9997797085065032e-01  9.9998607873631673e-01  9.9997781199958868e-01  1.0000263296775413e+00  9.9999383242233719e-01  9.9995790996645439e-01  9.9998578211977285e-01  9.9995365950031367e-01  9.9990228062813935e-01  1.0002500653738871e+00  1.0000480771003653e+00  9.9992783798716656e-01  1.0000871331728023e+00  9.9996437993944109e-01  1.0000930897390263e+00  9.9992591068793846e-01  9.9977544961262910e-01  9.9987653956816758e-01  1.0000207708414908e+00  9.9959054402789616e-01  9.9943787827985375e-01  9.9995535842642258e-01  9.9894824552845185e-01  9.9975394742164791e-01  9.9972169120251897e-01  9.9806438477602111e-01  9.9795516343483948e-01  1.0000518847225521e+00  9.9961319632392542e-01  9.9644930648017283e-01  9.9741586691343020e-01  9.9708659652645049e-01  1.0039007647300551e+00  9.9723220695466597e-01  9.9415472123679416e-01  1.0023352979297473e+00  9.9518642353807141e-01  9.9639534760401871e-01  9.9580666638570392e-01  1.0013724901758323e+00  9.9277763830862031e-01  9.9225245375161353e-01  1.0002330825352497e+00  9.7863402156902046e-01  1.0137620090888917e+00  9.9289899380339242e-01  9.7416817380342735e-01  9.8664096761689868e-01  9.5933505984929734e-01  9.4409484633590302e-01  9.8970304646535978e-01  9.3699876329544085e-01  9.5399686809457063e-01  9.4830740459019103e-01  8.3928174763500729e-01  8.6368329766801044e-01  8.2392520452185192e-01  7.6579679595130090e-01  8.5195593374572409e-01  9.3237484833559303e-01  1.0446064128094701e+00  9.1376885013467068e-01  1.0482649827262740e+00  9.2997735890105793e-01  8.5544041653991154e-01  9.0091780223901330e-01  1.1546259947973103e+00  1.0640582359605606e+00  8.9271010233370940e-01  9.1819352501148088e-01  1.0971825407139384e+00  7.8416722797139038e-01  1.0602332983535874e+00  9.6748174757131222e-01  9.6344756330994197e-01  6.2057092938049396e-01  8.7267547875715479e-01  6.7837889616056324e-01  1.2882566275573084e+00  7.5275341010167895e-01  9.2210318489493137e-01  8.9314169943033450e-01  1.1050045415348184e+00  6.9978279633918583e-01  1.0065228551642500e+00  9.5292179945166244e-01  8.5716051254141734e-01  1.0881691388914287e+00  9.9326166162651652e-01  8.6042151631941510e-01  1.0033010720744950e+00  1.0057394066487588e+00  6.6612964729838298e-01  1.2655648402267214e+00  9.7272551172110366e-01  8.7371984009914649e-01  1.0122029562499884e+00  1.0657785088558980e+00  1.0197217518478157e+00  1.0407264533877272e+00  7.4402582810175077e-01  9.5260012593905730e-01  1.0860212870181392e+00  7.4951723778200385e-01  6.6965912758449309e-01  8.9476772412514982e-01  2.0490575382040149e-01  -6.5664336165735776e-02  5.4579702888078618e-02  -1.3145085246017261e-02  8.8167160325875165e-03  3.9578236517798529e-02  -2.0123886074691635e-02  1.7058924458434401e-02  2.5851401758323966e-02  -1.1154499258266363e-02  7.4518656725104954e-03  5.2389598454203271e-03  -9.3834885729563496e-03  6.5547572658979951e-03  -3.5494486313135385e-03  6.6510494668352979e-03  1.8787565291751903e-03  2.3962886990722479e-03  1.2532407522709782e-02  1.1568101791203452e-03  0.0000000000000000e+00  0.0000000000000000e+00  0.0000000000000000e+00  0.0000000000000000e+00  0.0000000000000000e+00  0.0000000000000000e+00  0.0000000000000000e+00  0.0000000000000000e+00  0.0000000000000000e+00  0.0000000000000000e+00  0.0000000000000000e+00  0.0000000000000000e+00  0.0000000000000000e+00  0.0000000000000000e+00  0.0000000000000000e+00  0.0000000000000000e+00  0.0000000000000000e+00  0.0000000000000000e+00  0.0000000000000000e+00  0.0000000000000000e+00  0.0000000000000000e+00  0.0000000000000000e+00  0.0000000000000000e+00  0.0000000000000000e+00  0.0000000000000000e+00  0.0000000000000000e+00  0.0000000000000000e+00  0.0000000000000000e+00  0.0000000000000000e+00  9.9999999851771815e-01  3.8936590660723763e-01  9.9999989812065193e-01  2.1412789038401722e-01  9.9999999997845723e-01  9.1260934265143867e-01  9.9819383287131491e-01  9.9999526270139361e-01  1.0000034499085109e+00  5.0333809080225267e-01  9.9999998493095277e-01  9.9999999977251364e-01  9.9999999990930921e-01  9.9999999376222892e-01  1.4989951847394897e-01  2.4033922716440916e-02  1.8119817896649287e-01  9.9999900162154332e-01  9.9238715646346254e-01  9.9999959269005978e-01  9.8410756405122346e-01  9.9982954159884507e-01  9.9998000293937483e-01  9.9999999999387590e-01  9.9999999999709765e-01  -2.3644561767671934e-02  -2.6837088899559998e-02  9.9997471858973175e-01  9.9908754583759674e-01  7.6441613793090946e-01  1.4702203752350751e-01  9.2858182437793602e-01  9.9999999644151949e-01  9.9999999932506245e-01  9.9999987203760399e-01  9.9999999994865429e-01  9.9999995280010567e-01  9.9999999998087508e-01  -2.1214994947479009e-02  9.9882921967627902e-01  9.9999741637702655e-01  -1.4357982970174611e-02  1.2328748932866257e-02  9.9999491622038650e-01  9.9560684641403674e-01  9.9998028992298060e-01  9.9971018777435527e-01  9.9989402758463442e-01  6.4923156629269896e-01  8.2300932875828417e-02  9.9999999918310545e-01  9.9999999829813691e-01  9.9999956402960266e-01  9.7982444364802845e-01  9.4330859218458563e-01  -2.0646963792828721e-01  1.5007002680450382e-01  9.9999999962746677e-01  9.9999999369308845e-01  9.9996125119049506e-01  -5.6398816397349874e-03  9.8867281793743489e-01  9.9999997692528830e-01  9.9999999992643385e-01  9.9999960200758375e-01  9.9999992456570030e-01  9.9989244954722578e-01  5.7180959418127064e-01  9.3791164529679805e-01  -2.0118760200528520e-02  4.7105939290685717e-01  9.9989489373426055e-01  9.9999997015757647e-01  9.9999999986344401e-01  9.9999999994911193e-01  9.9999999633894310e-01  3.8950512036675927e-01  6.4283978385596030e-01  9.9940445555028135e-01  9.9999976837171756e-01  9.9999999138565232e-01  9.9999999998841171e-01  9.9999979781865778e-01  9.9999989978049131e-01  9.9999999935067740e-01  9.9999999837160403e-01  9.8049273397204051e-01  9.9999999999523281e-01  1.0270041140396085e+00  9.9999999998691713e-01  9.9999999999873801e-01  9.9999884676866668e-01  9.6443067284429185e-01  2.1650959302776523e-02  9.9999953217846926e-01  9.9202043552529962e-01  8.5750411880602062e-01  3.8010733538362020e-02  9.9972380073460987e-01  9.9942446878394797e-01  9.9782534781352361e-01  9.9999881391893519e-01  9.9018891028900158e-01  9.9999827030610500e-01  9.9999999999762657e-01  9.9999999999963729e-01  9.9999428204319596e-01  -3.9706587635064058e-02  5.3647928930378027e-03  -3.0435135914630380e-02  2.2324026603316406e-03  9.9999378283148366e-01  1.4650238771537294e-02  9.9999999996333366e-01  9.9999997612822999e-01  9.9999131800231511e-01  9.9891911021564461e-01  8.3897052426865326e-01  1.0049650483488528e+00  9.9999999935731654e-01  9.9999999930576700e-01  9.9999999998893829e-01  9.9999999999331612e-01  9.9885519025216218e-01  9.9997641840014917e-01  1.0332188666369105e-01  9.9999996661738144e-01  9.9999999994079902e-01  9.9971104819585266e-01  1.8906448305639301e-01  2.3623236646625832e-02  1.0049594210165422e+00  9.9997091708296881e-01  9.9998009182398484e-01  9.9999613883815486e-01  8.5598017372541146e-01  9.3486445708458599e-01  9.9999999896147651e-01  9.9999999985146493e-01  8.8984510804649342e-01  9.8779090974881045e-01  2.1043266736265644e-02  9.9735872379765156e-01  9.9999991963580692e-01  9.9999998552808311e-01  5.5697999241169027e-01  9.9999999996838995e-01  9.9999765812819474e-01  9.9975073117659907e-01  9.9999999999526545e-01  9.9712690107450008e-01  9.9999947789837929e-01  -1.1388060175786699e-03  9.9999999984287058e-01  9.9999999850341614e-01  9.2690499225398326e-01  9.9926401148534816e-01  9.9999999999709899e-01  9.9999999999928291e-01  9.9999990115725734e-01  9.9999999176079513e-01  7.4603539424667686e-02  -7.4915430201821578e-02  2.1787183119636230e-02  9.9999867697223899e-01  9.9999999966816822e-01  9.9999851287545427e-01  2.2156462419327425e-02  -4.0803254250403086e-03  9.9999996969190108e-