<?xml version="1.0"?>
<VTKFile type="UnstructuredGrid"  version="0.1"  >
<UnstructuredGrid>
<Piece  NumberOfPoints="21459" NumberOfCells="42258">
<Points>
<DataArray  type="Float64"  NumberOfComponents="3"  format="ascii">0 0 0  0.77 0 0  0.77 0.15 0  0 0.15 0  0.002575250836115831 0 0  0.005150501672231662 0 0  0.007725752508347561 0 0  0.0103010033444635 0 0  0.01287625418057944 0 0  0.01545150501669537 0 0  0.01802675585281131 0 0  0.02060200668892696 0 0  0.0231772575250426 0 0  0.02575250836115786 0 0  0.02832775919727293 0 0  0.03090301003338809 0 0  0.03347826086950344 0 0  0.0360535117056188 0 0  0.03862876254173415 0 0  0.04120401337784951 0 0  0.04377926421396486 0 0  0.04635451505008022 0 0  0.04892976588619594 0 0  0.05150501672231246 0 0  0.05408026755842897 0 0  0.05665551839454548 0 0  0.059230769230662 0 0  0.06180602006677815 0 0  0.06438127090289408 0 0  0.06695652173901002 0 0  0.06953177257512595 0 0  0.07210702341124189 0 0  0.07468227424735784 0 0  0.07725752508347376 0 0  0.07983277591959044 0 0  0.08240802675570753 0 0  0.08498327759182464 0 0  0.08755852842794172 0 0  0.09013377926405881 0 0  0.0927090301001737 0 0  0.09528428093628846 0 0  0.09785953177240253 0 0  0.1004347826085162 0 0  0.1030100334446298 0 0  0.1055852842807434 0 0  0.108160535116857 0 0  0.1107357859529706 0 0  0.1133110367890842 0 0  0.1158862876251971 0 0  0.1184615384613096 0 0  0.1210367892974217 0 0  0.123612040133533 0 0  0.1261872909696443 0 0  0.1287625418057556 0 0  0.1313377926418669 0 0  0.1339130434779796 0 0  0.1364882943140932 0 0  0.1390635451502075 0 0  0.1416387959863234 0 0  0.1442140468224393 0 0  0.1467892976585553 0 0  0.1493645484946712 0 0  0.1519397993307857 0 0  0.1545150501668993 0 0  0.1570903010030123 0 0  0.1596655518391236 0 0  0.1622408026752349 0 0  0.1648160535113462 0 0  0.1673913043474575 0 0  0.1699665551835688 0 0  0.1725418060196801 0 0  0.1751170568557914 0 0  0.1776923076919027 0 0  0.180267558528014 0 0  0.1828428093641274 0 0  0.185418060200241 0 0  0.187993311036356 0 0  0.1905685618724719 0 0  0.1931438127085879 0 0  0.1957190635447038 0 0  0.1982943143808197 0 0  0.2008695652169336 0 0  0.2034448160530472 0 0  0.2060200668891594 0 0  0.2085953177252707 0 0  0.211170568561382 0 0  0.2137458193974934 0 0  0.2163210702336046 0 0  0.2188963210697159 0 0  0.2214715719058272 0 0  0.2240468227419385 0 0  0.2266220735780498 0 0  0.2291973244141617 0 0  0.2317725752502753 0 0  0.2343478260863889 0 0  0.2369230769225046 0 0  0.2394983277586206 0 0  0.2420735785947365 0 0  0.2446488294308524 0 0  0.2472240802669673 0 0  0.2497993311030786 0 0  0.2523745819391899 0 0  0.2549498327753012 0 0  0.2575250836114125 0 0  0.2601003344475263 0 0  0.2626755852836423 0 0  0.2652508361197582 0 0  0.2678260869558742 0 0  0.2704013377919901 0 0  0.272976588628106 0 0  0.275551839464222 0 0  0.2781270903003354 0 0  0.2807023411364467 0 0  0.2832775919725579 0 0  0.2858528428086692 0 0  0.2884280936447806 0 0  0.2910033444808919 0 0  0.2935785953170031 0 0  0.2961538461531145 0 0  0.2987290969892258 0 0  0.301304347825338 0 0  0.3038795986614539 0 0  0.3064548494975699 0 0  0.3090301003336858 0 0  0.3116053511698018 0 0  0.3141806020059177 0 0  0.3167558528420336 0 0  0.3193311036781486 0 0  0.3219063545142599 0 0  0.3244816053503712 0 0  0.3270568561864825 0 0  0.3296321070225938 0 0  0.3322073578587051 0 0  0.3347826086948165 0 0  0.3373578595309277 0 0  0.339933110367039 0 0  0.3425083612031504 0 0  0.3450836120392617 0 0  0.347658862875373 0 0  0.3502341137114842 0 0  0.3528093645475955 0 0  0.3553846153837077 0 0  0.3579598662198236 0 0  0.3605351170559395 0 0  0.3631103678920555 0 0  0.3656856187281714 0 0  0.3682608695642873 0 0  0.3708361204004033 0 0  0.3734113712365184 0 0  0.3759866220726297 0 0  0.378561872908741 0 0  0.3811371237448562 0 0  0.3837123745809721 0 0  0.3862876254170927 0 0  0.3888628762532179 0 0  0.3914381270893431 0 0  0.3940133779254684 0 0  0.3965886287615936 0 0  0.3991638795977189 0 0  0.401739130433844 0 0  0.4043143812699693 0 0  0.4068896321060945 0 0  0.4094648829422198 0 0  0.412040133778345 0 0  0.4146153846144702 0 0  0.4171906354505954 0 0  0.4197658862867207 0 0  0.4223411371228482 0 0  0.4249163879589781 0 0  0.4274916387951079 0 0  0.4300668896312377 0 0  0.4326421404673676 0 0  0.4352173913034975 0 0  0.4377926421396274 0 0  0.4403678929757572 0 0  0.4429431438118872 0 0  0.4455183946480163 0 0  0.4480936454841415 0 0  0.4506688963202668 0 0  0.453244147156392 0 0  0.4558193979925173 0 0  0.4583946488286424 0 0  0.4609698996647677 0 0  0.463545150500893 0 0  0.4661204013370182 0 0  0.4686956521731435 0 0  0.4712709030092686 0 0  0.4738461538453939 0 0  0.4764214046815212 0 0  0.4789966555176511 0 0  0.481571906353781 0 0  0.4841471571899109 0 0  0.4867224080260408 0 0  0.489297658862167 0 0  0.4918729096982922 0 0  0.4944481605344174 0 0  0.4970234113705426 0 0  0.4995986622066672 0 0  0.5021739130427878 0 0  0.5047491638789084 0 0  0.5073244147150326 0 0  0.5098996655511578 0 0  0.5124749163872871 0 0  0.5150501672234217 0 0  0.5176254180595552 0 0  0.5202006688956804 0 0  0.5227759197318056 0 0  0.5253511705679309 0 0  0.5279264214040561 0 0  0.5305016722401854 0 0  0.5330769230763199 0 0  0.5356521739124535 0 0  0.5382274247485787 0 0  0.5408026755847039 0 0  0.5433779264208219 0 0  0.5459531772569379 0 0  0.5485284280930578 0 0  0.5511036789291831 0 0  0.5536789297653092 0 0  0.5562541806014436 0 0  0.5588294314375781 0 0  0.5614046822737055 0 0  0.5639799331098307 0 0  0.5665551839459561 0 0  0.5691304347820813 0 0  0.5717056856182072 0 0  0.5742809364543418 0 0  0.5768561872904763 0 0  0.5794314381266108 0 0  0.5820066889627452 0 0  0.5845819397988758 0 0  0.5871571906350012 0 0  0.5897324414711264 0 0  0.5923076923072516 0 0  0.5948829431433768 0 0  0.5974581939795088 0 0  0.6000334448156434 0 0  0.6026086956517741 0 0  0.6051839464878993 0 0  0.6077591973240239 0 0  0.6103344481601398 0 0  0.6129096989962558 0 0  0.6154849498323786 0 0  0.6180602006685038 0 0  0.6206354515046327 0 0  0.6232107023407671 0 0  0.6257859531769011 0 0  0.6283612040130263 0 0  0.6309364548491515 0 0  0.6335117056852767 0 0  0.636086956521402 0 0  0.6386622073575308 0 0  0.6412374581936653 0 0  0.6438127090297993 0 0  0.6463879598659246 0 0  0.6489632107020498 0 0  0.6515384615381682 0 0  0.6541137123742842 0 0  0.6566889632104037 0 0  0.6592642140465289 0 0  0.6618394648826547 0 0  0.6644147157187892 0 0  0.6669899665549236 0 0  0.6695652173910515 0 0  0.6721404682271768 0 0  0.674715719063302 0 0  0.6772909698994272 0 0  0.6798662207355527 0 0  0.6824414715716872 0 0  0.6850167224078217 0 0  0.6875919732439497 0 0  0.6901672240800749 0 0  0.6927424749161967 0 0  0.6953177257523127 0 0  0.6978929765884289 0 0  0.7004682274245541 0 0  0.7030434782606794 0 0  0.705618729096811 0 0  0.7081939799329454 0 0  0.7107692307690766 0 0  0.7133444816052019 0 0  0.7159197324413271 0 0  0.7184949832774523 0 0  0.7210702341135775 0 0  0.7236454849497092 0 0  0.7262207357858437 0 0  0.7287959866219749 0 0  0.7313712374581001 0 0  0.7339464882942252 0 0  0.7365217391303411 0 0  0.7390969899664571 0 0  0.7416722408025793 0 0  0.7442474916387045 0 0  0.7468227424748329 0 0  0.7493979933109675 0 0  0.7519732441471019 0 0  0.7545484949832271 0 0  0.7571237458193523 0 0  0.7596989966554775 0 0  0.7622742474916027 0 0  0.764849498327731 0 0  0.7674247491638655 0 0  0.77 0.004999999999990473 0  0.77 0.009999999999980134 0  0.77 0.01499999999997245 0  0.77 0.01999999999996296 0  0.77 0.02499999999994839 0  0.77 0.02999999999993517 0  0.77 0.03499999999992059 0  0.77 0.03999999999990602 0  0.77 0.04499999999989145 0  0.77 0.04999999999987687 0  0.77 0.0549999999998623 0  0.77 0.05999999999985044 0  0.77 0.06499999999983586 0  0.77 0.06999999999982129 0  0.77 0.07499999999980943 0  0.77 0.07999999999981869 0  0.77 0.08499999999983195 0  0.77 0.08999999999984591 0  0.77 0.09499999999985989 0  0.77 0.09999999999987387 0  0.77 0.1049999999998868 0  0.77 0.1099999999998987 0  0.77 0.1149999999999134 0  0.77 0.1199999999999254 0  0.77 0.1249999999999365 0  0.77 0.1299999999999492 0  0.77 0.1349999999999592 0  0.77 0.1399999999999721 0  0.77 0.144999999999986 0  0.7674247491638934 0.15 0  0.7648494983277866 0.15 0  0.7622742474916738 0.15 0  0.7596989966555578 0.15 0  0.7571237458194419 0.15 0  0.7545484949833259 0.15 0  0.7519732441472099 0.15 0  0.7493979933110939 0.15 0  0.7468227424749779 0.15 0  0.7442474916388619 0.15 0  0.741672240802746 0.15 0  0.73909698996663 0.15 0  0.736521739130514 0.15 0  0.733946488294398 0.15 0  0.7313712374582821 0.15 0  0.7287959866221662 0.15 0  0.7262207357860502 0.15 0  0.7236454849499342 0.15 0  0.7210702341138182 0.15 0  0.7184949832777022 0.15 0  0.7159197324415862 0.15 0  0.7133444816054703 0.15 0  0.7107692307693543 0.15 0  0.7081939799332383 0.15 0  0.7056187290971223 0.15 0  0.7030434782610063 0.15 0  0.7004682274248905 0.15 0  0.6978929765887745 0.15 0  0.6953177257526585 0.15 0  0.6927424749165425 0.15 0  0.6901672240804265 0.15 0  0.6875919732443105 0.15 0  0.6850167224081946 0.15 0  0.6824414715720786 0.15 0  0.6798662207359626 0.15 0  0.6772909698998466 0.15 0  0.6747157190637306 0.15 0  0.6721404682276146 0.15 0  0.6695652173914987 0.15 0  0.6669899665553827 0.15 0  0.6644147157192668 0.15 0  0.6618394648831508 0.15 0  0.6592642140470348 0.15 0  0.6566889632109189 0.15 0  0.6541137123748029 0.15 0  0.6515384615386869 0.15 0  0.6489632107025709 0.15 0  0.6463879598664549 0.15 0  0.6438127090303389 0.15 0  0.6412374581942317 0.15 0  0.6386622073581251 0.15 0  0.6360869565220184 0.15 0  0.6335117056859116 0.15 0  0.6309364548498024 0.15 0  0.6283612040136864 0.15 0  0.6257859531775705 0.15 0  0.6232107023414633 0.15 0  0.6206354515053566 0.15 0  0.6180602006692498 0.15 0  0.6154849498331432 0.15 0  0.612909698997034 0.15 0  0.6103344481609181 0.15 0  0.607759197324802 0.15 0  0.6051839464886948 0.15 0  0.602608695652588 0.15 0  0.6000334448164814 0.15
[...]
<PointData  Scalars="concentration"> 
<DataArray  type="Float64"  Name="concentration"  format="ascii">0.0000000000000000e+00  1.3578861846199686e+00  1.3141120387060397e+00  0.0000000000000000e+00  -3.3032317492970946e-03  3.1046551858301993e-03  1.2521451928876959e-02  -6.6630103243088250e-03  4.0608781665180344e-04  2.0730489484786528e-02  -2.7280124419706113e-03  2.1352254860487838e-03  -1.2423831267564932e-02  -1.0269968657828362e-02  8.0537420638988645e-03  -6.3799640155910390e-03  -8.1025906353370987e-03  1.1322607387733448e-02  -1.9608655505603600e-02  -8.3229041227251988e-03  2.6121315729754527e-02  -2.7432266577905543e-02  1.8392382955875052e-02  -1.6725560323879542e-02  -1.1223577983665438e-02  1.3078499743881915e-02  3.1974698409204014e-02  -4.5549806394212952e-02  -3.1206426130218286e-02  4.9249696907145195e-02  -1.3930176608217552e-02  -3.6527602013995575e-02  4.6909136654935742e-02  -2.1842472819765417e-02  9.2997476829755343e-02  2.3172118267264542e-02  5.8321437167152634e-01  5.3344728981615491e-02  5.3050362299803488e-01  9.5342094205739047e-01  8.3684139713442907e-01  9.0088292770598921e-01  1.1678722496472322e+00  8.6294420074203371e-01  9.3396143364532125e-01  1.0411870509980843e+00  8.8777774151725253e-01  9.7726031458455598e-01  1.0329688106335402e+00  9.0005158424774712e-01  8.8243217739475299e-01  9.6065263259318701e-01  1.0760724022187378e+00  7.4157038880729198e-01  1.0490378147718764e+00  9.5478375707903140e-01  8.2487267697099720e-01  9.3285368974042182e-01  8.1579948176925055e-01  1.0421835938493513e+00  8.5034529220691613e-01  1.1434823268544534e+00  8.7042013149752817e-01  9.5058203353203097e-01  1.0392365035268807e+00  9.0918959780962405e-01  9.6016871513907232e-01  9.2701816291484851e-01  1.0172998400701716e+00  1.0115377119675137e+00  7.4736793956859260e-01  8.8418265161741705e-01  1.1601020519952994e+00  8.2413952210315589e-01  1.0411307811171324e+00  8.8186896124695835e-01  1.1147995334604766e+00  8.0803597900348101e-01  9.6673627800697948e-01  1.0604628304079682e+00  7.9584180377940938e-01  1.0721397064921798e+00  8.4804127870628232e-01  8.9530351891669890e-01  1.0921295103721342e+00  1.0341206274662074e+00  8.5538121366141451e-01  9.8242247117335602e-01  1.1235138382682490e+00  9.5511624764745717e-01  9.2624615985829561e-01  1.0226363732405044e+00  9.2274560939523209e-01  9.4509892561115683e-01  1.0328019961570645e+00  8.7762212608697299e-01  1.0019303194979741e+00  9.0519369716494846e-01  1.0589326209591157e+00  8.7323560719840831e-01  9.4805572102427504e-01  1.1525507224339790e+00  6.9266802499165581e-01  1.0330365661800869e+00  8.0146962161150070e-01  9.7246563149370335e-01  1.0100980322754802e+00  9.9040678194149867e-01  9.0657166691923496e-01  9.2825772732493084e-01  1.0006732996901617e+00  1.0670267185708100e+00  8.6106140999506009e-01  1.0208175046846177e+00  9.4875322259633699e-01  8.6455052466195104e-01  1.0405845979995887e+00  8.5036227710773893e-01  8.9625894964896313e-01  1.0400902295029668e+00  8.5381713235196999e-01  9.5459379771162611e-01  1.0804260518598172e+00  8.2515566983965738e-01  9.4158095184190260e-01  9.3233393966802314e-01  1.0274117499821476e+00  9.5767418383062364e-01  9.0510631429411936e-01  1.2657124472812491e+00  7.7186631577777054e-01  8.9915974789984499e-01  7.7669961887197847e-01  1.0492083721073595e+00  7.6065498035753698e-01  9.9895234088535767e-01  1.0380576880040189e+00  8.3567057540187828e-01  1.0152849374719315e+00  1.0055012220308512e+00  8.5953247363870677e-01  6.0734197878362728e-01  1.0006740248592436e+00  1.1661738983357395e+00  8.2206628671094750e-01  9.9475850868392957e-01  1.1539435330835535e+00  9.5108666848294166e-01  9.5396619516805747e-01  9.5073664548370940e-01  1.1223378344060493e+00  8.5113335848419980e-01  9.8101448863896112e-01  7.5359067139628733e-01  1.0841571466756206e+00  1.0074374074633257e+00  9.9872799178300209e-01  1.0317191938480923e+00  9.0596466735782943e-01  1.0078407884387257e+00  1.1204325638863488e+00  9.6320657030165147e-01  9.6934306729423381e-01  9.9341744170594759e-01  1.0572923782539785e+00  9.2732347213397792e-01  1.1096330648900390e+00  9.6191215350885995e-01  9.4426584944552283e-01  9.2625300644973685e-01  1.0499661398410298e+00  9.8034373197760971e-01  1.0534171493225177e+00  9.8302343268520453e-01  9.4056305189614897e-01  9.7398828917704128e-01  1.0759191061827258e+00  1.0006056435726691e+00  9.6819423844075481e-01  1.0167401765989343e+00  9.8464712624248074e-01  1.0014629899288066e+00  9.9910393815211596e-01  9.9630496371249599e-01  1.0146148188259880e+00  1.0152125034483055e+00  1.0021143280469569e+00  9.9404867408747788e-01  9.8958330467265498e-01  1.0105283156077958e+00  9.9874377995533770e-01  1.0135929772465848e+00  1.0051132044983822e+00  9.5927162141938593e-01  1.0437504997800831e+00  9.9921511595432544e-01  1.0053576214154454e+00  9.8586617600097537e-01  9.8702271272219855e-01  1.0482477522083911e+00  9.6332517592237321e-01  9.6969379558046731e-01  9.9542327368354122e-01  1.0103114867440108e+00  1.0071294385365699e+00  9.9726934079906437e-01  1.0012292353203101e+00  1.0006006414953719e+00  1.0003925744919726e+00  1.0001172649850896e+00  1.0000398618764705e+00  9.9977289206798192e-01  1.0002356982545975e+00  1.0000538303453104e+00  9.9980068977139891e-01  1.0003282406900929e+00  9.9996940971498771e-01  1.0000107062288079e+00  1.0004573034669835e+00  9.9982408794087096e-01  9.9972840598128165e-01  1.0000910186856611e+00  1.0000135540478654e+00  1.0001195586616733e+00  9.9996615278575984e-01  9.9970662280357836e-01  1.0003292255649818e+00  9.9868300226899021e-01  1.0005703113251900e+00  9.9964825009693081e-01  9.9951208691566329e-01  1.0011354578794973e+00  9.9919273225412075e-01  1.0009933537982527e+00  9.9854555970947889e-01  1.0038192852793615e+00  9.9862305019470732e-01  9.9768367959594650e-01  9.9964428400180860e-01  1.0006356564639516e+00  1.0013246289964477e+00  9.9889937615701097e-01  1.0010698077901974e+00  9.9601089010563115e-01  9.9837731272994357e-01  1.0061534047340612e+00  9.9798508190222868e-01  9.9294831603809430e-01  1.0044185148426896e+00  1.0069102182738361e+00  9.8256909288596683e-01  1.0243369140537562e+00  9.8866543663243867e-01  1.0023831639968499e+00  9.9271792851175411e-01  1.0011110339302267e+00  1.0186291851207276e+00  9.7374713100813670e-01  1.0110542468728967e+00  9.8606773195695785e-01  1.0057222492861884e+00  9.9744570456214432e-01  9.8751030851850330e-01  1.0033194677528434e+00  9.9657137666109297e-01  1.0084939539959545e+00  9.8834513016134884e-01  1.0147689527519139e+00  9.1373581051071850e-01  1.0127531092133126e+00  9.9355379959538292e-01  1.0617518371576198e+00  1.0056143513364759e+00  9.3607896055077999e-01  1.0041317362494431e+00  9.5197673988111664e-01  1.0395158594297735e+00  1.0069358943331193e+00  9.8740440568983301e-01  1.0551210895115584e+00  9.8152690326348235e-01  9.6990681769893439e-01  9.8423902048184209e-01  1.0395770592495683e+00  9.1924283970726117e-01  1.0579617828086885e+00  1.0467492587288960e+00  9.9784401260373690e-01  1.0135361947506076e+00  9.3652468579000825e-01  9.9285014424814200e-01  9.4867892840244006e-01  1.0028941448034641e+00  1.1068892809375912e+00  9.2082970715211443e-01  9.8071014069297491e-01  1.0695080665456538e+00  1.2520982361038133e+00  6.7342545167285073e-01  1.0286243273529405e+00  1.2020546155268306e+00  7.6571705349229868e-01  2.3845007133432075e-01  -6.2290153426015217e-02  2.3345221096932121e-02  -7.6016765877207019e-03  4.7676241592352353e-04  9.5344665044381138e-04  -1.4035493632817853e-03  2.3545504089512235e-03  -3.5023435358039055e-02  4.9852066046886651e-01  3.2007893512126551e-01  -6.1101510453329143e-02  4.2610614798965565e-03  -6.3512992061496368e-03  7.6302640461363025e-01  1.0488141850496842e+00  9.8611185959537973e-01  1.0051358877419827e+00  9.8878278365863315e-01  9.7691465130287269e-01  -6.9559581470723511e-02  2.1566947015220765e-02  -9.5019506871674101e-03  1.4236870143116316e-02  -4.5974468811487604e-02  6.5754799444959677e-01  -4.1421756306264317e-02  -2.9564838005305284e-02  1.9172342921090688e-01  6.5853370513263421e-01  9.6471171363850872e-01  6.2836585539703316e-01  6.2295331290215368e-02  1.3595121980295621e+00  4.5663214884389423e-02  1.5502272528031606e+00  9.1269875810769430e-01  9.6524069119481681e-01  7.7759788708317157e-01  8.1267553549744043e-01  1.3474959914343085e+00  1.0079396896836670e+00  1.3219563582097957e+00  5.7614259418374048e-01  1.1129795680241539e+00  8.3374445333969072e-01  5.4054335235410433e-01  2.4252301431291934e-01  1.1366782843646215e+00  1.2541310806294488e+00  9.4580635441890615e-01  -5.3017973650295612e-02  1.3475313653335146e+00  1.3652293062487786e+00  7.1263639529479994e-01  9.1409392354623065e-01  1.3077779407056338e+00  6.2586599513478214e-01  1.0005510092785439e+00  1.1600580395471729e+00  8.4312827884351227e-01  1.1262251788708502e+00  1.0770951060932794e+00  1.1456836316688324e+00  9.3190630880093450e-01  9.5127318377632919e-01  9.5060647238080787e-01  1.0440407419987314e+00  9.9447946684678656e-01  9.7361485337353504e-01  8.8942924547550140e-01  9.9910959536985577e-01  9.0108021768351021e-01  1.0948810142959058e+00  9.8007986955342707e-01  9.5181835581075447e-01  1.0733142035056422e+00  9.4719350113190814e-01  1.0662738213148895e+00  1.0552460143654085e+00  9.0031265738942667e-01  9.8729412086587875e-01  9.8906445977536928e-01  9.3557238145943689e-01  9.0389595326730743e-01  1.1733009544928354e+00  9.4272735698472376e-01  8.7236790168220235e-01  1.0008044077524474e+00  1.0434632814309714e+00  9.8018170955780459e-01  1.0716258407897603e+00  9.7293112249758662e-01  9.6517112579152553e-01  1.0673910531740722e+00  9.0760306004585467e-01  1.0493458100219322e+00  1.1494076464362806e+00  1.0693637942731009e+00  9.5928593560086961e-01  9.4940733173301106e-01  1.0807666141524688e+00  9.9305838033870020e-01  1.1867000296115620e+00  8.0673080494566340e-01  9.9391636858432497e-01  1.0003706373207324e+00  1.0385626793292320e+00  9.0116059996518794e-01  9.5612751553933573e-01  9.2368795751482824e-01  1.1663657716305402e+00  9.6114385353473863e-01  1.1155533228182188e+00  1.0323485148386906e+00  9.3490527058921014e-01  9.7700213761451604e-01  1.0796348143244734e+00  1.0021378314742153e+00  7.9443900675670054e-01  1.1293830394868876e+00  9.3780698238283333e-01  9.7118940471354953e-01  1.0559195738747751e+00  9.7417757287522155e-01  9.8991671562842631e-01  1.0205959486389466e+00  1.0356456845154915e+00  7.6659414791779323e-01  1.0787882276801821e+00  9.4071394448796297e-01  8.9280859140831659e-01  9.3557490981692015e-01  1.2105805842068733e+00  9.2992963588649458e-01  1.0040751252121740e+00  1.0392722502711904e+00  9.7344073264851361e-01  1.0658260199053942e+00  9.5466063809899981e-01  1.0152999998080345e+00  9.8957459211379462e-01  9.9201028275799097e-01  1.0305880227015136e+00  9.8005000695437339e-01  1.0091898804063717e+00  9.8706978581410831e-01  9.8844199988134884e-01  1.0242425038458618e+00  9.8360850753301032e-01  1.0072683763525510e+00  1.0184564891826531e+00  1.0066989795940469e+00  9.5892781760952139e-01  1.0056539808863494e+00  1.0164234826093217e+00  9.8481602236220656e-01  1.0175908512688603e+00  9.7833270263040517e-01  9.8574477293753682e-01  9.9646579864771445e-01  9.9484058581238655e-01  1.0034743921278384e+00  9.7577006028960134e-01  1.0412146188463534e+00  9.6466245840462261e-01  9.8849826218286119e-01  1.0885591840777953e+00  1.0185492466166031e+00  9.6790174846745058e-01  1.0517889172296651e+00  9.7028660052623339e-01  9.6991856888783812e-01  1.0342445375573648e+00  1.1367761059329122e+00  8.9721840501739147e-01  1.0021428831950732e+00  8.6999090135553458e-01  8.9441719233054595e-01  1.1295934204843028e+00  8.8627620873538682e-01  1.0809909612867092e+00  1.0108149338526997e+00  8.6079763315253599e-01  1.1358699539180681e+00  9.3839848856569341e-01  9.1854466729792816e-01  1.0864729272185991e+00  9.6491793903226053e-01  1.0704157232209857e+00  8.5340365859656020e-01  9.3137748057782799e-01  1.0907003325274431e+00  9.7102322961022647e-01  8.3315643426523434e-01  1.2828158406141636e+00  1.1412823901102152e+00  8.8247094572846052e-01  8.8297271203600702e-01  1.1646121698568852e+00  9.3735481911759022e-01  8.9107617487976765e-01  1.2536268240486972e+00  1.1695073204990827e+00  8.0169050113583895e-01  1.1411995118247826e+00  9.1878515278979145e-01  1.0171809931465112e+00  6.3439296349103891e-01  8.8197276931836555e-01  1.2266735161101963e+00  8.1782983765421580e-01  9.4917380640565396e-01  1.1074134567351126e+00  8.8645978066436049e-01  9.7075879106882168e-01  9.3260610434587166e-01  9.7759399881210329e-01  8.2885021202640397e-01  9.5827431581369704e-01  1.0293440345034115e+00  8.5225981650747851e-01  9.8644577227468588e-01  7.4164727595237734e-01  1.1044348898354999e+00  1.0558918052661515e+00  7.8062290652670929e-01  6.5868976338431839e-01  5.7084035335370120e-01  1.8270758302579199e-01  1.6441230729788683e-01  2.5953154042455656e-01  4.0935948099098074e-01  1.1214712481342097e+00  9.6107994556852527e-01  7.7289532101569325e-01  1.1113632091287258e+00  8.5278787668623890e-01  9.8772598514596333e-01  8.6447666576232640e-01  1.0930245295944738e+00  9.0711369181862012e-01  9.9246073155993231e-01  1.0500545571761304e+00  7.5581682458189703e-01  1.2052009780996082e+00  9.8972589337117423e-01  1.0476311074841991e+00  9.1977234813561071e-01  9.7886764417649730e-01  9.0876828433286905e-01  1.0918853942783429e+00  7.3385968815693725e-01  1.0831775862835076e+00  1.0449609913458640e+00  8.5079660217164588e-01  1.0735658619203634e+00  9.7769359914907461e-01  9.3623730974277886e-01  8.7168888385446919e-01  8.6049569906064483e-01  1.0945287931245886e+00  8.9471102149425163e-01  9.9816106867374188e-01  8.5971366331493726e-01  9.9962352159137235e-01  8.8213318937423424e-01  1.1511493590742166e+00  1.0757219307601540e+00  8.9957904630488383e-01  8.6212316165007652e-01  1.1602017329751986e+00  8.1083971346460870e-01  1.0017929999923247e+00  9.7835037182128892e-01  1.0234366625315867e+00  7.2682608860090048e-01  9.4798548757339907e-01  7.4499177356194879e-01  1.1792879312124993e+00  8.5869415251949344e-01  9.1796557501381504e-01  8.3090763042978555e-01  1.1565240579133842e+00  7.7221478736416793e-01  9.8124893705099203e-01  1.0089431374342832e+00  8.4968782689535449e-01  1.1051870033325368e+00  9.6034493653969411e-01  8.0658996474331390e-01  9.2651040945585983e-01  5.4863103105951205e-01  4.0554946361138655e-02  6.0064137852145516e-01  2.9846973237987563e-02  6.8685410943207376e-02  -1.8565619067769767e-02  4.6942736339587100e-02  -4.2183148379798273e-02  -1.1152205474000296e-02  4.8484176723776716e-02  -3.6437056008077028e-02  -5.2712599854156654e-02  2.7303602903515529e-02  1.5030173473128502e-02  5.1400299505740309e-03  -1.1869446852364874e-02  1.3217682602891348e-02  -1.1955596824592678e-02  1.9593746011648875e-02  -1.5559849524058679e-02  -7.8587902082014102e-03  1.0364824117535726e-02  -1.9185086665794410e-02  8.4622813392466333e-04  5.0194667942231389e-03  -7.1412457002776857e-03  -4.0348307531285002e-03  1.4628376577969190e-03  -3.7096437497163579e-03  6.5614642057247362e-03  -2.9553880314438373e-03  -1.1065696450470858e-03  3.3042202973557317e-03  -3.3605642011677200e-03  -3.1639035046155089e-04  0.0000000000000000e+00  0.0000000000000000e+00  0.0000000000000000e+00  0.0000000000000000e+00  0.0000000000000000e+00  0.0000000000000000e+00  0.0000000000000000e+00  0.0000000000000000e+00  0.0000000000000000e+00  0.0000000000000000e+00  0.0000000000000000e+00  0.0000000000000000e+00  0.0000000000000000e+00  0.0000000000000000e+00  0.0000000000000000e+00  0.0000000000000000e+00  0.0000000000000000e+00  0.0000000000000000e+00  0.0000000000000000e+00  0.0000000000000000e+00  0.0000000000000000e+00  0.0000000000000000e+00  0.0000000000000000e+00  0.0000000000000000e+00  0.0000000000000000e+00  0.0000000000000000e+00  0.0000000000000000e+00  0.0000000000000000e+00  0.0000000000000000e+00  -3.5808654656447926e-02  -1.6234243790295156e-04  -4.5415094219060162e-03  -2.2833313666921755e-04  2.8769445982029816e-02  -1.1477398416657406e-02  4.3152729416374165e-02  -1.4388300879592225e-02  2.2286764779783444e-01  -2.2038695368590930e-03  3.7231523444699675e-02  3.3793596980173125e-02  4.7080278226103349e-03  -2.9930078329744418e-02  4.6503055402511658e-05  2.1408921990332943e-03  -8.7331916226312449e-04  1.0356260846851093e+00  -3.0951551252671173e-02  -7.4973163700285715e-03  -5.4921915725199772e-03  2.7890412222908893e-02  3.4957054352429767e-02  1.2154998244579225e-02  4.6473472411960669e-02  -2.5717984178912766e-02  2.2468848157476493e-03  2.4284960947001312e-02  1.9511521536949145e-02  1.1285249449242828e-03  -2.1238770977422211e-04  2.3904111653372202e-02  -4.3490947202307666e-02  -5.4146834462631245e-03  3.0447194851808174e-01  3.4336944313729553e-03  -2.9224756948574643e-02  -2.8774835081892026e-03  8.3285943846357386e-04  -3.4898396862689751e-02  -2.9691297984433280e-03  -1.0033961757893891e-02  1.9114336807934379e-04  6.4744944477652819e-02  -8.6656463221288452e-03  5.3846083513981336e-03  3.6381462268038497e-02  1.5999156601585168e-02  -1.4991960627655165e-03  -1.3647960690905216e-03  -5.5928112590690722e-03  5.9966006149461404e-01  5.6410372059481108e-03  -5.9023025725122961e-03  1.8990666062919752e-03  -3.4408777904359729e-05  -9.6567546340822384e-04  1.7266094837099108e-02  -3.6339686591879444e-02  1.9820246508061187e-01  -2.8313049082406307e-02  1.8104911045541888e-02  -3.3697454135388182e-02  -2.7122827488875928e-02  -1.8811495163714238e-02  3.7383253108099437e-02  -1.2340373706930022e-01  5.8223366855919076e-06  -3.3689521079502765e-03  5.8718377361625441e-04  1.4226411841276012e-02  7.5196330724164195e-01  -1.7258688980090755e-03  1.0064724432067724e-02  1.5663040906994344e-03  9.0504670817928001e-01  -1.3742439880998100e-02  7.9931486787454900e-05  -3.9661933887426067e-02  -2.8275538924476207e-02  4.1355050457790414e-03  -1.4265230347317337e-02  -2.5769939910635895e-02  -3.4945370457556846e-03  9.0110543442308566e-01  2.8878454233208363e-03  -6.8891122196608947e-03  7.3337746343303578e-01  5.8494948225860290e-03  5.1769402696011692e-03  -2.8455543652971420e-02  -2.9254585848978640e-02  7.8806127829065351e-03  3.3216924303184719e-04  1.5168282268215184e-02  2.6182180989988719e-02  6.9548849611939748e-03  -1.1323879928183027e-02  6.2730997469837325e-03  1.9753313002891484e-02  -4.5813919943815971e-02  -6.9970665418002636e-04  -1.3693193486132500e-02  -1.8781383935456599e-03  -2.4399437539423634e-02  3.1717740671335019e-03  -2.9691025838235684e-03  -4.2944969274802007e-02  -3.0881931755808024e-03  -2.2066444973005656e-02  1.2011888176970993e-02  5.6325755163816195e-02  4.1452994704744005e-04  -2.1174416569825553e-02  -3.4328229335176034e-03  1.9558305941552147e-02  -1.0443613237359968e-02  2.2774000231631434e-03  -2.0696575808594003e-04  5.7636484487442508e-01  -1.4069240410319252e-03  1.0322082795782213e-01  4.1236069983868993e-02  1.0939955722180408e-01  3.4537120472251215e-02  -4.6620228098821109e-04  -1.7737135625772425e-02  1.6251609252738863e-01  -2.6493560927834735e-02  2.1801311395706871e-03  -1.2465501132169470e-02  -2.2066560210620614e-03  1.5739676168594900e-02  4.2563510288257049e-02  -1.2241376208699578e-02  1.1796022211573659e-02  3.0754737287745786e-02  8.5949119677165009e-03  1.0327686084105483e+00  2.8414015442800391e-02  4.6673075530087758e-03  -3.8750110623990788e-03  7.7404427571829111e-03  -1.9558656791456184e-05  3.1710091110484001e-01  1.1212372080257246e-05  1.2925618008080010e-02  -6.7520879683971288e-02  -1.7608972328302613e-01  -1.7966114128814352e-03  -1.0788513960194519e-01  3.5079069459200328e-02  -1.0594237094016014e-03  1.0867654542610919e-02  9.7518106744374633e-01  3.8428536834201163e-03  7.7178933413328696e-02  -1.5069307179893240e-01  -1.7324492887052619e-02  5.4523097514110434e-03  -1.0273109923784730e-01  5.6297693687307475e-04  -1.8407964216941284e-03  1.1847394496483209e-02  1.8129121505504318e-03  -2.7495298000131526e-0