<?xml version="1.0"?>
<VTKFile type="UnstructuredGrid"  version="0.1"  >
<UnstructuredGrid>
<Piece  NumberOfPoints="21459" NumberOfCells="42258">
<Points>
<DataArray  type="Float64"  NumberOfComponents="3"  format="ascii">0 0 0  0.77 0 0  0.77 0.15 0  0 0.15 0  0.002575250836115831 0 0  0.005150501672231662 0 0  0.007725752508347561 0 0  0.0103010033444635 0 0  0.01287625418057944 0 0  0.01545150501669537 0 0  0.01802675585281131 0 0  0.02060200668892696 0 0  0.0231772575250426 0 0  0.02575250836115786 0 0  0.02832775919727293 0 0  0.03090301003338809 0 0  0.03347826086950344 0 0  0.0360535117056188 0 0  0.03862876254173415 0 0  0.04120401337784951 0 0  0.04377926421396486 0 0  0.04635451505008022 0 0  0.04892976588619594 0 0  0.05150501672231246 0 0  0.05408026755842897 0 0  0.05665551839454548 0 0  0.059230769230662 0 0  0.06180602006677815 0 0  0.06438127090289408 0 0  0.06695652173901002 0 0  0.06953177257512595 0 0  0.07210702341124189 0 0  0.07468227424735784 0 0  0.07725752508347376 0 0  0.07983277591959044 0 0  0.08240802675570753 0 0  0.08498327759182464 0 0  0.08755852842794172 0 0  0.09013377926405881 0 0  0.0927090301001737 0 0  0.09528428093628846 0 0  0.09785953177240253 0 0  0.1004347826085162 0 0  0.1030100334446298 0 0  0.1055852842807434 0 0  0.108160535116857 0 0  0.1107357859529706 0 0  0.1133110367890842 0 0  0.1158862876251971 0 0  0.1184615384613096 0 0  0.1210367892974217 0 0  0.123612040133533 0 0  0.1261872909696443 0 0  0.1287625418057556 0 0  0.1313377926418669 0 0  0.1339130434779796 0 0  0.1364882943140932 0 0  0.1390635451502075 0 0  0.1416387959863234 0 0  0.1442140468224393 0 0  0.1467892976585553 0 0  0.1493645484946712 0 0  0.1519397993307857 0 0  0.1545150501668993 0 0  0.1570903010030123 0 0  0.1596655518391236 0 0  0.1622408026752349 0 0  0.1648160535113462 0 0  0.1673913043474575 0 0  0.1699665551835688 0 0  0.1725418060196801 0 0  0.1751170568557914 0 0  0.1776923076919027 0 0  0.180267558528014 0 0  0.1828428093641274 0 0  0.185418060200241 0 0  0.187993311036356 0 0  0.1905685618724719 0 0  0.1931438127085879 0 0  0.1957190635447038 0 0  0.1982943143808197 0 0  0.2008695652169336 0 0  0.2034448160530472 0 0  0.2060200668891594 0 0  0.2085953177252707 0 0  0.211170568561382 0 0  0.2137458193974934 0 0  0.2163210702336046 0 0  0.2188963210697159 0 0  0.2214715719058272 0 0  0.2240468227419385 0 0  0.2266220735780498 0 0  0.2291973244141617 0 0  0.2317725752502753 0 0  0.2343478260863889 0 0  0.2369230769225046 0 0  0.2394983277586206 0 0  0.2420735785947365 0 0  0.2446488294308524 0 0  0.2472240802669673 0 0  0.2497993311030786 0 0  0.2523745819391899 0 0  0.2549498327753012 0 0  0.2575250836114125 0 0  0.2601003344475263 0 0  0.2626755852836423 0 0  0.2652508361197582 0 0  0.2678260869558742 0 0  0.2704013377919901 0 0  0.272976588628106 0 0  0.275551839464222 0 0  0.2781270903003354 0 0  0.2807023411364467 0 0  0.2832775919725579 0 0  0.2858528428086692 0 0  0.2884280936447806 0 0  0.2910033444808919 0 0  0.2935785953170031 0 0  0.2961538461531145 0 0  0.2987290969892258 0 0  0.301304347825338 0 0  0.3038795986614539 0 0  0.3064548494975699 0 0  0.3090301003336858 0 0  0.3116053511698018 0 0  0.3141806020059177 0 0  0.3167558528420336 0 0  0.3193311036781486 0 0  0.3219063545142599 0 0  0.3244816053503712 0 0  0.3270568561864825 0 0  0.3296321070225938 0 0  0.3322073578587051 0 0  0.3347826086948165 0 0  0.3373578595309277 0 0  0.339933110367039 0 0  0.3425083612031504 0 0  0.3450836120392617 0 0  0.347658862875373 0 0  0.3502341137114842 0 0  0.3528093645475955 0 0  0.3553846153837077 0 0  0.3579598662198236 0 0  0.3605351170559395 0 0  0.3631103678920555 0 0  0.3656856187281714 0 0  0.3682608695642873 0 0  0.3708361204004033 0 0  0.3734113712365184 0 0  0.3759866220726297 0 0  0.378561872908741 0 0  0.3811371237448562 0 0  0.3837123745809721 0 0  0.3862876254170927 0 0  0.3888628762532179 0 0  0.3914381270893431 0 0  0.3940133779254684 0 0  0.3965886287615936 0 0  0.3991638795977189 0 0  0.401739130433844 0 0  0.4043143812699693 0 0  0.4068896321060945 0 0  0.4094648829422198 0 0  0.412040133778345 0 0  0.4146153846144702 0 0  0.4171906354505954 0 0  0.4197658862867207 0 0  0.4223411371228482 0 0  0.4249163879589781 0 0  0.4274916387951079 0 0  0.4300668896312377 0 0  0.4326421404673676 0 0  0.4352173913034975 0 0  0.4377926421396274 0 0  0.4403678929757572 0 0  0.4429431438118872 0 0  0.4455183946480163 0 0  0.4480936454841415 0 0  0.4506688963202668 0 0  0.453244147156392 0 0  0.4558193979925173 0 0  0.4583946488286424 0 0  0.4609698996647677 0 0  0.463545150500893 0 0  0.4661204013370182 0 0  0.4686956521731435 0 0  0.4712709030092686 0 0  0.4738461538453939 0 0  0.4764214046815212 0 0  0.4789966555176511 0 0  0.481571906353781 0 0  0.4841471571899109 0 0  0.4867224080260408 0 0  0.489297658862167 0 0  0.4918729096982922 0 0  0.4944481605344174 0 0  0.4970234113705426 0 0  0.4995986622066672 0 0  0.5021739130427878 0 0  0.5047491638789084 0 0  0.5073244147150326 0 0  0.5098996655511578 0 0  0.5124749163872871 0 0  0.5150501672234217 0 0  0.5176254180595552 0 0  0.5202006688956804 0 0  0.5227759197318056 0 0  0.5253511705679309 0 0  0.5279264214040561 0 0  0.5305016722401854 0 0  0.5330769230763199 0 0  0.5356521739124535 0 0  0.5382274247485787 0 0  0.5408026755847039 0 0  0.5433779264208219 0 0  0.5459531772569379 0 0  0.5485284280930578 0 0  0.5511036789291831 0 0  0.5536789297653092 0 0  0.5562541806014436 0 0  0.5588294314375781 0 0  0.5614046822737055 0 0  0.5639799331098307 0 0  0.5665551839459561 0 0  0.5691304347820813 0 0  0.5717056856182072 0 0  0.5742809364543418 0 0  0.5768561872904763 0 0  0.5794314381266108 0 0  0.5820066889627452 0 0  0.5845819397988758 0 0  0.5871571906350012 0 0  0.5897324414711264 0 0  0.5923076923072516 0 0  0.5948829431433768 0 0  0.5974581939795088 0 0  0.6000334448156434 0 0  0.6026086956517741 0 0  0.6051839464878993 0 0  0.6077591973240239 0 0  0.6103344481601398 0 0  0.6129096989962558 0 0  0.6154849498323786 0 0  0.6180602006685038 0 0  0.6206354515046327 0 0  0.6232107023407671 0 0  0.6257859531769011 0 0  0.6283612040130263 0 0  0.6309364548491515 0 0  0.6335117056852767 0 0  0.636086956521402 0 0  0.6386622073575308 0 0  0.6412374581936653 0 0  0.6438127090297993 0 0  0.6463879598659246 0 0  0.6489632107020498 0 0  0.6515384615381682 0 0  0.6541137123742842 0 0  0.6566889632104037 0 0  0.6592642140465289 0 0  0.6618394648826547 0 0  0.6644147157187892 0 0  0.6669899665549236 0 0  0.6695652173910515 0 0  0.6721404682271768 0 0  0.674715719063302 0 0  0.6772909698994272 0 0  0.6798662207355527 0 0  0.6824414715716872 0 0  0.6850167224078217 0 0  0.6875919732439497 0 0  0.6901672240800749 0 0  0.6927424749161967 0 0  0.6953177257523127 0 0  0.6978929765884289 0 0  0.7004682274245541 0 0  0.7030434782606794 0 0  0.705618729096811 0 0  0.7081939799329454 0 0  0.7107692307690766 0 0  0.7133444816052019 0 0  0.7159197324413271 0 0  0.7184949832774523 0 0  0.7210702341135775 0 0  0.7236454849497092 0 0  0.7262207357858437 0 0  0.7287959866219749 0 0  0.7313712374581001 0 0  0.7339464882942252 0 0  0.7365217391303411 0 0  0.7390969899664571 0 0  0.7416722408025793 0 0  0.7442474916387045 0 0  0.7468227424748329 0 0  0.7493979933109675 0 0  0.7519732441471019 0 0  0.7545484949832271 0 0  0.7571237458193523 0 0  0.7596989966554775 0 0  0.7622742474916027 0 0  0.764849498327731 0 0  0.7674247491638655 0 0  0.77 0.004999999999990473 0  0.77 0.009999999999980134 0  0.77 0.01499999999997245 0  0.77 0.01999999999996296 0  0.77 0.02499999999994839 0  0.77 0.02999999999993517 0  0.77 0.03499999999992059 0  0.77 0.03999999999990602 0  0.77 0.04499999999989145 0  0.77 0.04999999999987687 0  0.77 0.0549999999998623 0  0.77 0.05999999999985044 0  0.77 0.06499999999983586 0  0.77 0.06999999999982129 0  0.77 0.07499999999980943 0  0.77 0.07999999999981869 0  0.77 0.08499999999983195 0  0.77 0.08999999999984591 0  0.77 0.09499999999985989 0  0.77 0.09999999999987387 0  0.77 0.1049999999998868 0  0.77 0.1099999999998987 0  0.77 0.1149999999999134 0  0.77 0.1199999999999254 0  0.77 0.1249999999999365 0  0.77 0.1299999999999492 0  0.77 0.1349999999999592 0  0.77 0.1399999999999721 0  0.77 0.144999999999986 0  0.7674247491638934 0.15 0  0.7648494983277866 0.15 0  0.7622742474916738 0.15 0  0.7596989966555578 0.15 0  0.7571237458194419 0.15 0  0.7545484949833259 0.15 0  0.7519732441472099 0.15 0  0.7493979933110939 0.15 0  0.7468227424749779 0.15 0  0.7442474916388619 0.15 0  0.741672240802746 0.15 0  0.73909698996663 0.15 0  0.736521739130514 0.15 0  0.733946488294398 0.15 0  0.7313712374582821 0.15 0  0.7287959866221662 0.15 0  0.7262207357860502 0.15 0  0.7236454849499342 0.15 0  0.7210702341138182 0.15 0  0.7184949832777022 0.15 0  0.7159197324415862 0.15 0  0.7133444816054703 0.15 0  0.7107692307693543 0.15 0  0.7081939799332383 0.15 0  0.7056187290971223 0.15 0  0.7030434782610063 0.15 0  0.7004682274248905 0.15 0  0.6978929765887745 0.15 0  0.6953177257526585 0.15 0  0.6927424749165425 0.15 0  0.6901672240804265 0.15 0  0.6875919732443105 0.15 0  0.6850167224081946 0.15 0  0.6824414715720786 0.15 0  0.6798662207359626 0.15 0  0.6772909698998466 0.15 0  0.6747157190637306 0.15 0  0.6721404682276146 0.15 0  0.6695652173914987 0.15 0  0.6669899665553827 0.15 0  0.6644147157192668 0.15 0  0.6618394648831508 0.15 0  0.6592642140470348 0.15 0  0.6566889632109189 0.15 0  0.6541137123748029 0.15 0  0.6515384615386869 0.15 0  0.6489632107025709 0.15 0  0.6463879598664549 0.15 0  0.6438127090303389 0.15 0  0.6412374581942317 0.15 0  0.6386622073581251 0.15 0  0.6360869565220184 0.15 0  0.6335117056859116 0.15 0  0.6309364548498024 0.15 0  0.6283612040136864 0.15 0  0.6257859531775705 0.15 0  0.6232107023414633 0.15 0  0.6206354515053566 0.15 0  0.6180602006692498 0.15 0  0.6154849498331432 0.15 0  0.612909698997034 0.15 0  0.6103344481609181 0.15 0  0.607759197324802 0.15 0  0.6051839464886948 0.15 0  0.602608695652588 0.15 0  0.6000334448164814 0.15
[...]
<PointData  Scalars="concentration"> 
<DataArray  type="Float64"  Name="concentration"  format="ascii">0.0000000000000000e+00  1.3374859351303203e+00  1.3425756183454880e+00  0.0000000000000000e+00  -3.3033681828368239e-03  3.1060611975363530e-03  1.2522057319300277e-02  -6.6632934124387392e-03  4.0690512896771459e-04  2.0731027441673256e-02  -2.7273621293502398e-03  2.1355820716518472e-03  -1.2423998195445861e-02  -1.0269771010374263e-02  8.0539137637785727e-03  -6.3781931690684197e-03  -8.1011213646472024e-03  1.1322147641532630e-02  -1.9605477733905953e-02  -8.3227216506017738e-03  2.6120261850828132e-02  -2.7428046748405301e-02  1.8386801101234845e-02  -1.6717299937377486e-02  -1.1221728269841115e-02  1.3075600275962836e-02  3.1972716716134698e-02  -4.5542226734760091e-02  -3.1209985117245220e-02  4.9246782400895500e-02  -1.3924932911666632e-02  -3.6533046654946284e-02  4.6905309978393095e-02  -2.1835770566526264e-02  9.2980220947119205e-02  2.3171167609806871e-02  5.8321281424989424e-01  5.3361617735191581e-02  5.3052384757977911e-01  9.5341662749872247e-01  8.3689637851880960e-01  9.0087667110435155e-01  1.1678717694874279e+00  8.6298162945934931e-01  9.3394053538643707e-01  1.0411829075026062e+00  8.8776192170056545e-01  9.7726761529922723e-01  1.0330024499424666e+00  9.0003245291720646e-01  8.8244279803467052e-01  9.6065736975053073e-01  1.0760594410081252e+00  7.4153683370396373e-01  1.0491042439378191e+00  9.5475947219754809e-01  8.2480760950782439e-01  9.3304307653267382e-01  8.1586197481691436e-01  1.0420260442524232e+00  8.5058122777106737e-01  1.1431944745752263e+00  8.7055293839821546e-01  9.5076028233631271e-01  1.0390040879321139e+00  9.0943051786627926e-01  9.6003245358993983e-01  9.2735476450647736e-01  1.0172080620930737e+00  1.0113863263764677e+00  7.4781997192512273e-01  8.8402652565090500e-01  1.1602159615618675e+00  8.2354102836736565e-01  1.0414690206129305e+00  8.8221353111735712e-01  1.1149331651321193e+00  8.0672279751385911e-01  9.6775974571587930e-01  1.0607091672371596e+00  7.9613731330208837e-01  1.0699790751303435e+00  8.4493293698022720e-01  8.9910652589444717e-01  1.0930844051104702e+00  1.0358641213577207e+00  8.5874869008565513e-01  9.7898510644755499e-01  1.1165957240244668e+00  9.6802074478734956e-01  9.1798110803216726e-01  1.0279247472651127e+00  9.2946997241005846e-01  9.4123308628916591e-01  1.0193422772969931e+00  8.6779801899624720e-01  1.0140176440702591e+00  9.0554528597680817e-01  1.0572669268713635e+00  8.6358264837225385e-01  9.5714643091033880e-01  1.1506741427154965e+00  6.8807406176910402e-01  1.0612339912648299e+00  7.9200318083989230e-01  9.9415260737900790e-01  1.0325030345806121e+00  9.6140336305892582e-01  9.0792436666613519e-01  9.6001096081990467e-01  9.8435048518675905e-01  1.0499585339405884e+00  8.6492857631677467e-01  1.0132686334857401e+00  9.5919451444047110e-01  8.4404768068022173e-01  1.0483941121757960e+00  8.2989134163333311e-01  8.8539565656082952e-01  1.0760603879705581e+00  8.2757256321518136e-01  9.3708879056083139e-01  1.0768400143193726e+00  8.3276763319044345e-01  9.5391937423526962e-01  9.0879247236918992e-01  1.0538143032598879e+00  9.2351466374422631e-01  8.9452225467856428e-01  1.2706346792802077e+00  7.4582260652921673e-01  8.6772743300109068e-01  7.9708560870420020e-01  1.0259539513483737e+00  7.6858025039151057e-01  1.0168100352232479e+00  1.0302369633967881e+00  8.4561429605975125e-01  1.0146030844124061e+00  9.9221597317717336e-01  8.6140646438872315e-01  6.1470003386788774e-01  1.0100019355011864e+00  1.1540717921519774e+00  8.4089829434339447e-01  9.8434253291409968e-01  1.1551692404950420e+00  9.5147195280656527e-01  9.4654712402409347e-01  9.4828252745122743e-01  1.1129312331514212e+00  8.5400225453273715e-01  9.8841323787334046e-01  7.5049603177561064e-01  1.0848947552877044e+00  1.0090195642912523e+00  9.9491843517180856e-01  1.0337685915543273e+00  9.0942889916019232e-01  1.0067429117583662e+00  1.1195792149499717e+00  9.6483865296568871e-01  9.6764707827655672e-01  9.9292890130087563e-01  1.0577216636120921e+00  9.2590334841148558e-01  1.1117645870807513e+00  9.6089724323814163e-01  9.4369509481264480e-01  9.2437389870210807e-01  1.0510054340347721e+00  9.8228991025007950e-01  1.0516467036455717e+00  9.8469476371810882e-01  9.4301764203112648e-01  9.7246737974254749e-01  1.0778888822349861e+00  9.9468770802175144e-01  9.7215899132595451e-01  1.0142286694326776e+00  9.9195376464361329e-01  9.9640252316389288e-01  9.9139647228427885e-01  9.9953722475553586e-01  1.0062546440832394e+00  1.0181118822140180e+00  1.0065526234955824e+00  9.7399574806471001e-01  9.9894945485467068e-01  1.0022940887128549e+00  9.7956334318910965e-01  1.0078459331922840e+00  1.0007645618206957e+00  9.9380718978206262e-01  1.0050250694967224e+00  9.8042760485304692e-01  1.0267302476572677e+00  1.0069382239554916e+00  9.6708369008212436e-01  1.0632840479926846e+00  9.5377540255174609e-01  9.5736262456752175e-01  9.9700524510563671e-01  1.0048616005491322e+00  1.0026635606711161e+00  9.9780237673056515e-01  1.0008670493130485e+00  1.0000274220156673e+00  1.0006580529099827e+00  1.0001568443873983e+00  1.0002617985542315e+00  9.9983022983513303e-01  9.9998286330449249e-01  1.0001652418321989e+00  1.0000302196389059e+00  9.9958700139504397e-01  1.0004051679089716e+00  9.9988626358843835e-01  9.9941514497751383e-01  1.0002621763142148e+00  1.0008476279350040e+00  9.9983376532418033e-01  9.9966663777737352e-01  9.9973665155417413e-01  1.0001420880242242e+00  1.0006425587209913e+00  9.9918637319828241e-01  1.0011768908521621e+00  1.0003279313244160e+00  9.9951145044526901e-01  9.9830143363312995e-01  1.0026189847446338e+00  9.9719374011929218e-01  1.0006400541300315e+00  9.9901255733520133e-01  1.0021596462820206e+00  9.9928250034181632e-01  9.9813394307854220e-01  9.9861838564057581e-01  1.0027063998371195e+00  9.9018720157878792e-01  9.9704699331953384e-01  1.0034296520305730e+00  9.9970740698061455e-01  1.0018721394562504e+00  1.0038895338510370e+00  9.9885104452142404e-01  9.8949005836357595e-01  1.0025477618281833e+00  1.0196684644760807e+00  9.6703123594921137e-01  1.0402492824153953e+00  9.8749716557346501e-01  1.0014183670560721e+00  9.9187308723962242e-01  1.0012576811084710e+00  1.0206482676570887e+00  9.7306984695861232e-01  1.0095658775477849e+00  9.8601519537162663e-01  1.0040276901646867e+00  9.9859672221562157e-01  9.8789374686920017e-01  1.0030371326742871e+00  9.9857595151566614e-01  1.0070596103377913e+00  9.8828372131219866e-01  1.0158906433987918e+00  9.0435980572873298e-01  1.0168428854285534e+00  9.9211681872101354e-01  1.0655665955356373e+00  9.9891442435680877e-01  9.3879743415705252e-01  1.0199129795708990e+00  9.0330072332912592e-01  1.0475777179748536e+00  1.0754743069454766e+00  9.7560092342337990e-01  1.0195705797036807e+00  9.8950548757637546e-01  9.6748814568308616e-01  9.9937866625749694e-01  1.0230676120554678e+00  9.2750799514629734e-01  1.0510093743196027e+00  1.0443252582323377e+00  1.0186685511924474e+00  9.8799501565119441e-01  9.0891730510868707e-01  9.6015776628170835e-01  9.3443971582316798e-01  1.0280608489904490e+00  1.0839304427114924e+00  9.3394235693356431e-01  9.9536027270512484e-01  1.0205699300629374e+00  1.3151299765593367e+00  6.8181152885647467e-01  9.7259542517884312e-01  1.2357487471335793e+00  8.1609083690903050e-01  2.6396780365789285e-01  -8.9125183630806279e-02  5.2954411177607741e-02  -2.5160354266754097e-02  4.6758969006095208e-01  -3.6540637289165720e-02  3.7798240548345030e-03  1.4082695874819171e-02  -6.9503828102027293e-02  7.5594571626466023e-01  2.5768506136476066e-01  -5.9921887569026083e-02  5.3471661333104707e-03  -7.2762465437470241e-03  7.5919036930189343e-01  1.0477155478339450e+00  9.8431123037955481e-01  1.0082011476221826e+00  9.7853645200426864e-01  1.0723430387631869e+00  4.1653444716603389e-03  1.2320001608755380e-04  -6.5933322121669597e-03  1.5510181185972428e-02  -4.7440416793020697e-02  6.7322617399024742e-01  -2.6690616491941922e-02  -3.6556214777244418e-02  1.9286787784873657e-01  7.4921537988280185e-01  1.1214348672699730e+00  9.8113178759187036e-01  4.6354423897258296e-01  1.2379169768100398e+00  4.3638626873994481e-02  1.4760790391088365e+00  8.2294213221154255e-01  9.7417221381268237e-01  8.7878085126809835e-01  8.4043203150910528e-01  1.2930137215033983e+00  1.0189796455352393e+00  1.0310942435652064e+00  9.0174198124009208e-01  1.0142808861724466e+00  1.1135365989412995e+00  1.1155221571875731e+00  4.6902764815700315e-01  1.0663724313624514e+00  1.1640446669639117e+00  1.0890908258791476e+00  -2.2482390859014472e-02  1.2860202069796409e+00  1.3593037528866732e+00  7.0163432408651927e-01  9.3902551729448069e-01  1.2860374299719575e+00  6.7594446230493455e-01  1.0136890947365538e+00  1.1680112820680091e+00  8.2716243558953428e-01  1.1112170208291099e+00  1.1011041424048669e+00  1.1289713469845211e+00  9.3511226156375260e-01  9.4388449801432017e-01  9.6744263641298245e-01  1.0396317701244058e+00  9.8453227951807765e-01  9.7196927102675856e-01  9.0097322732804030e-01  9.9499611566231361e-01  9.0511403629892251e-01  1.0906872979000273e+00  9.8047034678795486e-01  9.5000098766930252e-01  1.0773059091024069e+00  9.4489035945265332e-01  1.0648814814896477e+00  1.0550093577694326e+00  9.0289760977949074e-01  9.8354832358737077e-01  9.8857726783582567e-01  9.3835566022977290e-01  9.0303478894125533e-01  1.1730237762939089e+00  9.4411347590347983e-01  8.7097239311289398e-01  9.9979203302882991e-01  1.0456565975385899e+00  9.7871180550276504e-01  1.0704982278357498e+00  9.7291586009364217e-01  9.6627332959837231e-01  1.0668683944865653e+00  9.0921638063730104e-01  1.0510236901457286e+00  1.1510106484026861e+00  1.0705961230120655e+00  9.5940528551645010e-01  9.4868376796268938e-01  1.0839303522559793e+00  9.9327727615101802e-01  1.1897958127145407e+00  8.0572673000200201e-01  9.9578459277230946e-01  1.0001277738251033e+00  1.0399209307122115e+00  8.9614885128195310e-01  9.5399432364456105e-01  9.2144234505176070e-01  1.1723608856471077e+00  9.5800733102030011e-01  1.1200318463167516e+00  1.0309863509433657e+00  9.3394177546557600e-01  9.7690746571569054e-01  1.0788810906281114e+00  9.9956054837603192e-01  7.8987157722781365e-01  1.1408495502382416e+00  9.2607040836070331e-01  9.7594446995205164e-01  1.0520909178119515e+00  9.6835751258311453e-01  1.0001099287757613e+00  1.0222579268614609e+00  1.0343139432466286e+00  7.6671530007800404e-01  1.0774526463414815e+00  9.3902049715983971e-01  8.9365892730275032e-01  9.4029808632866141e-01  1.2081043537706970e+00  9.3185860587499791e-01  1.0072686279913425e+00  1.0430045029948161e+00  9.6873178958504347e-01  1.0714425869796929e+00  9.4761395669164150e-01  1.0132920902223606e+00  9.9035285458534583e-01  9.9171476743241516e-01  1.0426271214673379e+00  9.6781099148350869e-01  1.0108622896712531e+00  9.8519850578881074e-01  9.8079359305227354e-01  1.0347309229879544e+00  9.7610406517931270e-01  9.9630408234362500e-01  9.9587076333369740e-01  1.0400682002280943e+00  9.4902698873304547e-01  1.0051549969439570e+00  1.0167641127561913e+00  9.7541680371395156e-01  1.0160131718980665e+00  9.8555194903455712e-01  9.8174740713448128e-01  9.9359066415363484e-01  1.0008369036447899e+00  1.0072821902588234e+00  1.0041995917343072e+00  1.0079770635277274e+00  9.9036243497715759e-01  9.6838952279151802e-01  1.0578077800114682e+00  1.0083729152526899e+00  9.8765043966142718e-01  1.0289293188706570e+00  1.0054502985507634e+00  9.3860043165669704e-01  1.0366196912416652e+00  1.1628367483406861e+00  8.2648491104648469e-01  1.1024020926798390e+00  8.1545501762088857e-01  8.9916305368077998e-01  1.1451044181992716e+00  8.5933246999938584e-01  1.0887814787075321e+00  1.0051055592981251e+00  8.5900820291474278e-01  1.1474462058329671e+00  9.4821371207936056e-01  8.9089610213678072e-01  1.1152918026337604e+00  9.5477085380661908e-01  1.0566913332707124e+00  8.4797153144446369e-01  9.2725950894476439e-01  1.0945199041059206e+00  9.7004495018531156e-01  8.2364381583200152e-01  1.3009557832125371e+00  1.1439388282488130e+00  8.7256770610245826e-01  8.8665231597044258e-01  1.1673417514016073e+00  9.3672499593258152e-01  8.8817023431937847e-01  1.2578553285751670e+00  1.1730882777515401e+00  7.9495908444122243e-01  1.1572709733996236e+00  9.5552845502241535e-01  1.0192249467890826e+00  8.0467986251625856e-01  8.9916898268308110e-01  1.0580230149290293e+00  9.5172028310102375e-01  8.1193941929101787e-01  1.1151079375581057e+00  9.1314724478811782e-01  9.6542001381840215e-01  9.1891501140839349e-01  9.8161487673371761e-01  8.4069012702793100e-01  9.5831848624742233e-01  1.0158552884564283e+00  8.5830798301241817e-01  9.8484486692553586e-01  7.3595637521992874e-01  1.1141828510573306e+00  1.0482637490879405e+00  7.7974242214574130e-01  6.6110295707825084e-01  5.7699865316426502e-01  1.7815837557137612e-01  1.6852695877916818e-01  2.5548295200785104e-01  4.1048566516253010e-01  1.1187637084114994e+00  9.6331770462577526e-01  7.6986761659590086e-01  1.1118891170265666e+00  8.5332611423770222e-01  9.8741454516903049e-01  8.6518291568580241e-01  1.0933756093891607e+00  9.0615309981016523e-01  9.9384845964563351e-01  1.0481580640378880e+00  7.5681265270272380e-01  1.2053442412840782e+00  9.8903184257332066e-01  1.0484019141063350e+00  9.1906998652823535e-01  9.7875147708956778e-01  9.0901770115768843e-01  1.0918835715142730e+00  7.3344011605022208e-01  1.0837206457409438e+00  1.0449064921525943e+00  8.5074021683741463e-01  1.0735739053546582e+00  9.7759730141195311e-01  9.3629741609639827e-01  8.7151210380862110e-01  8.6054542715795324e-01  1.0945195467248996e+00  8.9455810545249792e-01  9.9815667475442205e-01  8.5947840869734882e-01  9.9983376227250353e-01  8.8207462948759241e-01  1.1513210223654489e+00  1.0756561584457482e+00  8.9960320270317040e-01  8.6203339364956744e-01  1.1602052040626003e+00  8.1080576914216318e-01  1.0018025695949273e+00  9.7829091063183959e-01  1.0234198976277942e+00  7.2685027404665781e-01  9.4794187210006076e-01  7.4501012417775425e-01  1.1792967574488842e+00  8.5865704142893229e-01  9.1794054613417586e-01  8.3088933776917917e-01  1.1565601164447048e+00  7.7218897389319330e-01  9.8122199184333025e-01  1.0089691114479453e+00  8.4965304578527456e-01  1.1052325117603490e+00  9.6031235443280061e-01  8.0657021228463677e-01  9.2647771534838075e-01  5.4861550293724515e-01  4.0544345744943561e-02  6.0063033937570831e-01  2.9849681572010536e-02  6.8684918062782360e-02  -1.8563082799436022e-02  4.6945636940841667e-02  -4.2183888617875934e-02  -1.1150518883872093e-02  4.8484076547462868e-02  -3.6437565381230934e-02  -5.2715567355627990e-02  2.7303028502818339e-02  1.5033261516854518e-02  5.1410781584683603e-03  -1.1871452004467797e-02  1.3218983323606074e-02  -1.1955061736649749e-02  1.9592660895297615e-02  -1.5560710649538029e-02  -7.8585152749796518e-03  1.0364756890858100e-02  -1.9186913473715209e-02  8.4759004804909016e-04  5.0191605899622240e-03  -7.1415005301342198e-03  -4.0346401814516071e-03  1.4623199781795071e-03  -3.7105772835659486e-03  6.5629458872539905e-03  -2.9561424750754839e-03  -1.1061352888060505e-03  3.3050941905216542e-03  -3.3607347358715197e-03  -3.1601254720531059e-04  0.0000000000000000e+00  0.0000000000000000e+00  0.0000000000000000e+00  0.0000000000000000e+00  0.0000000000000000e+00  0.0000000000000000e+00  0.0000000000000000e+00  0.0000000000000000e+00  0.0000000000000000e+00  0.0000000000000000e+00  0.0000000000000000e+00  0.0000000000000000e+00  0.0000000000000000e+00  0.0000000000000000e+00  0.0000000000000000e+00  0.0000000000000000e+00  0.0000000000000000e+00  0.0000000000000000e+00  0.0000000000000000e+00  0.0000000000000000e+00  0.0000000000000000e+00  0.0000000000000000e+00  0.0000000000000000e+00  0.0000000000000000e+00  0.0000000000000000e+00  0.0000000000000000e+00  0.0000000000000000e+00  0.0000000000000000e+00  0.0000000000000000e+00  -8.8551838975154482e-03  -1.4884226774457239e-04  5.0898176820172976e-03  -2.2805249809496384e-04  -7.5672512006652471e-03  -4.7765073269692062e-03  3.5715926766545759e-02  -9.3064860527531882e-03  1.6667605009691167e-01  -3.3687482902335269e-03  -5.0589523783901068e-03  3.7848364213564717e-02  5.3305092697604160e-03  -1.2104047454169670e-02  4.0565728577526247e-04  2.1224679528081282e-03  -8.2165708718136418e-04  9.4577881945876319e-01  -4.5659249785218160e-02  -8.2331628710780366e-03  -2.0152408571311726e-03  2.5714711089997871e-02  5.9942420061747978e-02  7.1493777315021309e-02  1.9936749351530725e-02  -2.5691200974862140e-02  2.2471467887805463e-03  2.2737884803095593e-02  2.5173417558539680e-02  1.0088829805626949e-03  -6.7489948799948876e-04  1.2486636021552122e-02  -6.3355023905508803e-02  -4.0898313478883444e-03  -4.1470183996722719e-02  -3.4106081201462600e-03  -6.7964479398629651e-02  1.1489480579896852e-03  7.5980483704680426e-04  1.1459201594047458e-02  1.8461224607125432e-03  -1.0027157144374861e-02  1.9068846159554114e-04  6.2169825706609685e-02  -2.2749027993130260e-03  1.1311502109272551e-03  -3.0973249046192978e-02  -1.5881055827991916e-02  -3.2003670000468895e-05  -1.6047505886876792e-03  -2.0069617570732876e-03  6.0920585354876121e-02  1.2184557301431167e-04  7.5759078943553413e-03  9.9504423000861572e-04  -7.5875784189858192e-05  -2.2013469653611335e-04  3.3480373811691312e-02  1.8464566875315811e-02  5.1189242554061092e-02  -2.8315534826354620e-02  6.4165289993946453e-02  1.4322609438243277e-02  -3.1237724027954668e-02  -6.8863976418461842e-02  1.5450431273407653e-02  -1.3012800966853295e-02  5.2869050490923500e-05  -6.4600913697903273e-04  5.9213779923781153e-04  1.4083845359522569e-02  7.4517065561758100e-01  -2.0122372387574427e-03  1.8087979969354916e-02  -8.5162707174383178e-04  1.0105960768301347e+00  -1.3825615546251170e-02  9.4960486273672156e-06  9.3642698651974707e-02  -5.3451995854858700e-03  -6.7591422327946942e-03  -5.5040802562584005e-03  -1.3282491564684791e-02  -1.8264012810892793e-02  9.2990530530979554e-01  5.2197697437954523e-03  2.8756436571780622e-03  7.6582515671713980e-01  5.0953121536623141e-03  -6.8679416246755595e-02  -6.5525709609779645e-02  -1.7775339073939685e-02  4.3063533627583587e-03  4.2147532946029741e-04  -7.9647414716833235e-03  1.2341394136202789e-02  6.9570822224773688e-03  -1.1364771773103211e-02  4.1849718443878504e-03  1.4523442962690175e-02  -5.1916991223781905e-02  -6.0602415724287937e-03  -9.3335795526740106e-03  -4.9803146286311736e-03  -7.6052920245716957e-02  -4.2873778352065628e-02  -1.4723794648454332e-03  -4.2939402009086074e-02  -3.0887328245646438e-03  -2.2060287927573308e-02  1.2015104980177367e-02  -2.9508243461008811e-02  4.1992313783249135e-04  -1.5305612510892115e-02  -2.9318989554954476e-03  1.3093367609743390e-03  -1.1874017587525734e-02  4.1121978798192948e-04  -2.3518246086569832e-04  9.7265340872326733e-01  6.1586346503515309e-03  5.7959429537012552e-01  4.1799739782756418e-02  2.6142487317287553e-02  2.4065041329439891e-02  3.6899946409182227e-04  -1.9676312277490067e-02  1.6137516144979669e-01  -1.3678735812221876e-02  2.1824150476355709e-03  -1.2466435113904231e-02  -3.2154240485112481e-03  3.3023787622012534e-03  9.2251161236616530e-02  -6.0451155114866519e-03  1.1689917007799948e-02  3.0689559215443713e-02  9.8590890634001008e-03  3.7148698036048255e-01  2.8391630873378738e-02  5.5011281400066435e-03  -3.8350393392748900e-03  -5.9943378566829171e-03  -1.5590023891919226e-02  8.8681371057042890e-01  1.2506476834674052e-03  -9.2602082919958240e-03  4.6355886877104496e-01  -5.3073827706366740e-02  -8.3782661376762199e-03  -8.0571746667566169e-02  2.5608498531701177e-02  -1.3075372142646771e-03  1.2392491683463958e-02  9.9960047580319811e-01  2.7125135761724081e-03  2.8702309860906418e-02  -1.3974863090663991e-01  -8.8204464931111615e-02  7.5599527269647714e-03  -1.4324695838540022e-01  6.6055689558099551e-04  -1.8445094519010015e-03  1.1842339685749503e-02  3.0696420838959471e-03  -3.6028847946519139e-