<?xml version="1.0"?>
<VTKFile type="UnstructuredGrid"  version="0.1"  >
<UnstructuredGrid>
<Piece  NumberOfPoints="21459" NumberOfCells="42258">
<Points>
<DataArray  type="Float64"  NumberOfComponents="3"  format="ascii">0 0 0  0.77 0 0  0.77 0.15 0  0 0.15 0  0.002575250836115831 0 0  0.005150501672231662 0 0  0.007725752508347561 0 0  0.0103010033444635 0 0  0.01287625418057944 0 0  0.01545150501669537 0 0  0.01802675585281131 0 0  0.02060200668892696 0 0  0.0231772575250426 0 0  0.02575250836115786 0 0  0.02832775919727293 0 0  0.03090301003338809 0 0  0.03347826086950344 0 0  0.0360535117056188 0 0  0.03862876254173415 0 0  0.04120401337784951 0 0  0.04377926421396486 0 0  0.04635451505008022 0 0  0.04892976588619594 0 0  0.05150501672231246 0 0  0.05408026755842897 0 0  0.05665551839454548 0 0  0.059230769230662 0 0  0.06180602006677815 0 0  0.06438127090289408 0 0  0.06695652173901002 0 0  0.06953177257512595 0 0  0.07210702341124189 0 0  0.07468227424735784 0 0  0.07725752508347376 0 0  0.07983277591959044 0 0  0.08240802675570753 0 0  0.08498327759182464 0 0  0.08755852842794172 0 0  0.09013377926405881 0 0  0.0927090301001737 0 0  0.09528428093628846 0 0  0.09785953177240253 0 0  0.1004347826085162 0 0  0.1030100334446298 0 0  0.1055852842807434 0 0  0.108160535116857 0 0  0.1107357859529706 0 0  0.1133110367890842 0 0  0.1158862876251971 0 0  0.1184615384613096 0 0  0.1210367892974217 0 0  0.123612040133533 0 0  0.1261872909696443 0 0  0.1287625418057556 0 0  0.1313377926418669 0 0  0.1339130434779796 0 0  0.1364882943140932 0 0  0.1390635451502075 0 0  0.1416387959863234 0 0  0.1442140468224393 0 0  0.1467892976585553 0 0  0.1493645484946712 0 0  0.1519397993307857 0 0  0.1545150501668993 0 0  0.1570903010030123 0 0  0.1596655518391236 0 0  0.1622408026752349 0 0  0.1648160535113462 0 0  0.1673913043474575 0 0  0.1699665551835688 0 0  0.1725418060196801 0 0  0.1751170568557914 0 0  0.1776923076919027 0 0  0.180267558528014 0 0  0.1828428093641274 0 0  0.185418060200241 0 0  0.187993311036356 0 0  0.1905685618724719 0 0  0.1931438127085879 0 0  0.1957190635447038 0 0  0.1982943143808197 0 0  0.2008695652169336 0 0  0.2034448160530472 0 0  0.2060200668891594 0 0  0.2085953177252707 0 0  0.211170568561382 0 0  0.2137458193974934 0 0  0.2163210702336046 0 0  0.2188963210697159 0 0  0.2214715719058272 0 0  0.2240468227419385 0 0  0.2266220735780498 0 0  0.2291973244141617 0 0  0.2317725752502753 0 0  0.2343478260863889 0 0  0.2369230769225046 0 0  0.2394983277586206 0 0  0.2420735785947365 0 0  0.2446488294308524 0 0  0.2472240802669673 0 0  0.2497993311030786 0 0  0.2523745819391899 0 0  0.2549498327753012 0 0  0.2575250836114125 0 0  0.2601003344475263 0 0  0.2626755852836423 0 0  0.2652508361197582 0 0  0.2678260869558742 0 0  0.2704013377919901 0 0  0.272976588628106 0 0  0.275551839464222 0 0  0.2781270903003354 0 0  0.2807023411364467 0 0  0.2832775919725579 0 0  0.2858528428086692 0 0  0.2884280936447806 0 0  0.2910033444808919 0 0  0.2935785953170031 0 0  0.2961538461531145 0 0  0.2987290969892258 0 0  0.301304347825338 0 0  0.3038795986614539 0 0  0.3064548494975699 0 0  0.3090301003336858 0 0  0.3116053511698018 0 0  0.3141806020059177 0 0  0.3167558528420336 0 0  0.3193311036781486 0 0  0.3219063545142599 0 0  0.3244816053503712 0 0  0.3270568561864825 0 0  0.3296321070225938 0 0  0.3322073578587051 0 0  0.3347826086948165 0 0  0.3373578595309277 0 0  0.339933110367039 0 0  0.3425083612031504 0 0  0.3450836120392617 0 0  0.347658862875373 0 0  0.3502341137114842 0 0  0.3528093645475955 0 0  0.3553846153837077 0 0  0.3579598662198236 0 0  0.3605351170559395 0 0  0.3631103678920555 0 0  0.3656856187281714 0 0  0.3682608695642873 0 0  0.3708361204004033 0 0  0.3734113712365184 0 0  0.3759866220726297 0 0  0.378561872908741 0 0  0.3811371237448562 0 0  0.3837123745809721 0 0  0.3862876254170927 0 0  0.3888628762532179 0 0  0.3914381270893431 0 0  0.3940133779254684 0 0  0.3965886287615936 0 0  0.3991638795977189 0 0  0.401739130433844 0 0  0.4043143812699693 0 0  0.4068896321060945 0 0  0.4094648829422198 0 0  0.412040133778345 0 0  0.4146153846144702 0 0  0.4171906354505954 0 0  0.4197658862867207 0 0  0.4223411371228482 0 0  0.4249163879589781 0 0  0.4274916387951079 0 0  0.4300668896312377 0 0  0.4326421404673676 0 0  0.4352173913034975 0 0  0.4377926421396274 0 0  0.4403678929757572 0 0  0.4429431438118872 0 0  0.4455183946480163 0 0  0.4480936454841415 0 0  0.4506688963202668 0 0  0.453244147156392 0 0  0.4558193979925173 0 0  0.4583946488286424 0 0  0.4609698996647677 0 0  0.463545150500893 0 0  0.4661204013370182 0 0  0.4686956521731435 0 0  0.4712709030092686 0 0  0.4738461538453939 0 0  0.4764214046815212 0 0  0.4789966555176511 0 0  0.481571906353781 0 0  0.4841471571899109 0 0  0.4867224080260408 0 0  0.489297658862167 0 0  0.4918729096982922 0 0  0.4944481605344174 0 0  0.4970234113705426 0 0  0.4995986622066672 0 0  0.5021739130427878 0 0  0.5047491638789084 0 0  0.5073244147150326 0 0  0.5098996655511578 0 0  0.5124749163872871 0 0  0.5150501672234217 0 0  0.5176254180595552 0 0  0.5202006688956804 0 0  0.5227759197318056 0 0  0.5253511705679309 0 0  0.5279264214040561 0 0  0.5305016722401854 0 0  0.5330769230763199 0 0  0.5356521739124535 0 0  0.5382274247485787 0 0  0.5408026755847039 0 0  0.5433779264208219 0 0  0.5459531772569379 0 0  0.5485284280930578 0 0  0.5511036789291831 0 0  0.5536789297653092 0 0  0.5562541806014436 0 0  0.5588294314375781 0 0  0.5614046822737055 0 0  0.5639799331098307 0 0  0.5665551839459561 0 0  0.5691304347820813 0 0  0.5717056856182072 0 0  0.5742809364543418 0 0  0.5768561872904763 0 0  0.5794314381266108 0 0  0.5820066889627452 0 0  0.5845819397988758 0 0  0.5871571906350012 0 0  0.5897324414711264 0 0  0.5923076923072516 0 0  0.5948829431433768 0 0  0.5974581939795088 0 0  0.6000334448156434 0 0  0.6026086956517741 0 0  0.6051839464878993 0 0  0.6077591973240239 0 0  0.6103344481601398 0 0  0.6129096989962558 0 0  0.6154849498323786 0 0  0.6180602006685038 0 0  0.6206354515046327 0 0  0.6232107023407671 0 0  0.6257859531769011 0 0  0.6283612040130263 0 0  0.6309364548491515 0 0  0.6335117056852767 0 0  0.636086956521402 0 0  0.6386622073575308 0 0  0.6412374581936653 0 0  0.6438127090297993 0 0  0.6463879598659246 0 0  0.6489632107020498 0 0  0.6515384615381682 0 0  0.6541137123742842 0 0  0.6566889632104037 0 0  0.6592642140465289 0 0  0.6618394648826547 0 0  0.6644147157187892 0 0  0.6669899665549236 0 0  0.6695652173910515 0 0  0.6721404682271768 0 0  0.674715719063302 0 0  0.6772909698994272 0 0  0.6798662207355527 0 0  0.6824414715716872 0 0  0.6850167224078217 0 0  0.6875919732439497 0 0  0.6901672240800749 0 0  0.6927424749161967 0 0  0.6953177257523127 0 0  0.6978929765884289 0 0  0.7004682274245541 0 0  0.7030434782606794 0 0  0.705618729096811 0 0  0.7081939799329454 0 0  0.7107692307690766 0 0  0.7133444816052019 0 0  0.7159197324413271 0 0  0.7184949832774523 0 0  0.7210702341135775 0 0  0.7236454849497092 0 0  0.7262207357858437 0 0  0.7287959866219749 0 0  0.7313712374581001 0 0  0.7339464882942252 0 0  0.7365217391303411 0 0  0.7390969899664571 0 0  0.7416722408025793 0 0  0.7442474916387045 0 0  0.7468227424748329 0 0  0.7493979933109675 0 0  0.7519732441471019 0 0  0.7545484949832271 0 0  0.7571237458193523 0 0  0.7596989966554775 0 0  0.7622742474916027 0 0  0.764849498327731 0 0  0.7674247491638655 0 0  0.77 0.004999999999990473 0  0.77 0.009999999999980134 0  0.77 0.01499999999997245 0  0.77 0.01999999999996296 0  0.77 0.02499999999994839 0  0.77 0.02999999999993517 0  0.77 0.03499999999992059 0  0.77 0.03999999999990602 0  0.77 0.04499999999989145 0  0.77 0.04999999999987687 0  0.77 0.0549999999998623 0  0.77 0.05999999999985044 0  0.77 0.06499999999983586 0  0.77 0.06999999999982129 0  0.77 0.07499999999980943 0  0.77 0.07999999999981869 0  0.77 0.08499999999983195 0  0.77 0.08999999999984591 0  0.77 0.09499999999985989 0  0.77 0.09999999999987387 0  0.77 0.1049999999998868 0  0.77 0.1099999999998987 0  0.77 0.1149999999999134 0  0.77 0.1199999999999254 0  0.77 0.1249999999999365 0  0.77 0.1299999999999492 0  0.77 0.1349999999999592 0  0.77 0.1399999999999721 0  0.77 0.144999999999986 0  0.7674247491638934 0.15 0  0.7648494983277866 0.15 0  0.7622742474916738 0.15 0  0.7596989966555578 0.15 0  0.7571237458194419 0.15 0  0.7545484949833259 0.15 0  0.7519732441472099 0.15 0  0.7493979933110939 0.15 0  0.7468227424749779 0.15 0  0.7442474916388619 0.15 0  0.741672240802746 0.15 0  0.73909698996663 0.15 0  0.736521739130514 0.15 0  0.733946488294398 0.15 0  0.7313712374582821 0.15 0  0.7287959866221662 0.15 0  0.7262207357860502 0.15 0  0.7236454849499342 0.15 0  0.7210702341138182 0.15 0  0.7184949832777022 0.15 0  0.7159197324415862 0.15 0  0.7133444816054703 0.15 0  0.7107692307693543 0.15 0  0.7081939799332383 0.15 0  0.7056187290971223 0.15 0  0.7030434782610063 0.15 0  0.7004682274248905 0.15 0  0.6978929765887745 0.15 0  0.6953177257526585 0.15 0  0.6927424749165425 0.15 0  0.6901672240804265 0.15 0  0.6875919732443105 0.15 0  0.6850167224081946 0.15 0  0.6824414715720786 0.15 0  0.6798662207359626 0.15 0  0.6772909698998466 0.15 0  0.6747157190637306 0.15 0  0.6721404682276146 0.15 0  0.6695652173914987 0.15 0  0.6669899665553827 0.15 0  0.6644147157192668 0.15 0  0.6618394648831508 0.15 0  0.6592642140470348 0.15 0  0.6566889632109189 0.15 0  0.6541137123748029 0.15 0  0.6515384615386869 0.15 0  0.6489632107025709 0.15 0  0.6463879598664549 0.15 0  0.6438127090303389 0.15 0  0.6412374581942317 0.15 0  0.6386622073581251 0.15 0  0.6360869565220184 0.15 0  0.6335117056859116 0.15 0  0.6309364548498024 0.15 0  0.6283612040136864 0.15 0  0.6257859531775705 0.15 0  0.6232107023414633 0.15 0  0.6206354515053566 0.15 0  0.6180602006692498 0.15 0  0.6154849498331432 0.15 0  0.612909698997034 0.15 0  0.6103344481609181 0.15 0  0.607759197324802 0.15 0  0.6051839464886948 0.15 0  0.602608695652588 0.15 0  0.6000334448164814 0.15
[...]
<PointData  Scalars="pressure"> 
<DataArray  type="Float64"  Name="pressure"  format="ascii">2.8885051654849551e+04  6.4923559876287307e+00  6.4925913210333528e+00  2.8882494359915738e+04  2.8867493388610153e+04  2.8849447374867432e+04  2.8833145442596960e+04  2.8817308582782687e+04  2.8800365057032912e+04  2.8784481171271491e+04  2.8768492954207082e+04  2.8752476437573332e+04  2.8735941261072137e+04  2.8720481996813185e+04  2.8703214254678751e+04  2.8687307212242467e+04  2.8672070961385045e+04  2.8655971692641433e+04  2.8641048998809427e+04  2.8626778159718579e+04  2.0842728014232980e+04  2.0828086326648023e+04  2.0812422051504527e+04  2.0800692393808848e+04  2.0787131594029699e+04  2.0775385591220980e+04  2.0762894645509961e+04  2.0749397747590585e+04  2.0740185836872846e+04  2.0726586505213279e+04  2.0711735629464234e+04  2.0696953620341257e+04  2.0687504576709114e+04  2.0673441189440600e+04  2.0662917871534479e+04  2.0646380518364396e+04  2.0634833193303504e+04  2.0623117983719323e+04  2.0607381164253537e+04  2.0595077550670107e+04  2.0583644799590646e+04  2.0567609768849186e+04  2.0556928508448796e+04  2.0543278473009690e+04  2.0529102389077587e+04  2.0513115820273531e+04  2.0501653657878076e+04  2.0483147908293511e+04  2.0465981515560288e+04  2.0452581016961776e+04  2.0432110724493839e+04  2.0413748698843465e+04  2.0392179627202011e+04  2.0377033939607303e+04  2.0353164102713868e+04  2.0338317875742196e+04  2.0319632252771495e+04  2.0295582433912168e+04  2.0280393409588298e+04  2.0258869797796247e+04  2.0240201930377913e+04  2.0222713481716299e+04  2.0206861707141346e+04  2.0185030341120426e+04  2.0160640658133867e+04  2.0089251570466626e+04  2.0004473982934880e+04  1.9914111260974936e+04  1.9823829033381702e+04  1.9737950471916985e+04  1.9652698313811306e+04  1.9567026804559711e+04  1.9479866651121443e+04  1.9399568428118273e+04  1.9314893765164983e+04  1.9233127822754235e+04  1.9151590680059006e+04  1.9067213884563138e+04  1.8982316179718066e+04  1.8901511228558775e+04  1.8819235472495060e+04  1.8732792350136489e+04  1.8654084598470850e+04  1.8567642906998895e+04  1.8480801896130575e+04  1.8401130523487740e+04  1.8316706062311743e+04  1.8233218174921243e+04  1.8147570786180517e+04  1.8067315793528025e+04  1.7980707776027331e+04  1.7894314688150269e+04  1.7812749548563272e+04  1.7729805463839439e+04  1.7642922743020408e+04  1.7562074004367547e+04  1.7474990103208449e+04  1.7390837341284438e+04  1.7304098633413811e+04  1.7224270998064825e+04  1.7137505515529479e+04  1.7052839521671518e+04  1.6968957017519217e+04  1.6885505527292102e+04  1.6801260651524321e+04  1.6713525728234890e+04  1.6632527808701394e+04  1.6548289201034666e+04  1.6463786989519442e+04  1.6375758249439175e+04  1.6291753556050637e+04  1.6204885352947733e+04  1.6124494557705182e+04  1.6036753005318858e+04  1.5953344629230129e+04  1.5869180522250599e+04  1.5782168395120994e+04  1.5702491026277376e+04  1.5615236230871937e+04  1.5527779004676764e+04  1.5447841740672158e+04  1.5360508994179630e+04  1.5274955086957238e+04  1.5192559400265816e+04  1.5103308133149563e+04  1.5021922293145604e+04  1.4934859650093942e+04  1.4851566762755880e+04  1.4764685019217035e+04  1.4680837732688684e+04  1.4596618958373401e+04  1.4511208535330250e+04  1.4430159176465664e+04  1.4342310870156345e+04  1.4256640466848276e+04  1.4171072905535051e+04  1.4088099022139855e+04  1.4002782875677225e+04  1.3917768843175076e+04  1.3833372051183704e+04  1.3748357381146834e+04  1.3664176899979428e+04  1.3582641165841866e+04  1.3495596797293396e+04  1.3408123311129732e+04  1.3325916557054114e+04  1.3236245451111774e+04  1.3157292994027883e+04  1.3070257248800992e+04  1.2981705622212390e+04  1.2898257350893209e+04  1.2817297326026306e+04  1.2727939049317838e+04  1.2646890823569092e+04  1.2561948102837323e+04  1.2474070415445578e+04  1.2394033333416175e+04  1.2307203161531545e+04  1.2219290086980516e+04  1.2138054177712476e+04  1.2049693824170576e+04  1.1966888643052449e+04  1.1882732736454896e+04  1.1795130183085537e+04  1.1715049870009476e+04  1.1627948485805342e+04  1.1540505565135734e+04  1.1458370638043885e+04  1.1372390350260648e+04  1.1287811520094067e+04  1.1204231810787909e+04  1.1119870101023513e+04  1.1032445215345782e+04  1.0949636066823052e+04  1.0860583691130574e+04  1.0779877638122236e+04  1.0693728904958174e+04  1.0609142801512291e+04  1.0525195517942766e+04  1.0441343437585921e+04  1.0353542022616753e+04  1.0268894225241133e+04  1.0185711400931506e+04  1.0103151746076484e+04  1.0015293421740142e+04  9.9282392881667147e+03  9.8477439962589506e+03  9.7584521773044216e+03  9.6745271503315307e+03  9.5938348679231822e+03  9.5044149577622720e+03  9.4224731318183476e+03  9.3348461099119777e+03  9.2490969690501533e+03  9.1662807128908480e+03  9.0833687209129384e+03  8.9988194476819735e+03  8.9099610477377573e+03  8.8286431227141711e+03  8.7404506387257607e+03  8.6584683674880634e+03  8.5707855721291617e+03  8.4902406293396416e+03  8.4034932766136117e+03  8.3157531387695763e+03  8.2333863410086306e+03  8.1470694524745977e+03  8.0634441927698917e+03  7.9810511540689386e+03  7.8906227419844699e+03  7.8065476072405227e+03  7.7253396210143346e+03  7.6380900545485219e+03  7.5532680567240559e+03  7.4674530274430199e+03  7.3868917655116238e+03  7.2975475008757994e+03  7.2130393054215647e+03  7.1296098728307015e+03  7.0451024918869116e+03  6.9581533768181316e+03  6.8782834739405198e+03  6.7922999004873682e+03  6.7038655172346116e+03  6.6171311496014232e+03  6.5366679411095556e+03  6.4495514571542435e+03  6.3683674181708939e+03  6.2811103284769642e+03  6.1928557185395157e+03  6.1118328176724863e+03  6.0239438197626541e+03  5.9407651525063520e+03  5.8578911381486669e+03  5.7707675898689704e+03  5.6893257602441336e+03  5.6005761915710982e+03  5.5140194229090202e+03  5.4337706303799423e+03  5.3467546290957762e+03  5.2630739752517075e+03  5.1755827230316863e+03  5.0918268202108857e+03  5.0047806792977835e+03  4.9246585690804905e+03  4.8361630140587358e+03  4.7532237884244523e+03  4.6682783877209886e+03  4.5829588797408724e+03  4.4981243074814274e+03  4.4119290138779506e+03  4.3294557652567928e+03  4.2430851740569124e+03  4.1605460579136734e+03  4.0742674786572015e+03  3.9854867444278843e+03  3.9019905030643163e+03  3.8209871657742401e+03  3.7338718886691372e+03  3.6497125728034557e+03  3.5645777283174543e+03  3.4813423783947105e+03  3.3937509999895165e+03  3.3097745766009907e+03  3.2248904387576854e+03  3.1413155244911868e+03  3.0568883434052550e+03  2.9696286722051400e+03  2.8857353371507838e+03  2.8012214400144098e+03  2.7167995142644618e+03  2.6292451607918097e+03  2.5486144973448581e+03  2.4610570338551479e+03  2.3764978480632890e+03  2.2907621690586661e+03  2.2098987283230740e+03  2.1201463959681892e+03  2.0392944479247267e+03  1.9516471796245742e+03  1.8686051253177213e+03  1.7811973285690533e+03  1.6988582087771529e+03  1.6134847203036231e+03  1.5283301277984767e+03  1.4448029826196705e+03  1.3580122798464931e+03  1.2765428790702106e+03  1.1890753069358921e+03  1.1037454953729791e+03  1.0184843809246074e+03  9.3818268243128728e+02  8.5129176254995753e+02  7.6281112110367951e+02  6.8182844063398159e+02  5.9351651544162019e+02  5.0777908986279192e+02  4.2689524564292890e+02  3.3924511435620315e+02  2.5670928650198522e+02  1.7288764389457421e+02  8.3018757692023570e+01  -1.7960412713293814e+00  3.3841438862947337e-01  -7.2383703842708910e-02  1.2722961009248039e-02  -2.9036585919969271e-03  1.9149201568586869e-03  -1.6023173884510548e-04  -8.2296198324934163e-04  2.5318299932110819e-04  2.0407587181134568e-04  -3.6674538813479716e-05  3.0982740881097543e-05  7.0517840351101235e-05  -1.7251374039738135e-05  8.5328847470775915e-06  2.2578610769233257e-05  -5.6126015964315906e-05  -4.3876747228248147e-05  -1.2638977443832663e-05  1.9767330542140815e-04  3.0561466952787515e-04  -7.8629530292182999e-04  -1.7107925274893510e-04  1.9430160536866943e-03  -2.8939498258996983e-03  1.2679592078074172e-02  -7.2330335440827329e-02  3.3816995567313057e-01  -1.7963146409781185e+00  8.3016051134664792e+01  1.7287412211022186e+02  2.5663231516943910e+02  3.3895945648566442e+02  4.2739393403356286e+02  5.1052296255660769e+02  5.9359930371960638e+02  6.7931188456440134e+02  7.6557962635316585e+02  8.4676989917778997e+02  9.3770302131551887e+02  1.0218338585556870e+03  1.1029118995118354e+03  1.1894865095579426e+03  1.2723849506714489e+03  1.3613489993988023e+03  1.4422769426288805e+03  1.5262536947557237e+03  1.6154242432138608e+03  1.6989758926804318e+03  1.7827843496246558e+03  1.8673485951653302e+03  1.9516768283091503e+03  2.0383380610112395e+03  2.1189570398994510e+03  2.2057458983874608e+03  2.2938587571538337e+03  2.3777447059550191e+03  2.4616853109426715e+03  2.5464355923887620e+03  2.6301182051201135e+03  2.7143674586250445e+03  2.8040903818558081e+03  2.8859102368486319e+03  2.9698719233274833e+03  3.0556780825415672e+03  3.1391815820155944e+03  3.2231657038379735e+03  3.3125725320227793e+03  3.3920328985485698e+03  3.4788043543255762e+03  3.5668283084959608e+03  3.6477840024039874e+03  3.7367728177866120e+03  3.8210324251035786e+03  3.9022694170115246e+03  3.9884618416709595e+03  4.0727944978654409e+03  4.1599789265562622e+03  4.2413546969335894e+03  4.3292350645643683e+03  4.4128158806839219e+03  4.4965146129065142e+03  4.5856947686877138e+03  4.6665411733125566e+03  4.7538853801450405e+03  4.8367058855338782e+03  4.9257836414676103e+03  5.0049378356439302e+03  5.0928949586883764e+03  5.1812902361135766e+03  5.2629410864530728e+03  5.3466452241636516e+03  5.4321507319655257e+03  5.5165074326101903e+03  5.6023181057223119e+03  5.6865188019259949e+03  5.7730261288182073e+03  5.8542798518825912e+03  5.9418657739099781e+03  6.0254477049993211e+03  6.1112117557803995e+03  6.1964493352238023e+03  6.2802598139726279e+03  6.3667759308894947e+03  6.4475575105636808e+03  6.5332355605457742e+03  6.6230817945113213e+03  6.7073184981835147e+03  6.7878546077892361e+03  6.8758966545566791e+03  6.9599874704452241e+03  7.0432998956226747e+03  7.1297544083839493e+03  7.2134805885547803e+03  7.2969548578298745e+03  7.3820526890881947e+03  7.4714223269095382e+03  7.5521551127576349e+03  7.6390032141750053e+03  7.7242827004530527e+03  7.8088190297379642e+03  7.8932003016321714e+03  7.9787610474272160e+03  8.0628590293344168e+03  8.1499986101013228e+03  8.2303580905703948e+03  8.3142477980508138e+03  8.4029810769813885e+03  8.4900016763567965e+03  8.5701272208217651e+03  8.6564585277614624e+03  8.7403601188326065e+03  8.8282720608076634e+03  8.9132188874659932e+03  8.9963631473718688e+03  9.0795991900002082e+03  9.1677170567017129e+03  9.2512648964269465e+03  9.3362105090495606e+03  9.4191781972360059e+03  9.5071428504136948e+03  9.5931675138053397e+03  9.6762224917580697e+03  9.7629918261170897e+03  9.8446927582449407e+03  9.9314665080011255e+03  1.0012571394340739e+04  1.0099905792217489e+04  1.0186859578010017e+04  1.0270768657179056e+04  1.0353422452125416e+04  1.0440932770578118e+04  1.0525429129223856e+04  1.0606082272549316e+04  1.0694846547494422e+04  1.0777769038183567e+04  1.0865493934828315e+04  1.0949742661523482e+04  1.1034395980164702e+04  1.1114692660602246e+04  1.1201598066272696e+04  1.1290321715433565e+04  1.1371502630175277e+04  1.1456239748787781e+04  1.1544662688261795e+04  1.1628743536781987e+04  1.1714858237719938e+04  1.1796220993723422e+04  1.1885223079504809e+04  1.1965674927860831e+04  1.2052226682560231e+04  1.2135824987335425e+04  1.2222403813941892e+04  1.2306462552457280e+04  1.2392750906291292e+04  1.2478208313827814e+04  1.2561743536838645e+04  1.2644960376814084e+04  1.2734165142814090e+04  1.2815658312339645e+04  1.2898605038725116e+04  1.2983355174913324e+04  1.3073227538976827e+04  1.3157632856505406e+04  1.3239179292777329e+04  1.3325092520880791e+04  1.3409840026300686e+04  1.3495503493006709e+04  1.3581149391635621e+04  1.3665068182091502e+04  1.3748424133320692e+04  1.3836622898751726e+04  1.3917341584762195e+04  1.4005778746093476e+04  1.4092782397900901e+04  1.4175123749845645e+04  1.4260455253832930e+04  1.4345789416976988e+04  1.4429578319574022e+04  1.4513037781413022e+04  1.4597162552294396e+04  1.4684241524460465e+04  1.4765743626235297e+04  1.4854960093498748e+04  1.4939345675775387e+04  1.5023910082949291e+04  1.5111235970378610e+04  1.5192924873798787e+04  1.5278286517350467e+04  1.5363316348623952e+04  1.5446987224816050e+04  1.5532100124275030e+04  1.5619368051739248e+04  1.5699980196827664e+04  1.5786669273728745e+04  1.5871465765961932e+04  1.5959051167887124e+04  1.6042415880049732e+04  1.6130467388760095e+04  1.6214980167461161e+04  1.6296085590993955e+04  1.6382911298999181e+04  1.6464593523294679e+04  1.6555244872474443e+04  1.6639815468456010e+04  1.6721006053448666e+04  1.6808998836994266e+04  1.6893955798954295e+04  1.6978956338244814e+04  1.7060562031592159e+04  1.7150062840448751e+04  1.7232921114987828e+04  1.7317740778082116e+04  1.7401583291065137e+04  1.7486067393688663e+04  1.7574344433012502e+04  1.7658734689596993e+04  1.7745064595360611e+04  1.7825996253815614e+04  1.7913561819324339e+04  1.7997441848752951e+04  1.8082594682792511e+04  1.8167521442035326e+04  1.8251734477770075e+04  1.8338100005543081e+04  1.8421512151684408e+04  1.8505301170810515e+04  1.8590161323181514e+04  1.8676596286306751e+04  1.8758966037399357e+04  1.8841556483862656e+04  1.8924618964360394e+04  1.9011267572135639e+04  1.9093379806231329e+04  1.9171393461419146e+04  1.9254601266106642e+04  1.9334768457945276e+04  1.9415125842892099e+04  1.9494108489607133e+04  1.9574763016090954e+04  1.9652564373913981e+04  1.9724501736781782e+04  1.9801042568183220e+04  1.9875380671722240e+04  1.9952714294528396e+04  2.0027698779419487e+04  2.0099754081010953e+04  2.0163287428104682e+04  2.0202573395664229e+04  2.0223245494427385e+04  2.0241518192635966e+04  2.0254220158836582e+04  2.0272948892383865e+04  2.0290407690741053e+04  2.0304862889025506e+04  2.0321282753573567e+04  2.0341960121210810e+04  2.0355516737331218e+04  2.0379733495114855e+04  2.0394602405966903e+04  2.0413827012201906e+04  2.0434243007927576e+04  2.0451475611563572e+04  2.0468263797425607e+04  2.0487387227081912e+04  2.0499445925429525e+04  2.0517334189611356e+04  2.0533056742507288e+04  2.0547947123672759e+04  2.0559170176726260e+04  2.0575678772033476e+04  2.0587331400523912e+04  2.0599854649636793e+04  2.0615941842043234e+04  2.0628003003447873e+04  2.0640017630933467e+04  2.0657373067323260e+04  2.0668473365480844e+04  2.0683378185367128e+04  2.0693370754936397e+04  2.0708957023497373e+04  2.0724500331207000e+04  2.0738623915271397e+04  2.0748128594894068e+04  2.0761958863492138e+04  2.0774686112585037e+04  2.0786627173191348e+04  2.0800381219368985e+04  2.0812433556964999e+04  2.0830129463189453e+04  2.8610714845863498e+04  2.8622916328353072e+04  2.8638863488608808e+04  2.8654046522195687e+04  2.8670190937840107e+04  2.8685411307979568e+04  2.8701259367721625e+04  2.8718444037460289e+04  2.8733824125319214e+04  2.8750271881182311e+04  2.8766209890314483e+04  2.8782124357186123e+04  2.8797947899255651e+04  2.8814836783867835e+04  2.8830633560439535e+04  2.8846908251052995e+04  2.8864937057744741e+04  2.8878954894969276e+04  2.8878113538012400e+04  2.8877689283057829e+04  2.8877464005760183e+04  2.8877385424062522e+04  2.8877393534532679e+04  2.8877476500123172e+04  2.8877596477061099e+04  2.8877736782458738e+04  2.8877869134411107e+04  2.8878005443139544e+04  2.8878127387767512e+04  2.8878247984908394e+04  2.8878379409283309e+04  2.8878536392392201e+04  2.8878748625790824e+04  2.8879013864926961e+04  2.8879358045479526e+04  2.8879735633906945e+04  2.8880150883669387e+04  2.8880471196934661e+04  2.8880660268272579e+04  2.8880697111169069e+04  2.8880577782378481e+04  2.8880445586007496e+04  2.8880366904615872e+04  2.8880441780653764e+04  2.8880757673499178e+04  2.8881533654743078e+04  5.3894898651597787e+03  2.0096676270647313e+04  8.1850420476318141e+03  2.8393980350173802e+04  2.5909502275794780e+03  1.7190085275128993e+04  1.4632067858469234e+04  1.0730243781808354e+04  1.2697645238432839e+04  1.8663363058206993e+04  6.7824890217404654e+03  3.9925530926165256e+03  3.9761102841410975e+03  6.7731724417022479e+03  1.8761349982435662e+04  2.8058815703375378e+04  2.0466537055292396e+04  9.4804226345998795e+03  1.5909252381354776e+04  9.4645814618799868e+03  1.5914750637996882e+04  1.3398822693104796e+04  1.1885970488811612e+04  1.4829827072332250e+03  1.4640859182518022e+03  2.8597840238811608e+04  2.8600391574159927e+04  1.1501576950010571e+04  1.3875963944134231e+04  1.7553786521302329e+04  1.9833773682504900e+04  1.7483767448224942e+04  5.6107495859393030e+03  5.1925900288181274e+03  7.9761871744892869e+03  2.8054914508245661e+03  7.9809630714383111e+03  2.7995467723820966e+03  2.7462001712452504e+04  1.4719901015678783e+04  1.0657010596794324e+04  2.8326582998309674e+04  2.8330675207429984e+04  1.0444612934161567e+04  1.4926985938228660e+04  1.1762543662407496e+04  1.3635795756553163e+04  1.2467760417864776e+04  1.8183590575958089e+04  2.0307164972538885e+04  4.6873339259212898e+03  6.0933918560911598e+03  9.1457392342459461e+03  1.6226143984821152e+04  1.6650400558595797e+04  2.0339942523384343e+04  1.9201880067067024e+04  4.4442267716185588e+03  6.3323785815995825e+03  1.2681484339919481e+04  2.7789816701345706e+04  1.6593815535870170e+04  7.2762045966150054e+03  3.5092307315144249e+03  8.8234638352021429e+03  8.8262830528260693e+03  1.2619570383787513e+04  2.0536113674785618e+04  1.8299246473311920e+04  2.8600804520008402e+04  1.8338094926678918e+04  1.3928486792064734e+04  7.1680270271930640e+03  3.5895890701818726e+03  4.3995398390782848e+03  7.1944054441967246e+03  1.9201981516394961e+04  2.0199503743038727e+04  1.5457626387837765e+04  9.8920009855455846e+03  6.3458477573969694e+03  3.5563254925777701e+03  8.6523728654170209e+03  8.6382332414720131e+03  4.9138739548762069e+03  5.8463626562356139e+03  1.6731775252556861e+04  1.5902986312410192e+03  1.9104938774198432e+04  2.0796421765787936e+03  2.0913967384160633e+03  1.1386265477621282e+04  1.6729336394088747e+04  2.7803814927095624e+04  9.9444373278052062e+03  1.5436220229944745e+04  2.0508121127584127e+04  2.8118407172860385e+04  1.3252254876559880e+04  1.4171562458384526e+04  1.5153763429870487e+04  9.6851951283390554e+03  1.5672359023176263e+04  1.0193339432738805e+04  8.8699895660560628e+02  8.8702601329238314e+02  1.1175315401305781e+04  2.8712163805572192e+04  2.8709950202850610e+04  2.8475750571883738e+04  2.8478600411159830e+04  1.0853797244943336e+04  2.8266734014742313e+04  3.2752123957889398e+03  7.5116816191811822e+03  1.1098187172252230e+04  1.4291760693809056e+04  1.7950957254257439e+04  1.9659172367983032e+04  5.8726269100763839e+03  4.9136420532255106e+03  2.2034140837133064e+03  2.2128296210325207e+03  1.4438429198601980e+04  1.1814561548888407e+04  1.9709872087154039e+04  7.4852658932375789e+03  3.2937762258613334e+03  1.3199297472917489e+04  2.8448498955718380e+04  2.8448774076458369e+04  1.7666899093677785e+04  1.2019993599827394e+04  1.3281330595571733e+04  1.2019268114383676e+04  2.0034966537587574e+04  1.7256637274970748e+04  5.2791895295308150e+03  5.5018332799478640e+03  2.0111395091504073e+04  1.7203036987665149e+04  2.8228388876863137e+04  1.5262557947126345e+04  8.2180069847221002e+03  8.2313851995992463e+03  1.8127652823615106e+04  2.9806604669956023e+03  1.0103023174663274e+04  1.4518760086793034e+04  2.9511055725661927e+03  1.6038677805313700e+04  1.0495257386028235e+04  1.9253745287171994e+04  4.1548495591466526e+03  6.6222929791597089e+03  1.7335341921028732e+04  1.5705408094635473e+04  1.4868586123911750e+03  1.4994306230278482e+03  9.3496511208220982e+03  6.2209458731553777e+03  1.9359982387189433e+04  2.8278997507499971e+04  2.8270559194207697e+04  9.6457720757609659e+03  4.5609821800342388e+03  1.1403649011580335e+04  2.8597586083453923e+04  2.8597389050511705e+04  8.0664552866546082e+03  1.3209592007311137e+