<?xml version="1.0"?>
<VTKFile type="UnstructuredGrid"  version="0.1"  >
<UnstructuredGrid>
<Piece  NumberOfPoints="21600" NumberOfCells="42542">
<Points>
<DataArray  type="Float64"  NumberOfComponents="3"  format="ascii">0 0 0  0.77 0 0  0.77 0.15 0  0 0.15 0  0.003221757322170014 0 0  0.006443514644340046 0 0  0.009665271966510193 0 0  0.01288702928868034 0 0  0.01610878661085048 0 0  0.01933054393302049 0 0  0.02255230125519027 0 0  0.02577405857735967 0 0  0.02899581589952872 0 0  0.03221757322169801 0 0  0.03543933054386744 0 0  0.03866108786603686 0 0  0.04188284518820627 0 0  0.0451046025103757 0 0  0.04832635983254521 0 0  0.05154811715471607 0 0  0.05476987447688695 0 0  0.05799163179905782 0 0  0.06121338912122846 0 0  0.06443514644339859 0 0  0.06765690376556875 0 0  0.0708786610877389 0 0  0.07410041840990904 0 0  0.0773221757320792 0 0  0.08054393305425039 0 0  0.08376569037642198 0 0  0.0869874476985936 0 0  0.09020920502076518 0 0  0.0934309623429339 0 0  0.0966527196651024 0 0  0.09987447698726967 0 0  0.1030962343094369 0 0  0.1063179916316041 0 0  0.1095397489537714 0 0  0.1127615062759386 0 0  0.1159832635981051 0 0  0.1192050209202709 0 0  0.1224267782424358 0 0  0.1256485355646001 0 0  0.1288702928867644 0 0  0.1320920502089288 0 0  0.1353138075310958 0 0  0.1385355648532632 0 0  0.1417573221754333 0 0  0.1449790794976035 0 0  0.1482008368197736 0 0  0.1514225941419428 0 0  0.1546443514641101 0 0  0.157866108786276 0 0  0.1610878661084403 0 0  0.1643096234306047 0 0  0.167531380752769 0 0  0.1707531380749333 0 0  0.1739748953970977 0 0  0.177196652719262 0 0  0.1804184100414264 0 0  0.1836401673635935 0 0  0.1868619246857611 0 0  0.1900836820079313 0 0  0.1933054393301014 0 0  0.1965271966522716 0 0  0.1997489539744406 0 0  0.2029707112966078 0 0  0.2061924686187736 0 0  0.209414225940938 0 0  0.2126359832631022 0 0  0.2158577405852666 0 0  0.219079497907431 0 0  0.2223012552295953 0 0  0.2255230125517597 0 0  0.2287447698739242 0 0  0.2319665271960914 0 0  0.2351882845182592 0 0  0.2384100418404293 0 0  0.2416317991625994 0 0  0.2448535564847696 0 0  0.2480753138069371 0 0  0.2512970711291014 0 0  0.2545188284512658 0 0  0.2577405857734302 0 0  0.2609623430955986 0 0  0.2641841004177688 0 0  0.2674058577399389 0 0  0.270627615062109 0 0  0.2738493723842792 0 0  0.2770711297064487 0 0  0.280292887028613 0 0  0.2835146443507774 0 0  0.2867364016729417 0 0  0.2899581589951061 0 0  0.2931799163172705 0 0  0.2964016736394348 0 0  0.2996234309615992 0 0  0.3028451882837672 0 0  0.3060669456059373 0 0  0.3092887029281075 0 0  0.3125104602502776 0 0  0.3157322175724478 0 0  0.3189539748946177 0 0  0.322175732216782 0 0  0.3253974895389464 0 0  0.3286192468611107 0 0  0.3318410041832751 0 0  0.3350627615054395 0 0  0.3382845188276038 0 0  0.3415062761497681 0 0  0.3447280334719325 0 0  0.3479497907940968 0 0  0.3511715481162612 0 0  0.3543933054384255 0 0  0.3576150627605947 0 0  0.3608368200827649 0 0  0.364058577404935 0 0  0.3672803347271051 0 0  0.3705020920492753 0 0  0.373723849371444 0 0  0.3769456066936084 0 0  0.3801673640157748 0 0  0.383389121337945 0 0  0.3866108786601209 0 0  0.3898326359823028 0 0  0.3930543933044846 0 0  0.3962761506266662 0 0  0.399497907948848 0 0  0.4027196652710298 0 0  0.4059414225932116 0 0  0.4091631799153934 0 0  0.4123849372375751 0 0  0.4156066945597569 0 0  0.4188284518819387 0 0  0.4220502092041222 0 0  0.4252719665263097 0 0  0.4284937238484974 0 0  0.4317154811706849 0 0  0.4349372384928725 0 0  0.4381589958150601 0 0  0.4413807531372476 0 0  0.4446025104594352 0 0  0.4478242677816181 0 0  0.4510460251037998 0 0  0.4542677824259815 0 0  0.4574895397481634 0 0  0.4607112970703451 0 0  0.4639330543925269 0 0  0.4671548117147087 0 0  0.4703765690368904 0 0  0.4735983263590722 0 0  0.4768200836812568 0 0  0.4800418410034444 0 0  0.483263598325632 0 0  0.4864853556478196 0 0  0.4897071129700028 0 0  0.4929288702921845 0 0  0.4961506276143663 0 0  0.4993723849365479 0 0  0.5025941422587239 0 0  0.5058158995809008 0 0  0.5090376569030826 0 0  0.5122594142252677 0 0  0.515481171547461 0 0  0.5187029288696494 0 0  0.5219246861918312 0 0  0.525146443514013 0 0  0.5283682008361947 0 0  0.5315899581583845 0 0  0.5348117154805778 0 0  0.5380334728027617 0 0  0.5412552301249435 0 0  0.5444769874471141 0 0  0.5476987447692853 0 0  0.550920502091467 0 0  0.5541422594136513 0 0  0.5573640167358447 0 0  0.560585774058034 0 0  0.5638075313802158 0 0  0.5670292887023975 0 0  0.5702510460245793 0 0  0.5734728033467682 0 0  0.5766945606689615 0 0  0.579916317991155 0 0  0.5831380753133483 0 0  0.5863598326355314 0 0  0.5895815899577131 0 0  0.5928033472798949 0 0  0.5960251046020785 0 0  0.5992468619242718 0 0  0.6024686192464619 0 0  0.6056903765686437 0 0  0.6089121338908206 0 0  0.6121338912129908 0 0  0.6153556485351673 0 0  0.618577405857349 0 0  0.6217991631795386 0 0  0.625020920501732 0 0  0.6282426778239159 0 0  0.6314644351460976 0 0  0.6346861924682795 0 0  0.6379079497904622 0 0  0.6411297071126555 0 0  0.6443514644348465 0 0  0.6475732217570283 0 0  0.650794979079206 0 0  0.6540167364013761 0 0  0.6572384937235518 0 0  0.6604602510457335 0 0  0.6636820083679225 0 0  0.6669037656901158 0 0  0.6701255230123004 0 0  0.6733472803344823 0 0  0.6765690376566641 0 0  0.6797907949788459 0 0  0.6830125523010393 0 0  0.686234309623231 0 0  0.6894560669454127 0 0  0.6926778242675914 0 0  0.6958995815897615 0 0  0.6991213389119363 0 0  0.7023430962341181 0 0  0.7055648535563062 0 0  0.7087866108784994 0 0  0.712008368200685 0 0  0.7152301255228668 0 0  0.7184518828450486 0 0  0.7216736401672305 0 0  0.724895397489423 0 0  0.7281171548116155 0 0  0.7313389121337973 0 0  0.7345606694559768 0 0  0.7377824267781468 0 0  0.7410041841003209 0 0  0.7442259414225026 0 0  0.7474476987446899 0 0  0.7506694560668832 0 0  0.7538912133890696 0 0  0.7571129707112513 0 0  0.760334728033433 0 0  0.7635564853556149 0 0  0.7667782426778067 0 0  0.77 0.001685393258423789 0  0.77 0.003370786516847669 0  0.77 0.005056179775271247 0  0.77 0.006741573033694517 0  0.77 0.008426966292117821 0  0.77 0.01011235955054176 0  0.77 0.01179775280896623 0  0.77 0.0134831460673904 0  0.77 0.01516853932581489 0  0.77 0.01685393258423891 0  0.77 0.01853932584266291 0  0.77 0.02022471910108589 0  0.77 0.02191011235950794 0  0.77 0.02359550561792999 0  0.77 0.02528089887635205 0  0.77 0.02696629213477411 0  0.77 0.02865168539319714 0  0.77 0.03033707865161956 0  0.77 0.03202247191004162 0  0.77 0.03370786516846367 0  0.77 0.03539325842688572 0  0.77 0.03707865168530778 0  0.77 0.03876404494372984 0  0.77 0.0404494382021519 0  0.77 0.04213483146057394 0  0.77 0.04382022471899601 0  0.77 0.04550561797741807 0  0.77 0.04719101123584013 0  0.77 0.04887640449426219 0  0.77 0.05056179775268425 0  0.77 0.0522471910111063 0  0.77 0.05393258426952837 0  0.77 0.05561797752795105 0  0.77 0.05730337078637505 0  0.77 0.05898876404479723 0  0.77 0.0606741573032193 0  0.77 0.06235955056164135 0  0.77 0.06404494382006341 0  0.77 0.06573033707848548 0  0.77 0.06741573033690752 0  0.77 0.06910112359532959 0  0.77 0.07078651685375165 0  0.77 0.0724719101121737 0  0.77 0.07415730337059653 0  0.77 0.07584269662902443 0  0.77 0.07752808988745429 0  0.77 0.07921348314588413 0  0.77 0.08089887640431678 0  0.77 0.08258426966274923 0  0.77 0.08426966292117907 0  0.77 0.08595505617960987 0  0.77 0.08764044943804362 0  0.77 0.08932584269647403 0  0.77 0.09101123595490389 0  0.77 0.09269662921333673 0  0.77 0.09438202247176901 0  0.77 0.09606741573019884 0  0.77 0.09775280898862983 0  0.77 0.09943820224706355 0  0.77 0.1011235955054938 0  0.77 0.1028089887639236 0  0.77 0.1044943820223567 0  0.77 0.1061797752807888 0  0.77 0.1078651685392186 0  0.77 0.1095505617976498 0  0.77 0.1112359550560835 0  0.77 0.1129213483145136 0  0.77 0.1146067415729456 0  0.77 0.1162921348313787 0  0.77 0.1179775280898085 0  0.77 0.1196629213482387 0  0.77 0.1213483146066724 0  0.77 0.1230337078651035 0  0.77 0.1247191011235322 0  0.77 0.1264044943819605 0  0.77 0.1280898876403903 0  0.77 0.1297752808988242 0  0.77 0.1314606741572554 0  0.77 0.1331460674156853 0  0.77 0.1348314606741154 0  0.77 0.1365168539325504 0  0.77 0.1382022471909802 0  0.77 0.13988764044941 0  0.77 0.1415730337078443 0  0.77 0.1432584269662752 0  0.77 0.144943820224705 0  0.77 0.1466292134831355 0  0.77 0.1483146067415701 0  0.7667782426778414 0.15 0  0.7635564853556813 0.15 0  0.7603347280335111 0.15 0  0.757112970711341 0.15 0  0.7538912133891708 0.15 0  0.7506694560670005 0.15 0  0.7474476987448303 0.15 0  0.7442259414226602 0.15 0  0.74100418410049 0.15 0  0.7377824267783197 0.15 0  0.7345606694561496 0.15 0  0.7313389121339794 0.15 0  0.7281171548118092 0.15 0  0.724895397489639 0.15 0  0.7216736401674688 0.15 0  0.7184518828452986 0.15 0  0.7152301255231284 0.15 0  0.7120083682009583 0.15 0  0.708786610878788 0.15 0  0.7055648535566178 0.15 0  0.7023430962344477 0.15 0  0.6991213389122775 0.15 0  0.6958995815901072 0.15 0  0.692677824267937 0.15 0  0.6894560669457669 0.15 0  0.6862343096235967 0.15 0  0.6830125523014264 0.15 0  0.6797907949792563 0.15 0  0.6765690376570861 0.15 0  0.6733472803349159 0.15 0  0.6701255230127456 0.15 0  0.6669037656905755 0.15 0  0.6636820083684053 0.15 0  0.6604602510462351 0.15 0  0.657238493724065 0.15 0  0.6540167364018947 0.15 0  0.6507949790797245 0.15 0  0.6475732217575543 0.15 0  0.644351464435384 0.15 0  0.6411297071132231 0.15 0  0.6379079497910645 0.15 0  0.634686192468906 0.15 0  0.6314644351467468 0.15 0  0.6282426778245765 0.15 0  0.6250209205024085 0.15 0  0.62179916318025 0.15 0  0.6185774058580914 0.15 0  0.6153556485359328 0.15 0  0.6121338912137689 0.15 0  0.6089121338915987 0.15 0  0.6056903765694354 0.15 0  0.6024686192472768 0.15 0  0.5992468619251182 0.15 0  0.5960251046029597 0.15 0  0.5928033472807912 0.15 0  0.589581589958621 0.15 0  0.5863598326364508 0.15 0  0.5831380753142792 0.15 0  0.5799163179920974 0.15 0  0.57669456
[...]
<PointData  Scalars="concentration"> 
<DataArray  type="Float64"  Name="concentration"  format="ascii">0.0000000000000000e+00  1.0000000000000013e+00  8.8519207523398546e-01  0.0000000000000000e+00  7.3890053382440979e-02  -1.0376582151711538e-02  -1.2192582817408004e-01  5.8224020661806986e-01  8.5940576564828697e-01  8.5722702108731608e-01  8.6263480419554661e-01  8.6278344726950051e-01  8.6230538449487404e-01  8.6200478044747408e-01  8.6190077791646780e-01  8.6186552984476050e-01  8.6190962171835928e-01  8.6201616929048341e-01  8.6209176357094008e-01  8.6225814679181934e-01  8.6236132427106738e-01  8.6253513707425178e-01  8.6265190101430322e-01  8.6286565815647198e-01  8.6294922570172272e-01  8.6321503267531341e-01  8.6332791687285648e-01  8.6353097873186935e-01  8.6380116356979519e-01  8.6390076860637244e-01  8.6424598053064994e-01  8.6446513145774784e-01  8.6461724936185846e-01  8.6518710011472844e-01  8.6506087192854242e-01  8.6592356399016934e-01  8.6570192638101218e-01  8.6665463803216303e-01  8.6651888852007797e-01  8.6746471528094227e-01  8.6746234852627224e-01  8.6840911191044756e-01  8.6854592819093579e-01  8.6947966544389266e-01  8.6983111858389039e-01  8.7067414783847852e-01  8.7130883043436436e-01  8.7210839624314063e-01  8.7290195484683542e-01  8.7383269613146519e-01  8.7473779208912816e-01  8.7571927886449641e-01  8.7689890776958956e-01  8.7795587471153136e-01  8.7915041349152001e-01  8.8065424041628948e-01  8.8184978322375118e-01  8.8328329406431783e-01  8.8524206140135064e-01  8.8648635776661588e-01  8.8816853293615372e-01  8.9084552155000996e-01  8.9181423304726992e-01  8.9377642369222521e-01  8.9769794694107807e-01  8.9745550698372445e-01  8.9983064374231880e-01  9.0620939032226222e-01  9.0182637619415129e-01  9.0557954899166115e-01  9.1661797831648983e-01  8.9914744686191650e-01  9.0477957402108433e-01  9.2961937312325937e-01  7.8377366594487963e-01  7.7068687982230943e-01  7.1626214574826441e-01  7.1752267449363294e-01  7.3052569968281511e-01  7.3678464122862330e-01  7.4097926938071779e-01  7.4361225420567001e-01  7.4093443335975884e-01  7.4306789919906024e-01  7.4530057933426552e-01  7.3742165616541699e-01  7.4607104530564983e-01  7.5171972074329341e-01  7.3205319828708926e-01  7.6390890207883022e-01  7.7602805935866082e-01  7.4308804120514294e-01  8.5741412212807799e-01  6.8742189914386553e-01  1.0112039547741352e+00  1.0402495150281168e+00  1.0295123495950931e+00  1.0167698048232645e+00  1.0085945032635035e+00  1.0041912610832311e+00  1.0019901343208728e+00  1.0009303498891506e+00  1.0004306318889198e+00  1.0001979533370011e+00  1.0000905119454861e+00  1.0000412001801604e+00  1.0000186781388751e+00  1.0000084354871779e+00  1.0000037956609058e+00  1.0000017017825096e+00  1.0000007603247514e+00  1.0000003385393958e+00  1.0000001502422728e+00  1.0000000664649562e+00  1.0000000293164375e+00  1.0000000128937125e+00  1.0000000056569041e+00  1.0000000024754883e+00  1.0000000010813817e+00  1.0000000004713108e+00  1.0000000002051903e+00  1.0000000000892162e+00  1.0000000000386930e+00  1.0000000000168801e+00  1.0000000000072047e+00  1.0000000000032829e+00  1.0000000000012177e+00  1.0000000000008027e+00  9.9999999999999734e-01  1.0000000000004379e+00  9.9999999999966394e-01  1.0000000000004661e+00  9.9999999999952094e-01  1.0000000000005247e+00  9.9999999999947098e-01  1.0000000000005274e+00  9.9999999999949785e-01  1.0000000000004732e+00  9.9999999999956579e-01  1.0000000000004052e+00  9.9999999999961819e-01  1.0000000000003588e+00  9.9999999999970479e-01  1.0000000000001379e+00  1.0000000000002138e+00  9.9999999999914690e-01  1.0000000000018980e+00  9.9999999999658262e-01  1.0000000000054519e+00  9.9999999999208278e-01  1.0000000000105893e+00  9.9999999998698763e-01  1.0000000000146028e+00  9.9999999998517064e-01  1.0000000000136113e+00  9.9999999998852807e-01  1.0000000000092815e+00  9.9999999999279521e-01  1.0000000000035758e+00  1.0000000000050930e+00  9.9999999997862155e-01  1.0000000000417530e+00  9.9999999994800426e-01  1.0000000000289104e+00  1.0000000000477145e+00  9.9999999982406573e-01  1.0000000003185410e+00  9.9999999958683972e-01  1.0000000004130636e+00  9.9999999965886044e-01  1.0000000003145963e+00  9.9999999950435903e-01  1.0000000009605061e+00  9.9999999845515974e-01  1.0000000017771169e+00  9.9999999899737491e-01  9.9999999870914613e-01  1.0000000050726976e+00  9.9999999047969756e-01  1.0000000131256972e+00  9.9999998579775795e-01  1.0000000116117487e+00  9.9999999462582123e-01  9.9999999683745078e-01  1.0000000117180032e+00  9.9999998211254637e-01  1.0000000200067285e+00  9.9999998230178633e-01  1.0000000118912888e+00  9.9999999563561648e-01  9.9999999705745213e-01  1.0000000085409566e+00  9.9999998828075842e-01  1.0000000125336428e+00  9.9999998843896254e-01  1.0000000095732029e+00  9.9999999273102058e-01  1.0000000051308271e+00  9.9999999659842853e-01  1.0000000021368627e+00  9.9999999871754375e-01  1.0000000007413232e+00  9.9999999958383790e-01  1.0000000002284719e+00  9.9999999987808608e-01  1.0000000000584655e+00  9.9999999998678135e-01  9.9999999997124056e-01  1.0000000000725928e+00  9.9999999988876598e-01  1.0000000001227489e+00  9.9999999992998512e-01  9.9999999990607924e-01  1.0000000004133158e+00  9.9999999908879844e-01  1.0000000015702544e+00  9.9999999767877057e-01  1.0000000030474390e+00  9.9999999639106185e-01  1.0000000038819075e+00  9.9999999620013802e-01  1.0000000033793535e+00  9.9999999728289990e-01  1.0000000019578488e+00  9.9999999875384404e-01  1.0000000006833563e+00  9.9999999969280018e-01  1.0000000000990257e+00  9.9999999999091049e-01  9.9999999998427280e-01  1.0000000000144449e+00  9.9999999999219036e-01  1.0000000000030871e+00  9.9999999999907607e-01  1.0000000000002087e+00  9.9999999999996858e-01  1.0000000000000036e+00  1.0000000000000002e+00  1.0000000000000000e+00  1.0000000000000022e+00  1.0000000000000024e+00  1.0000000000000018e+00  1.0000000000000002e+00  1.0000000000000007e+00  1.0000000000000004e+00  1.0000000000000002e+00  1.0000000000000007e+00  1.0000000000000002e+00  1.0000000000000004e+00  1.0000000000000007e+00  1.0000000000000007e+00  1.0000000000000004e+00  1.0000000000000004e+00  9.9999999999999944e-01  1.0000000000000047e+00  9.9999999999998734e-01  1.0000000000000397e+00  9.9999999999988343e-01  1.0000000000003442e+00  9.9999999999900557e-01  1.0000000000028151e+00  9.9999999999235623e-01  1.0000000000193683e+00  9.9999999995719813e-01  1.0000000000652167e+00  1.0000000000529352e+00  9.9999999893405278e-01  1.0000000060666059e+00  9.9999997559803899e-01  1.0000000673141747e+00  9.9999995295818189e-01  9.9999943754369902e-01  1.0000001104414249e+00  9.9999161852258855e-01  9.9995687411859369e-01  9.9988824496463491e-01  9.9978887632902491e-01  9.9971280696315845e-01  9.9968703347075194e-01  9.9966303464657313e-01  9.9964580610387477e-01  9.9964074682080084e-01  9.9965495455421161e-01  9.9967223638842551e-01  9.9974239348252836e-01  9.9998641371703523e-01  9.9874328671840784e-01  9.9432052686634020e-01  9.8711691562472026e-01  9.7931300201304317e-01  9.7897147152610131e-01  9.8201219092263825e-01  9.7156969437746843e-01  9.5400286910876486e-01  9.4380293423857498e-01  9.4425180920271390e-01  9.5256908457897849e-01  9.5148365314754113e-01  9.3765084290279177e-01  9.3391047829007756e-01  9.3848262452509090e-01  9.3282146417218015e-01  9.3093898928853602e-01  9.3587195265919565e-01  9.2913989639090955e-01  9.3793425854431278e-01  9.4930899853144290e-01  9.3692394465204498e-01  9.4712342311474795e-01  9.3555836461634134e-01  9.5932238684866777e-01  9.4006632552916924e-01  9.7600224788120682e-01  9.5016662311006583e-01  8.9933464606741431e-01  8.6006611775084152e-01  8.6864690191893601e-01  7.8082997185448300e-01  8.0287695623603250e-01  8.7438839333442220e-01  8.0147562769630099e-01  9.0372198275460203e-01  8.0306413236968255e-01  8.4152032682380951e-01  6.8402370010227465e-01  5.2126531287051658e-01  -1.2791175314234293e-01  9.6874778186408084e-01  -9.5204370700865326e-01  1.9053243215512525e+00  9.1474903231613280e-01  8.6571727475144877e-01  9.5611181601085904e-01  2.2016218672431168e-01  -6.8000810783939006e-02  1.6053325291067375e+00  6.4650211592500417e-01  6.4110644068818579e-01  2.2113813700314125e-01  -3.3517817792750865e-01  6.3058063254932617e-01  1.0530854745217713e+00  3.3596070618139462e-01  1.2504600788877829e+00  9.9134786760519611e-01  8.0941568086998827e-01  8.4010409039401857e-01  1.0350731889526614e+00  7.4375610466278363e-01  8.7213125574267847e-01  9.5535622811107124e-01  8.7910590730630145e-01  8.6565447041247223e-01  9.6630025169879841e-01  7.7892065484650497e-01  1.0236487645815631e+00  7.9747978605064829e-01  9.9454597556992475e-01  9.0369035962966682e-01  9.3805633156756474e-01  1.0013409213612328e+00  9.4197676503891359e-01  9.2245217579195737e-01  9.4652784804434653e-01  1.0742166968745961e+00  9.5508298670513059e-01  1.0074523429865068e+00  9.7422611162977013e-01  1.0169938995510999e+00  7.6382015872049647e-01  5.5650138112203584e-01  1.0767341696485251e+00  1.1118895512640052e+00  6.7038076094315435e-01  6.0280501922449381e-01  5.3072226198485939e-01  -5.0400851000248126e-01  -6.4011309399524496e-01  -3.7505254534509125e-01  4.8356530348570465e-01  -5.3740928723387892e-02  -1.2141755590776747e-01  2.2654299117435517e-01  7.3422649863369396e-02  -1.2983996406900660e-02  1.4551425524875752e-01  1.6013208459063002e-01  5.3337365216998875e-02  1.8203053119437651e-01  2.2753673424368051e-01  2.3194757434243504e-01  4.2475184344039685e-01  7.4277620001098643e-01  9.1062246355274612e-01  -1.5525742616293275e-01  -4.2082767868079146e-01  4.0285477323987245e-01  8.6897573018438345e-01  8.6791214848582499e-01  -1.0248571327955211e-01  -1.3130927108687224e-01  6.4070022961851669e-01  1.1371246555142414e+00  -6.6969399102959529e-02  -2.0373072784729332e-01  6.7872954430599308e-01  1.1836402353205040e+00  2.6520667947518374e-02  -1.8905334593031581e-01  7.1170928066677930e-01  1.1993312398296061e+00  1.8093551591791329e-01  1.5227687554843425e-01  7.5979362887323265e-01  6.6646705721848762e-02  4.0183817757999835e-01  1.2090202970125801e+00  3.0089615435637718e-01  -2.0071199009798935e-01  5.4211447255206147e-01  1.1736087389781749e+00  2.3700455605348850e-01  -2.0596581165408889e-01  4.0163712995232381e-01  8.4305244402603263e-01  -2.3318754967172861e-01  3.9554206395260771e-01  7.9510495299851658e-01  -1.4108337023324771e-01  3.2485360677612213e-01  7.6369532493722669e-01  -2.2887210124427645e-01  -5.8872385437720214e-02  2.1087159976537601e-01  1.3758962771265471e-01  1.1271351458024724e-01  3.6000438604772106e-01  1.1778799755182998e+00  5.7100227386451996e-01  -7.7152213726270569e-02  1.0467944610776805e+00  1.8829653454246448e-01  1.0688374420526063e+00  5.1855920854105853e-01  7.5558960942843090e-02  8.1372481810014119e-01  2.9983700554076731e-01  5.5528092635001702e-01  -1.7527697558546249e-02  3.5032884399190484e-01  7.7672675864322083e-01  -1.1035511944083845e-01  3.5625510679614314e-01  7.8137171768850866e-01  -4.2973014388561770e-02  3.8249901515601631e-01  1.1586500135434896e+00  3.2287380836859503e-01  -3.4828433948637733e-01  9.2108223903641928e-02  3.7757890138552969e-01  4.7575237754701755e-01  1.0173533894118689e+00  3.7779748672190355e-01  -2.5635072048442853e-01  1.8486202039118130e-01  6.6646073406900597e-01  9.7319659641201228e-01  3.3821796684536198e-01  -1.3383332835673115e-01  3.9712575188316968e-01  6.8044903761757081e-01  -2.3655228126225605e-01  -7.1266381588409672e-02  3.0062484966583708e-01  7.7650976186895959e-01  1.4618525348862872e+00  2.0366246836308450e+00  1.9439919375130581e+00  1.8646063538024269e+00  1.9295546560802168e+00  1.9130535962881530e+00  1.8156305869521157e+00  1.8568849838824522e+00  1.8308509323329438e+00  1.7432373863670376e+00  1.7497613736053452e+00  1.7513537490018984e+00  1.6202472875758422e+00  1.6986105060103658e+00  1.5964963816252367e+00  1.5891292146463387e+00  1.5732402044492435e+00  1.5204372648733642e+00  1.5331266719636192e+00  1.4608369765047546e+00  1.4980932192659622e+00  1.4174066037780173e+00  1.4567929190422286e+00  1.3765091269731264e+00  1.4313676474191996e+00  1.3284467530067885e+00  1.3860673700800341e+00  1.3064822818146615e+00  1.3387784933622286e+00  1.3085496591146686e+00  1.2987821179075858e+00  1.2745257779328949e+00  1.2715383887045049e+00  1.2894093053594262e+00  1.2399717524055345e+00  1.3252156789700789e+00  1.4050399011145327e+00  1.1603833710922165e+00  1.7510540480927252e+00  1.1392764976378467e+00  1.5303202856808522e+00  1.0022324999134140e+00  3.1669704168094093e-01  1.0195645767418449e+00  1.1405866791705330e+00  -1.8408079673076661e-03  1.2915724746217645e+00  1.0683046190975591e+00  2.7646965386558604e-02  1.1781099242510606e+00  9.0072704248775270e-01  -2.2282191422636805e-01  3.3639154757019585e-01  8.9504264598125705e-01  7.8341075207345887e-02  2.3083308294633503e-01  1.4850419375757480e+00  8.8735274455340518e-01  1.1833798815634611e+00  3.3568377835284302e-01  1.0243726871776087e+00  1.3851628554730089e+00  9.1324882511364824e-01  1.8555315931580774e-01  1.3022478844557215e+00  9.8491695238927413e-01  1.4160267364038108e+00  1.1026894346176430e+00  1.2197800488515795e+00  1.2995627073651919e+00  1.0758282742323790e+00  1.4637562271724918e+00  1.2651165073280317e+00  1.2550116665405200e+00  1.2686589532663346e+00  1.2290702525741106e+00  1.2790061906619410e+00  1.2654219684794192e+00  1.3447090043443723e+00  1.3088472845108112e+00  1.2566241295884555e+00  1.2242845357053600e+00  1.3261717837854170e+00  1.2552497404132017e+00  1.3212762243278884e+00  1.1860472133477515e+00  1.1989738578810445e+00  1.0337252000600092e+00  8.6365233563862032e-01  -7.3915472763699641e-02  -4.7376124672664187e-02  7.7407114889248535e-02  0.0000000000000000e+00  0.0000000000000000e+00  0.0000000000000000e+00  0.0000000000000000e+00  0.0000000000000000e+00  0.0000000000000000e+00  0.0000000000000000e+00  0.0000000000000000e+00  0.0000000000000000e+00  0.0000000000000000e+00  0.0000000000000000e+00  0.0000000000000000e+00  0.0000000000000000e+00  0.0000000000000000e+00  0.0000000000000000e+00  0.0000000000000000e+00  0.0000000000000000e+00  0.0000000000000000e+00  0.0000000000000000e+00  0.0000000000000000e+00  0.0000000000000000e+00  0.0000000000000000e+00  0.0000000000000000e+00  0.0000000000000000e+00  0.0000000000000000e+00  0.0000000000000000e+00  0.0000000000000000e+00  0.0000000000000000e+00  0.0000000000000000e+00  0.0000000000000000e+00  0.0000000000000000e+00  0.0000000000000000e+00  0.0000000000000000e+00  0.0000000000000000e+00  0.0000000000000000e+00  0.0000000000000000e+00  0.0000000000000000e+00  0.0000000000000000e+00  0.0000000000000000e+00  0.0000000000000000e+00  0.0000000000000000e+00  0.0000000000000000e+00  0.0000000000000000e+00  0.0000000000000000e+00  0.0000000000000000e+00  0.0000000000000000e+00  0.0000000000000000e+00  0.0000000000000000e+00  0.0000000000000000e+00  0.0000000000000000e+00  0.0000000000000000e+00  0.0000000000000000e+00  0.0000000000000000e+00  0.0000000000000000e+00  0.0000000000000000e+00  0.0000000000000000e+00  0.0000000000000000e+00  0.0000000000000000e+00  0.0000000000000000e+00  0.0000000000000000e+00  0.0000000000000000e+00  0.0000000000000000e+00  0.0000000000000000e+00  0.0000000000000000e+00  0.0000000000000000e+00  0.0000000000000000e+00  0.0000000000000000e+00  0.0000000000000000e+00  0.0000000000000000e+00  0.0000000000000000e+00  0.0000000000000000e+00  0.0000000000000000e+00  0.0000000000000000e+00  0.0000000000000000e+00  0.0000000000000000e+00  0.0000000000000000e+00  0.0000000000000000e+00  0.0000000000000000e+00  0.0000000000000000e+00  0.0000000000000000e+00  0.0000000000000000e+00  0.0000000000000000e+00  0.0000000000000000e+00  0.0000000000000000e+00  0.0000000000000000e+00  0.0000000000000000e+00  0.0000000000000000e+00  0.0000000000000000e+00  -2.0859408533839125e-02  -8.3235045900401539e-02  -4.2413056237008979e-02  -7.1831214206759895e-03  1.2350688131233177e-04  3.3027125561058601e-05  -9.7658206695007626e-06  2.0037163698529122e-06  1.0587721491387510e-06  -3.8283777317017583e-07  -4.8440778683696199e-07  1.4099921658014330e-06  -1.0908014218572234e-06  2.4147259371294841e-06  -2.9629631571144997e-07  2.2910467448087878e-07  -1.3852165501970340e-06  1.7663070536045020e-06  -5.4067590521871508e-06  9.9605399784506280e-06  -1.2936347243892197e-05  1.7155215330479953e-05  -1.5515472910298662e-05  1.6184573639920490e-05  -1.4686823867669932e-05  1.7421077261861705e-05  -1.9579290865472678e-05  2.4018321657516794e-05  -2.7519962522876850e-05  2.8538093909605258e-05  -2.5116389916361559e-05  2.0767510717687236e-05  -1.8703950380222074e-05  1.7984078315453887e-05  -1.8230330770411644e-05  2.1671625513003793e-05  -2.4273026087860495e-05  1.8104490534851110e-05  -5.1006859200908577e-06  -1.0048726921508843e-05  2.8830242633855749e-05  -4.1014374158913607e-05  3.5293667206024075e-05  -2.7449472582740160e-05  2.1923903026458568e-05  -7.9551614324353033e-06  4.6770182308581669e-06  1.5325608791847954e-05  -6.8891910745056358e-05  9.1135576359696827e-05  -1.6699735010646690e-04  1.5012709689514453e-04  -2.2393196755258370e-04  2.2738209235375676e-04  -3.6355145136411404e-04  4.0305652270544869e-04  -4.9832833486478068e-04  4.1170942392870059e-04  -3.6303405468259480e-04  1.8409929881458350e-04  -1.1587305527919576e-04  -5.9299818414773549e-05  1.0589767073914789e-04  -1.8021171260366992e-04  -4.5846114216713318e-05  3.5023744012089788e-04  -8.8456893159437420e-04  1.3066849610504450e-03  -1.9494084411891979e-03  2.7160030768151227e-03  -3.9207185929535744e-03  5.0395174217564703e-03  -6.0704346201231824e-03  6.4656158525852117e-03  -6.1981602018800503e-03  4.3237548751169606e-03  -1.0297879585120582e-03  -3.0403463404919482e-03  5.6723755180467378e-03  -5.8217290724802574e-03  1.9279025189897997e-03  6.3347195792420952e-03  -1.7904068495917410e-02  2.7223038233095805e-02  -2.9658930862701348e-02  2.0193331580874222e-02  6.6823439282174260e-03  -4.9330612239503441e-02  8.9467834400755633e-02  8.3978500371151166e-03  -2.0849858734626782e-02  -7.1496073724190571e-03  -5.4872361667692498e-05  7.4204985993182578e-05  -1.7386427770087553e-05  2.4962083821228863e-06  -5.5067482998487977e-07  1.1822012927086537e-06  -1.3536993314134669e-06  4.7613409330303995e-07  -5.3655480171604684e-07  -1.0797689407601543e-06  1.5698610420307349e-06  -2.3609546784702850e-07  -1.7309969571823509e-07  1.7714107544703287e-06  -3.3763000402736648e-06  2.3404585954714011e-06  -9.5901111565954139e-07  -3.7553618927570127e-06  6.8379854565883069e-06  -8.9015585342968835e-06  8.0932692847914431e-06  -7.1054576293083627e-06  6.2331387028817762e-06  -6.7155965439207167e-06  9.7669527514791810e-06  -1.5109556048151907e-05  1.9200983363758253e-05  -1.9220542334957239e-05  1.7011683271327857e-05  -1.4598293061549862e-05  1.1314745039922306e-05  -9.8217992981845595e-06  1.4844383971368273e-05  -2.2749721091496222e-05  2.6886591126178391e-05  -2.7313193938387821e-05  1.9774219810946362e-05  -3.7430532626440034e-08  -1.6907158860324390e-05  2.3411919935279991e-05  -2.8873715974228058e-05  2.5261557272967319e-05  -2.6989997688045499e-05  4.5340393465630597e-05  -3.5375039877436456e-05  3.8946275790077539e-05  1.0234553423645921e-05  -2.0301246278620257e-05  5.2027558154698460e-05  -2.9765774122775103e-05  6.1165556890530910e-05  -9.8090925039496599e-05  2.2019401088221711e-04  -3.0853660601107329e-04  3.9619762405173822e-04  -3.8255509610781309e-04  3.6855922308501988e-04  -2.7983161805561225e-04  1.8408009591350057e-04  2.9129278912698535e-05  -2.1825728974590822e-04  3.6709933907293603e-04  -3.0663102126729454e-04  2.0002554834724139e-04  -5.0548311386452204e-05  -5.6155814777299537e-05  4.2352196723629225e-04  -1.0862783620059094e-03  2.1525190115335613e-03  -3.4402368387271621e-03  5.0749647990857355e-03  -6.5933284911095687e-03  7.2442318831354080e-03  -5.9541549535383374e-03  2.8208898345328456e-03  1.6631994545764685e-