<?xml version="1.0"?>
<VTKFile type="UnstructuredGrid"  version="0.1"  >
<UnstructuredGrid>
<Piece  NumberOfPoints="21600" NumberOfCells="42542">
<Points>
<DataArray  type="Float64"  NumberOfComponents="3"  format="ascii">0 0 0  0.77 0 0  0.77 0.15 0  0 0.15 0  0.003221757322170014 0 0  0.006443514644340046 0 0  0.009665271966510193 0 0  0.01288702928868034 0 0  0.01610878661085048 0 0  0.01933054393302049 0 0  0.02255230125519027 0 0  0.02577405857735967 0 0  0.02899581589952872 0 0  0.03221757322169801 0 0  0.03543933054386744 0 0  0.03866108786603686 0 0  0.04188284518820627 0 0  0.0451046025103757 0 0  0.04832635983254521 0 0  0.05154811715471607 0 0  0.05476987447688695 0 0  0.05799163179905782 0 0  0.06121338912122846 0 0  0.06443514644339859 0 0  0.06765690376556875 0 0  0.0708786610877389 0 0  0.07410041840990904 0 0  0.0773221757320792 0 0  0.08054393305425039 0 0  0.08376569037642198 0 0  0.0869874476985936 0 0  0.09020920502076518 0 0  0.0934309623429339 0 0  0.0966527196651024 0 0  0.09987447698726967 0 0  0.1030962343094369 0 0  0.1063179916316041 0 0  0.1095397489537714 0 0  0.1127615062759386 0 0  0.1159832635981051 0 0  0.1192050209202709 0 0  0.1224267782424358 0 0  0.1256485355646001 0 0  0.1288702928867644 0 0  0.1320920502089288 0 0  0.1353138075310958 0 0  0.1385355648532632 0 0  0.1417573221754333 0 0  0.1449790794976035 0 0  0.1482008368197736 0 0  0.1514225941419428 0 0  0.1546443514641101 0 0  0.157866108786276 0 0  0.1610878661084403 0 0  0.1643096234306047 0 0  0.167531380752769 0 0  0.1707531380749333 0 0  0.1739748953970977 0 0  0.177196652719262 0 0  0.1804184100414264 0 0  0.1836401673635935 0 0  0.1868619246857611 0 0  0.1900836820079313 0 0  0.1933054393301014 0 0  0.1965271966522716 0 0  0.1997489539744406 0 0  0.2029707112966078 0 0  0.2061924686187736 0 0  0.209414225940938 0 0  0.2126359832631022 0 0  0.2158577405852666 0 0  0.219079497907431 0 0  0.2223012552295953 0 0  0.2255230125517597 0 0  0.2287447698739242 0 0  0.2319665271960914 0 0  0.2351882845182592 0 0  0.2384100418404293 0 0  0.2416317991625994 0 0  0.2448535564847696 0 0  0.2480753138069371 0 0  0.2512970711291014 0 0  0.2545188284512658 0 0  0.2577405857734302 0 0  0.2609623430955986 0 0  0.2641841004177688 0 0  0.2674058577399389 0 0  0.270627615062109 0 0  0.2738493723842792 0 0  0.2770711297064487 0 0  0.280292887028613 0 0  0.2835146443507774 0 0  0.2867364016729417 0 0  0.2899581589951061 0 0  0.2931799163172705 0 0  0.2964016736394348 0 0  0.2996234309615992 0 0  0.3028451882837672 0 0  0.3060669456059373 0 0  0.3092887029281075 0 0  0.3125104602502776 0 0  0.3157322175724478 0 0  0.3189539748946177 0 0  0.322175732216782 0 0  0.3253974895389464 0 0  0.3286192468611107 0 0  0.3318410041832751 0 0  0.3350627615054395 0 0  0.3382845188276038 0 0  0.3415062761497681 0 0  0.3447280334719325 0 0  0.3479497907940968 0 0  0.3511715481162612 0 0  0.3543933054384255 0 0  0.3576150627605947 0 0  0.3608368200827649 0 0  0.364058577404935 0 0  0.3672803347271051 0 0  0.3705020920492753 0 0  0.373723849371444 0 0  0.3769456066936084 0 0  0.3801673640157748 0 0  0.383389121337945 0 0  0.3866108786601209 0 0  0.3898326359823028 0 0  0.3930543933044846 0 0  0.3962761506266662 0 0  0.399497907948848 0 0  0.4027196652710298 0 0  0.4059414225932116 0 0  0.4091631799153934 0 0  0.4123849372375751 0 0  0.4156066945597569 0 0  0.4188284518819387 0 0  0.4220502092041222 0 0  0.4252719665263097 0 0  0.4284937238484974 0 0  0.4317154811706849 0 0  0.4349372384928725 0 0  0.4381589958150601 0 0  0.4413807531372476 0 0  0.4446025104594352 0 0  0.4478242677816181 0 0  0.4510460251037998 0 0  0.4542677824259815 0 0  0.4574895397481634 0 0  0.4607112970703451 0 0  0.4639330543925269 0 0  0.4671548117147087 0 0  0.4703765690368904 0 0  0.4735983263590722 0 0  0.4768200836812568 0 0  0.4800418410034444 0 0  0.483263598325632 0 0  0.4864853556478196 0 0  0.4897071129700028 0 0  0.4929288702921845 0 0  0.4961506276143663 0 0  0.4993723849365479 0 0  0.5025941422587239 0 0  0.5058158995809008 0 0  0.5090376569030826 0 0  0.5122594142252677 0 0  0.515481171547461 0 0  0.5187029288696494 0 0  0.5219246861918312 0 0  0.525146443514013 0 0  0.5283682008361947 0 0  0.5315899581583845 0 0  0.5348117154805778 0 0  0.5380334728027617 0 0  0.5412552301249435 0 0  0.5444769874471141 0 0  0.5476987447692853 0 0  0.550920502091467 0 0  0.5541422594136513 0 0  0.5573640167358447 0 0  0.560585774058034 0 0  0.5638075313802158 0 0  0.5670292887023975 0 0  0.5702510460245793 0 0  0.5734728033467682 0 0  0.5766945606689615 0 0  0.579916317991155 0 0  0.5831380753133483 0 0  0.5863598326355314 0 0  0.5895815899577131 0 0  0.5928033472798949 0 0  0.5960251046020785 0 0  0.5992468619242718 0 0  0.6024686192464619 0 0  0.6056903765686437 0 0  0.6089121338908206 0 0  0.6121338912129908 0 0  0.6153556485351673 0 0  0.618577405857349 0 0  0.6217991631795386 0 0  0.625020920501732 0 0  0.6282426778239159 0 0  0.6314644351460976 0 0  0.6346861924682795 0 0  0.6379079497904622 0 0  0.6411297071126555 0 0  0.6443514644348465 0 0  0.6475732217570283 0 0  0.650794979079206 0 0  0.6540167364013761 0 0  0.6572384937235518 0 0  0.6604602510457335 0 0  0.6636820083679225 0 0  0.6669037656901158 0 0  0.6701255230123004 0 0  0.6733472803344823 0 0  0.6765690376566641 0 0  0.6797907949788459 0 0  0.6830125523010393 0 0  0.686234309623231 0 0  0.6894560669454127 0 0  0.6926778242675914 0 0  0.6958995815897615 0 0  0.6991213389119363 0 0  0.7023430962341181 0 0  0.7055648535563062 0 0  0.7087866108784994 0 0  0.712008368200685 0 0  0.7152301255228668 0 0  0.7184518828450486 0 0  0.7216736401672305 0 0  0.724895397489423 0 0  0.7281171548116155 0 0  0.7313389121337973 0 0  0.7345606694559768 0 0  0.7377824267781468 0 0  0.7410041841003209 0 0  0.7442259414225026 0 0  0.7474476987446899 0 0  0.7506694560668832 0 0  0.7538912133890696 0 0  0.7571129707112513 0 0  0.760334728033433 0 0  0.7635564853556149 0 0  0.7667782426778067 0 0  0.77 0.001685393258423789 0  0.77 0.003370786516847669 0  0.77 0.005056179775271247 0  0.77 0.006741573033694517 0  0.77 0.008426966292117821 0  0.77 0.01011235955054176 0  0.77 0.01179775280896623 0  0.77 0.0134831460673904 0  0.77 0.01516853932581489 0  0.77 0.01685393258423891 0  0.77 0.01853932584266291 0  0.77 0.02022471910108589 0  0.77 0.02191011235950794 0  0.77 0.02359550561792999 0  0.77 0.02528089887635205 0  0.77 0.02696629213477411 0  0.77 0.02865168539319714 0  0.77 0.03033707865161956 0  0.77 0.03202247191004162 0  0.77 0.03370786516846367 0  0.77 0.03539325842688572 0  0.77 0.03707865168530778 0  0.77 0.03876404494372984 0  0.77 0.0404494382021519 0  0.77 0.04213483146057394 0  0.77 0.04382022471899601 0  0.77 0.04550561797741807 0  0.77 0.04719101123584013 0  0.77 0.04887640449426219 0  0.77 0.05056179775268425 0  0.77 0.0522471910111063 0  0.77 0.05393258426952837 0  0.77 0.05561797752795105 0  0.77 0.05730337078637505 0  0.77 0.05898876404479723 0  0.77 0.0606741573032193 0  0.77 0.06235955056164135 0  0.77 0.06404494382006341 0  0.77 0.06573033707848548 0  0.77 0.06741573033690752 0  0.77 0.06910112359532959 0  0.77 0.07078651685375165 0  0.77 0.0724719101121737 0  0.77 0.07415730337059653 0  0.77 0.07584269662902443 0  0.77 0.07752808988745429 0  0.77 0.07921348314588413 0  0.77 0.08089887640431678 0  0.77 0.08258426966274923 0  0.77 0.08426966292117907 0  0.77 0.08595505617960987 0  0.77 0.08764044943804362 0  0.77 0.08932584269647403 0  0.77 0.09101123595490389 0  0.77 0.09269662921333673 0  0.77 0.09438202247176901 0  0.77 0.09606741573019884 0  0.77 0.09775280898862983 0  0.77 0.09943820224706355 0  0.77 0.1011235955054938 0  0.77 0.1028089887639236 0  0.77 0.1044943820223567 0  0.77 0.1061797752807888 0  0.77 0.1078651685392186 0  0.77 0.1095505617976498 0  0.77 0.1112359550560835 0  0.77 0.1129213483145136 0  0.77 0.1146067415729456 0  0.77 0.1162921348313787 0  0.77 0.1179775280898085 0  0.77 0.1196629213482387 0  0.77 0.1213483146066724 0  0.77 0.1230337078651035 0  0.77 0.1247191011235322 0  0.77 0.1264044943819605 0  0.77 0.1280898876403903 0  0.77 0.1297752808988242 0  0.77 0.1314606741572554 0  0.77 0.1331460674156853 0  0.77 0.1348314606741154 0  0.77 0.1365168539325504 0  0.77 0.1382022471909802 0  0.77 0.13988764044941 0  0.77 0.1415730337078443 0  0.77 0.1432584269662752 0  0.77 0.144943820224705 0  0.77 0.1466292134831355 0  0.77 0.1483146067415701 0  0.7667782426778414 0.15 0  0.7635564853556813 0.15 0  0.7603347280335111 0.15 0  0.757112970711341 0.15 0  0.7538912133891708 0.15 0  0.7506694560670005 0.15 0  0.7474476987448303 0.15 0  0.7442259414226602 0.15 0  0.74100418410049 0.15 0  0.7377824267783197 0.15 0  0.7345606694561496 0.15 0  0.7313389121339794 0.15 0  0.7281171548118092 0.15 0  0.724895397489639 0.15 0  0.7216736401674688 0.15 0  0.7184518828452986 0.15 0  0.7152301255231284 0.15 0  0.7120083682009583 0.15 0  0.708786610878788 0.15 0  0.7055648535566178 0.15 0  0.7023430962344477 0.15 0  0.6991213389122775 0.15 0  0.6958995815901072 0.15 0  0.692677824267937 0.15 0  0.6894560669457669 0.15 0  0.6862343096235967 0.15 0  0.6830125523014264 0.15 0  0.6797907949792563 0.15 0  0.6765690376570861 0.15 0  0.6733472803349159 0.15 0  0.6701255230127456 0.15 0  0.6669037656905755 0.15 0  0.6636820083684053 0.15 0  0.6604602510462351 0.15 0  0.657238493724065 0.15 0  0.6540167364018947 0.15 0  0.6507949790797245 0.15 0  0.6475732217575543 0.15 0  0.644351464435384 0.15 0  0.6411297071132231 0.15 0  0.6379079497910645 0.15 0  0.634686192468906 0.15 0  0.6314644351467468 0.15 0  0.6282426778245765 0.15 0  0.6250209205024085 0.15 0  0.62179916318025 0.15 0  0.6185774058580914 0.15 0  0.6153556485359328 0.15 0  0.6121338912137689 0.15 0  0.6089121338915987 0.15 0  0.6056903765694354 0.15 0  0.6024686192472768 0.15 0  0.5992468619251182 0.15 0  0.5960251046029597 0.15 0  0.5928033472807912 0.15 0  0.589581589958621 0.15 0  0.5863598326364508 0.15 0  0.5831380753142792 0.15 0  0.5799163179920974 0.15 0  0.57669456
[...]
<PointData  Scalars="concentration"> 
<DataArray  type="Float64"  Name="concentration"  format="ascii">0.0000000000000000e+00  1.0000000000000013e+00  9.9980255039066857e-01  0.0000000000000000e+00  7.3852370930043973e-02  -1.0402012793169452e-02  -1.2193986659054483e-01  5.8254954085065702e-01  8.5963530124574461e-01  8.5740488611751997e-01  8.6284041300833292e-01  8.6300411746682015e-01  8.6257821714005789e-01  8.6230257527067167e-01  8.6224259813946869e-01  8.6225779220192222e-01  8.6232820622977868e-01  8.6251013948577060e-01  8.6259472041677987e-01  8.6286625069905565e-01  8.6296221769159220e-01  8.6324802747693463e-01  8.6340087783103991e-01  8.6365581807811842e-01  8.6387487662482976e-01  8.6413144261460328e-01  8.6436959884022035e-01  8.6467149990586067e-01  8.6495408477736679e-01  8.6521333923143340e-01  8.6568841264622320e-01  8.6580769329806972e-01  8.6645041313415894e-01  8.6666821411567263e-01  8.6708894345271093e-01  8.6784931216991157e-01  8.6775640189263958e-01  8.6910737136166638e-01  8.6874377975714012e-01  8.7029404099025398e-01  8.7009308548616526e-01  8.7151096256854144e-01  8.7172404274113857e-01  8.7287374034347631e-01  8.7354974778747441e-01  8.7457250623820149e-01  8.7543566347508683e-01  8.7665276151712235e-01  8.7762698720030752e-01  8.7881452441228347e-01  8.8027142209387743e-01  8.8141913981306452e-01  8.8279450932719927e-01  8.8473394762654889e-01  8.8587367858852684e-01  8.8750081116509483e-01  8.9015391249394926e-01  8.9095877546429203e-01  8.9285670126413663e-01  8.9677842470864488e-01  8.9623862890671147e-01  8.9858403414763721e-01  9.0500340758528930e-01  9.0004956638925937e-01  9.0395795503474496e-01  9.1500385599133238e-01  8.9646510367534971e-01  9.0281644784078741e-01  9.2689745610537211e-01  7.7919738950721640e-01  7.6414542080550163e-01  7.0981939210012768e-01  7.0755419312439538e-01  7.2347263601848155e-01  7.3380519657855203e-01  7.3059445030984027e-01  7.4184675443018600e-01  7.4666384395433971e-01  7.2763228792364643e-01  7.5861041548781838e-01  7.6669820049412263e-01  7.3881897892405335e-01  8.4309507608959400e-01  6.8140431879148189e-01  1.0035177919910852e+00  1.0379819766918952e+00  1.0301361489235634e+00  1.0180689153228273e+00  1.0096961788923049e+00  1.0049326544810904e+00  1.0024378847670072e+00  1.0011846107766829e+00  1.0005694558176057e+00  1.0002717345690386e+00  1.0001289483179192e+00  1.0000609194433678e+00  1.0000286664379536e+00  1.0000134427067002e+00  1.0000062819267410e+00  1.0000029267784150e+00  1.0000013591138834e+00  1.0000006294660886e+00  1.0000002906064034e+00  1.0000001338653544e+00  1.0000000614765143e+00  1.0000000281839441e+00  1.0000000128832003e+00  1.0000000058842633e+00  1.0000000026779154e+00  1.0000000012215287e+00  1.0000000005521712e+00  1.0000000002536096e+00  1.0000000001123424e+00  1.0000000000535090e+00  1.0000000000219822e+00  1.0000000000119880e+00  1.0000000000037248e+00  1.0000000000031262e+00  1.0000000000002554e+00  1.0000000000010505e+00  9.9999999999974465e-01  1.0000000000004601e+00  9.9999999999975575e-01  1.0000000000002600e+00  9.9999999999980016e-01  1.0000000000002058e+00  9.9999999999979849e-01  1.0000000000002247e+00  9.9999999999975575e-01  1.0000000000002729e+00  9.9999999999970990e-01  1.0000000000003031e+00  9.9999999999971190e-01  1.0000000000002407e+00  9.9999999999986300e-01  9.9999999999996891e-01  1.0000000000002855e+00  9.9999999999937117e-01  1.0000000000010556e+00  9.9999999999846634e-01  1.0000000000020237e+00  9.9999999999754186e-01  1.0000000000027784e+00  9.9999999999707434e-01  1.0000000000028910e+00  9.9999999999730738e-01  1.0000000000024152e+00  9.9999999999785893e-01  1.0000000000019456e+00  9.9999999999818434e-01  1.0000000000016622e+00  9.9999999999868860e-01  1.0000000000006177e+00  1.0000000000004909e+00  9.9999999999803313e-01  1.0000000000037832e+00  9.9999999999388689e-01  1.0000000000095379e+00  9.9999999998501354e-01  1.0000000000234166e+00  9.9999999996474842e-01  1.0000000000501204e+00  9.9999999993265298e-01  1.0000000000877141e+00  9.9999999988392507e-01  1.0000000001639981e+00  9.9999999974927389e-01  1.0000000004012206e+00  9.9999999935934880e-01  1.0000000009864958e+00  9.9999999855957100e-01  1.0000000019830926e+00  9.9999999742613876e-01  1.0000000031564928e+00  9.9999999633076941e-01  1.0000000040567067e+00  9.9999999571978304e-01  1.0000000043238753e+00  9.9999999580461807e-01  1.0000000039220418e+00  9.9999999645640492e-01  1.0000000031041698e+00  9.9999999735490663e-01  1.0000000021999027e+00  9.9999999820814567e-01  1.0000000014339558e+00  9.9999999886914970e-01  1.0000000008818326e+00  9.9999999931633277e-01  1.0000000005320806e+00  9.9999999957898600e-01  1.0000000003404004e+00  9.9999999972497566e-01  1.0000000002079625e+00  9.9999999986952393e-01  1.0000000000553351e+00  9.9999999997626732e-01  1.0000000000926887e+00  9.9999999970529585e-01  1.0000000005777716e+00  9.9999999924507343e-01  1.0000000005060741e+00  1.0000000005356853e+00  9.9999999738036471e-01  1.0000000056957459e+00  9.9999999068711221e-01  1.0000000126817254e+00  9.9999998508474264e-01  1.0000000153612076e+00  9.9999998612771879e-01  1.0000000108747424e+00  9.9999999280591478e-01  1.0000000037253722e+00  9.9999999888618574e-01  9.9999999959147234e-01  1.0000000009846144e+00  9.9999999904209746e-01  1.0000000006790069e+00  9.9999999961447827e-01  1.0000000001793334e+00  9.9999999993199085e-01  1.0000000000204921e+00  9.9999999999536260e-01  1.0000000000006943e+00  9.9999999999995981e-01  9.9999999999999445e-01  1.0000000000000029e+00  9.9999999999999989e-01  1.0000000000000007e+00  1.0000000000000029e+00  9.9999999999999978e-01  1.0000000000000016e+00  1.0000000000000033e+00  1.0000000000000020e+00  1.0000000000000009e+00  1.0000000000000029e+00  9.9999999999999989e-01  1.0000000000000009e+00  1.0000000000000024e+00  1.0000000000000011e+00  1.0000000000000013e+00  1.0000000000000013e+00  1.0000000000000002e+00  1.0000000000000002e+00  1.0000000000000007e+00  1.0000000000000007e+00  1.0000000000000011e+00  9.9999999999999978e-01  1.0000000000000011e+00  1.0000000000000007e+00  1.0000000000000009e+00  1.0000000000000007e+00  1.0000000000000002e+00  1.0000000000000009e+00  1.0000000000000007e+00  1.0000000000000000e+00  1.0000000000000016e+00  1.0000000000000000e+00  1.0000000000000020e+00  9.9999999999999711e-01  1.0000000000000129e+00  9.9999999999996014e-01  1.0000000000001308e+00  9.9999999999960953e-01  1.0000000000010261e+00  9.9999999999805322e-01  9.9999999999974121e-01  1.0000000000272522e+00  9.9999999983151910e-01  1.0000000006348737e+00  9.9999999891388480e-01  9.9999999534605977e-01  1.0000000389312331e+00  9.9999997977429078e-01  9.9999914751768093e-01  9.9999733675155555e-01  9.9999542471666447e-01  9.9999273982569448e-01  9.9998893068182160e-01  9.9998897917316232e-01  9.9998848026281084e-01  9.9997123309220570e-01  9.9994996277395065e-01  9.9995025925756276e-01  9.9994892488349585e-01  9.9992070128305743e-01  9.9989859710888040e-01  9.9991141432938480e-01  9.9994016490570581e-01  9.9996216147461692e-01  9.9997451247991931e-01  9.9998182115602585e-01  9.9995757549596576e-01  9.9987531632425997e-01  9.9978173765173284e-01  9.9967418179569001e-01  9.9955950895415169e-01  9.9954783000521230e-01  9.9949347145732204e-01  9.9924627339882666e-01  9.9905898498364776e-01  9.9901382246128323e-01  9.9895887044176568e-01  9.9890863637612548e-01  9.9886842406421672e-01  9.9882147602176585e-01  9.9879351146904138e-01  9.9876526682971767e-01  9.9873295071944623e-01  9.9871100612566499e-01  9.9869267995713451e-01  9.9867025298450118e-01  9.9865390307396706e-01  9.9865459363465992e-01  9.9863832513164585e-01  9.9864799777445368e-01  9.9873698172156211e-01  9.9845816130861387e-01  9.9808523334186083e-01  9.9914076150633702e-01  9.9997270897468638e-01  9.9898425080189490e-01  9.9927664218913315e-01  9.9921903270026335e-01  9.9919547429954159e-01  9.9935386974162943e-01  9.9760163436791116e-01  9.9561560869425381e-01  9.9547501274119987e-01  1.0015098100416950e+00  9.9980785079183798e-01  9.9988337619632550e-01  9.9944601264980482e-01  9.9942199975182933e-01  9.9938188085169466e-01  9.9883885103781966e-01  9.9867791083681656e-01  9.9819305406704883e-01  9.9754266989101625e-01  9.9683349939005639e-01  9.9592070401462551e-01  9.9475395714509263e-01  9.9348716167719642e-01  9.9211592766128331e-01  9.9083621528937715e-01  9.9010986355709563e-01  9.9076818841990022e-01  9.9445726952584779e-01  1.0046540320309441e+00  1.0289656474310265e+00  1.0819907517825376e+00  1.1674388222340495e+00  8.2839585437148289e-01  6.3527810027921816e-01  9.7672289584209948e-01  1.0233486743203928e+00  9.3949433394832560e-01  6.3975817914992505e-01  1.3073825465395903e+00  7.6242030143954664e-01  9.1574675139675610e-01  1.0188798155677603e+00  8.0622160635971918e-01  9.7779206579187483e-01  1.0057905458542271e+00  8.7604571365802097e-01  1.0418114454107208e+00  9.1787903900381840e-01  9.2888984958889975e-01  1.0508377236465294e+00  1.0534195437204197e+00  9.1712708706855639e-01  1.0974173562816971e+00  9.3146578188114626e-01  1.0880085929212371e+00  9.1579417539336161e-01  9.2287167687706129e-01  1.2015977176529897e+00  8.6736778027640027e-01  9.8688582235310229e-01  9.4663313435190621e-01  9.6449206935748555e-01  9.2415428857996196e-01  9.2738679182276129e-01  9.2387367289748690e-01  9.1636673689674775e-01  9.3036152765849589e-01  1.1444317297357707e+00  8.9168831382847691e-01  4.4642955840571130e-01  8.3496740410058251e-02  -3.9660620710058536e-01  -9.6408708452035918e-01  1.9087898654173638e-01  3.4643806634330099e-01  5.0761509354658195e-02  2.5751547779200329e-01  5.2515689794773124e-01  7.2931117764570352e-01  1.0006820222662112e+00  4.3429991559433410e-02  -3.6347230687005121e-02  7.8658955048770374e-01  6.2660356252974017e-02  4.0090107749584475e-01  1.2620343168031223e+00  -1.8311276446041971e-01  -4.4598725278118706e-01  4.9867142346280763e-01  8.1771879807196790e-01  -3.7751707269475454e-01  2.9284684371172304e-01  1.0099365967999341e+00  -2.5430543718512538e-01  2.8883375998832506e-01  1.0009002907107796e+00  -7.4984013877040276e-02  2.4426257882523700e-01  9.6666310595074167e-01  3.5506641913596072e-02  1.0843630597234137e-01  1.0726298598911228e+00  -6.1857811095682599e-02  2.3415406563888458e-01  9.3668022554664476e-01  -8.3364831778081780e-02  3.2408935951177653e-01  7.3579712163853173e-01  -3.3046750737713279e-02  1.9577882674408246e-02  6.8417445331740878e-01  1.0779549499678287e+00  2.1509308878444322e-01  -3.1179222732169609e-01  1.4529088915594729e-01  -2.1048926361778228e-02  -1.4358347016711009e-01  1.0984633547548879e-01  2.9854161797394396e-01  2.6244909398310889e-01  1.2430868360144169e+00  -1.6720261595074870e-01  1.2102347185333280e+00  6.7238532153038721e-01  -1.2682458376167088e-01  9.9187391809629499e-01  1.0905332940471342e-01  6.3112403516945803e-01  -1.1400629735163965e-01  1.1529407714287944e-01  6.5972062967531964e-01  1.0002775625223239e+00  2.8987732330027760e-01  -2.0709687663673207e-01  4.6042033244233566e-01  7.4354429927031318e-01  -9.2019865042183402e-02  3.9803370094083729e-01  1.2080874758178652e+00  2.1224669420313344e-01  -3.6555548651081821e-01  4.9548771139254821e-02  2.6406430395627029e-01  1.5820120272744873e-01  4.1895461949380308e-01  7.2289648120733374e-01  -1.0134774142535638e-01  2.9936911962196117e-01  8.1157442706020266e-01  -1.8662486610284335e-01  1.0404609474609169e-01  6.5920755345007298e-01  1.0159058727950045e+00  2.4624748817402575e-01  -2.8055969796106817e-01  1.1717261599006513e-01  2.6031323865697908e-01  3.4396404350346155e-01  6.9703839649020749e-01  4.7258494151515396e-02  6.7294627043711708e-01  1.6201691877418953e+00  1.9479740001880543e+00  1.8828267626811561e+00  1.9401722952816773e+00  1.9118110855160166e+00  1.8639029728053778e+00  1.8624181678976233e+00  1.8769654506976681e+00  1.7792564166297893e+00  1.8078707164100658e+00  1.7516504847460230e+00  1.7426450624301342e+00  1.6526556495170985e+00  1.7183417532560146e+00  1.6057169102509099e+00  1.6202526199525111e+00  1.6431186041118404e+00  1.5610952104056803e+00  1.6531821444540407e+00  1.6953316281673934e+00  1.8146725502043506e+00  1.7315140067394161e+00  1.3667039195205133e+00  1.7737423091414657e+00  8.5673863468825895e-01  1.6159771472500675e+00  1.3595970761887834e+00  1.1491799443471999e+00  1.4384251122614931e+00  1.3249655629693002e+00  1.2852797273610421e+00  1.5552720399563151e+00  1.2771133178222793e+00  1.7788884205037423e+00  1.2404710445930773e+00  1.6236974328873683e+00  9.5642174982032324e-01  3.7319027536825689e-01  9.9564906496548877e-01  1.1386035333875266e+00  3.7843192881797293e-02  1.2643369138431939e+00  1.0883298574219125e+00  1.9558316543558611e-02  1.1940017869007309e+00  8.7956831346413189e-01  -2.1810138337186374e-01  3.2866804517307274e-01  9.0853369194059586e-01  7.2155365878815186e-02  2.4297445254552522e-01  1.4950190254398454e+00  8.7135033513845828e-01  1.1989587096891958e+00  3.4137995089901751e-01  1.0243647651038954e+00  1.3904638030288996e+00  9.1520332925919412e-01  1.8691027001836516e-01  1.3061046171786082e+00  9.9109006932112953e-01  1.4174317346407059e+00  1.1078396268732640e+00  1.2220316520408609e+00  1.3028783995732267e+00  1.0800505040355846e+00  1.4659885869430511e+00  1.2694047659276535e+00  1.2555857614295500e+00  1.2717013399332369e+00  1.2302040299896806e+00  1.2815093951038077e+00  1.2665835572012838e+00  1.3468189306521114e+00  1.3100728088541447e+00  1.2576462224806175e+00  1.2251913203587015e+00  1.3274107468426504e+00  1.2559644817263573e+00  1.3222384796645654e+00  1.1863715803238679e+00  1.1991790660053447e+00  1.0335705424038868e+00  8.6362610125764194e-01  -7.3904092028489632e-02  -4.7345413656115852e-02  7.8289905369862148e-02  0.0000000000000000e+00  0.0000000000000000e+00  0.0000000000000000e+00  0.0000000000000000e+00  0.0000000000000000e+00  0.0000000000000000e+00  0.0000000000000000e+00  0.0000000000000000e+00  0.0000000000000000e+00  0.0000000000000000e+00  0.0000000000000000e+00  0.0000000000000000e+00  0.0000000000000000e+00  0.0000000000000000e+00  0.0000000000000000e+00  0.0000000000000000e+00  0.0000000000000000e+00  0.0000000000000000e+00  0.0000000000000000e+00  0.0000000000000000e+00  0.0000000000000000e+00  0.0000000000000000e+00  0.0000000000000000e+00  0.0000000000000000e+00  0.0000000000000000e+00  0.0000000000000000e+00  0.0000000000000000e+00  0.0000000000000000e+00  0.0000000000000000e+00  0.0000000000000000e+00  0.0000000000000000e+00  0.0000000000000000e+00  0.0000000000000000e+00  0.0000000000000000e+00  0.0000000000000000e+00  0.0000000000000000e+00  0.0000000000000000e+00  0.0000000000000000e+00  0.0000000000000000e+00  0.0000000000000000e+00  0.0000000000000000e+00  0.0000000000000000e+00  0.0000000000000000e+00  0.0000000000000000e+00  0.0000000000000000e+00  0.0000000000000000e+00  0.0000000000000000e+00  0.0000000000000000e+00  0.0000000000000000e+00  0.0000000000000000e+00  0.0000000000000000e+00  0.0000000000000000e+00  0.0000000000000000e+00  0.0000000000000000e+00  0.0000000000000000e+00  0.0000000000000000e+00  0.0000000000000000e+00  0.0000000000000000e+00  0.0000000000000000e+00  0.0000000000000000e+00  0.0000000000000000e+00  0.0000000000000000e+00  0.0000000000000000e+00  0.0000000000000000e+00  0.0000000000000000e+00  0.0000000000000000e+00  0.0000000000000000e+00  0.0000000000000000e+00  0.0000000000000000e+00  0.0000000000000000e+00  0.0000000000000000e+00  0.0000000000000000e+00  0.0000000000000000e+00  0.0000000000000000e+00  0.0000000000000000e+00  0.0000000000000000e+00  0.0000000000000000e+00  0.0000000000000000e+00  0.0000000000000000e+00  0.0000000000000000e+00  0.0000000000000000e+00  0.0000000000000000e+00  0.0000000000000000e+00  0.0000000000000000e+00  0.0000000000000000e+00  0.0000000000000000e+00  0.0000000000000000e+00  0.0000000000000000e+00  -2.0834776831415217e-02  -8.3202656086221377e-02  -4.2455224250194518e-02  -7.2188016166957851e-03  1.2018188258833054e-04  3.2625739403675352e-05  -8.5747373007910056e-06  8.9938214446923279e-08  1.8957287698401775e-06  -1.1448549614829053e-07  9.0362809590782140e-07  2.1177275543348942e-06  -2.3548453535854806e-06  3.1013186876528786e-06  -9.1404352800686413e-07  1.3967903950658698e-07  1.5010242018332154e-06  -1.5952505195741634e-06  -3.5688554474926785e-06  6.7747246694994345e-06  -1.3997691925475645e-05  2.1111981028616068e-05  -2.1727075180572665e-05  2.2080638824424775e-05  -1.6614898405924609e-05  1.8151576216355676e-05  -1.9985374514595212e-05  2.4845662537100201e-05  -3.1033428415485676e-05  3.8675073267505823e-05  -3.9019989880758166e-05  3.0186517914068662e-05  -2.1265985885415078e-05  1.6628298811550635e-05  -1.3129301540869869e-05  1.8091041050898934e-05  -3.3024870020490676e-05  3.4933688030625006e-05  -1.8248684787243690e-05  5.3703585387681594e-07  2.7672210875206696e-05  -5.3796266873828440e-05  3.9611665123848695e-05  -3.4185420076974506e-05  3.3910924607910023e-05  -1.5967457428800391e-06  5.1677462388725860e-05  3.8214281047533157e-05  -1.1399549555140597e-05  1.5976306274942799e-04  -1.1764884003692638e-04  2.1862548418054734e-04  -1.3699906076696287e-04  2.7385312817101694e-04  -2.9013268859364496e-04  4.9940927614524602e-04  -4.6469867602284641e-04  5.1548835174981941e-04  -3.0933031663496930e-04  2.8749022793932643e-04  -7.2039804748149120e-05  3.5476581700709889e-05  2.2306992801455198e-04  -1.6510387671018345e-04  9.4666709398321923e-05  4.3584237802493664e-04  -8.0382042860864826e-04  1.3858515460147955e-03  -1.8090694605160460e-03  2.8143861011605468e-03  -3.8546759306537248e-03  5.2010397352482253e-03  -5.9993522509979033e-03  6.7104532740122954e-03  -6.2834110099816241e-03  4.6597212257663166e-03  -9.6218231003012615e-04  -2.9049139042811741e-03  5.9034162807364123e-03  -5.7705898320836542e-03  2.2092770108268680e-03  6.4970107597003175e-03  -1.7639907925809679e-02  2.7463780271101617e-02  -2.9543123972443793e-02  2.0278412031204739e-02  7.3131724215003881e-03  -4.9081499634022890e-02  8.9475968262832550e-02  8.4628234487691186e-03  -2.0854771669479664e-02  -7.1914317407004652e-03  -6.2343415135918598e-05  7.5749463022556924e-05  -1.7550994800358202e-05  3.3981849323008660e-06  -2.3496993580561055e-06  1.5082945079852394e-06  -2.4062479502861400e-06  2.0231400690547977e-06  -8.4549989782418184e-07  -1.4172408233963171e-06  2.3559301677582029e-06  -2.4875852194459230e-06  1.5630618593587671e-06  2.5561449956556152e-06  -4.2249066895217206e-06  5.5599881809850858e-06  -5.7170433394074909e-06  3.3633933006199356e-09  5.9561282472654509e-06  -1.2484805889302334e-05  1.2747347451047498e-05  -1.0320531934652002e-05  7.8328380215185802e-06  -6.0405605139420061e-06  5.6307673148040479e-06  -1.1138068712269887e-05  2.2122774420740032e-05  -2.9010757093023604e-05  2.7694526114560486e-05  -2.3317986236407425e-05  1.4942821756333103e-05  -3.2677076947093395e-06  4.6786335084065203e-06  -2.1174975987592672e-05  3.2822773768253259e-05  -3.9773742039971095e-05  3.7988253021793821e-05  -6.8705362065020449e-06  -1.6518931637942305e-05  2.1470420785619388e-05  -3.9053998486576529e-05  7.7287014835515707e-06  -4.8058176789787961e-05  3.4553561203270012e-05  -8.2718930894040783e-05  3.0479629086554324e-05  -1.7723827366675777e-05  -6.1635319682398082e-05  3.6141407210258059e-05  -4.6491917906902301e-05  3.5907561362380409e-06  -9.8456144137419631e-05  1.8592130961010732e-04  -3.5025975440275246e-04  3.7969343976374729e-04  -4.2247457738216529e-04  3.5969322513199954e-04  -3.5953963428249011e-04  2.0063432065741698e-04  -1.4873775589442105e-05  -2.9502788135711539e-04  3.8370548616085574e-04  -3.6730849243461392e-04  1.6446216625234537e-04  -1.2124042418733192e-04  -3.6808848188866084e-05  3.2584712296876791e-04  -1.1015558610591128e-03  2.0551151537889635e-03  -3.4256394209755577e-03  5.0212554877225963e-03  -6.7698286472030363e-03  7.3608926829437683e-03  -6.1744404924094923e-03  2.8626709458166710e-03  1.5636979466061404e-03  -6.4426627