<?xml version="1.0"?>
<VTKFile type="UnstructuredGrid"  version="0.1"  >
<UnstructuredGrid>
<Piece  NumberOfPoints="21600" NumberOfCells="42542">
<Points>
<DataArray  type="Float64"  NumberOfComponents="3"  format="ascii">0 0 0  0.77 0 0  0.77 0.15 0  0 0.15 0  0.003221757322170014 0 0  0.006443514644340046 0 0  0.009665271966510193 0 0  0.01288702928868034 0 0  0.01610878661085048 0 0  0.01933054393302049 0 0  0.02255230125519027 0 0  0.02577405857735967 0 0  0.02899581589952872 0 0  0.03221757322169801 0 0  0.03543933054386744 0 0  0.03866108786603686 0 0  0.04188284518820627 0 0  0.0451046025103757 0 0  0.04832635983254521 0 0  0.05154811715471607 0 0  0.05476987447688695 0 0  0.05799163179905782 0 0  0.06121338912122846 0 0  0.06443514644339859 0 0  0.06765690376556875 0 0  0.0708786610877389 0 0  0.07410041840990904 0 0  0.0773221757320792 0 0  0.08054393305425039 0 0  0.08376569037642198 0 0  0.0869874476985936 0 0  0.09020920502076518 0 0  0.0934309623429339 0 0  0.0966527196651024 0 0  0.09987447698726967 0 0  0.1030962343094369 0 0  0.1063179916316041 0 0  0.1095397489537714 0 0  0.1127615062759386 0 0  0.1159832635981051 0 0  0.1192050209202709 0 0  0.1224267782424358 0 0  0.1256485355646001 0 0  0.1288702928867644 0 0  0.1320920502089288 0 0  0.1353138075310958 0 0  0.1385355648532632 0 0  0.1417573221754333 0 0  0.1449790794976035 0 0  0.1482008368197736 0 0  0.1514225941419428 0 0  0.1546443514641101 0 0  0.157866108786276 0 0  0.1610878661084403 0 0  0.1643096234306047 0 0  0.167531380752769 0 0  0.1707531380749333 0 0  0.1739748953970977 0 0  0.177196652719262 0 0  0.1804184100414264 0 0  0.1836401673635935 0 0  0.1868619246857611 0 0  0.1900836820079313 0 0  0.1933054393301014 0 0  0.1965271966522716 0 0  0.1997489539744406 0 0  0.2029707112966078 0 0  0.2061924686187736 0 0  0.209414225940938 0 0  0.2126359832631022 0 0  0.2158577405852666 0 0  0.219079497907431 0 0  0.2223012552295953 0 0  0.2255230125517597 0 0  0.2287447698739242 0 0  0.2319665271960914 0 0  0.2351882845182592 0 0  0.2384100418404293 0 0  0.2416317991625994 0 0  0.2448535564847696 0 0  0.2480753138069371 0 0  0.2512970711291014 0 0  0.2545188284512658 0 0  0.2577405857734302 0 0  0.2609623430955986 0 0  0.2641841004177688 0 0  0.2674058577399389 0 0  0.270627615062109 0 0  0.2738493723842792 0 0  0.2770711297064487 0 0  0.280292887028613 0 0  0.2835146443507774 0 0  0.2867364016729417 0 0  0.2899581589951061 0 0  0.2931799163172705 0 0  0.2964016736394348 0 0  0.2996234309615992 0 0  0.3028451882837672 0 0  0.3060669456059373 0 0  0.3092887029281075 0 0  0.3125104602502776 0 0  0.3157322175724478 0 0  0.3189539748946177 0 0  0.322175732216782 0 0  0.3253974895389464 0 0  0.3286192468611107 0 0  0.3318410041832751 0 0  0.3350627615054395 0 0  0.3382845188276038 0 0  0.3415062761497681 0 0  0.3447280334719325 0 0  0.3479497907940968 0 0  0.3511715481162612 0 0  0.3543933054384255 0 0  0.3576150627605947 0 0  0.3608368200827649 0 0  0.364058577404935 0 0  0.3672803347271051 0 0  0.3705020920492753 0 0  0.373723849371444 0 0  0.3769456066936084 0 0  0.3801673640157748 0 0  0.383389121337945 0 0  0.3866108786601209 0 0  0.3898326359823028 0 0  0.3930543933044846 0 0  0.3962761506266662 0 0  0.399497907948848 0 0  0.4027196652710298 0 0  0.4059414225932116 0 0  0.4091631799153934 0 0  0.4123849372375751 0 0  0.4156066945597569 0 0  0.4188284518819387 0 0  0.4220502092041222 0 0  0.4252719665263097 0 0  0.4284937238484974 0 0  0.4317154811706849 0 0  0.4349372384928725 0 0  0.4381589958150601 0 0  0.4413807531372476 0 0  0.4446025104594352 0 0  0.4478242677816181 0 0  0.4510460251037998 0 0  0.4542677824259815 0 0  0.4574895397481634 0 0  0.4607112970703451 0 0  0.4639330543925269 0 0  0.4671548117147087 0 0  0.4703765690368904 0 0  0.4735983263590722 0 0  0.4768200836812568 0 0  0.4800418410034444 0 0  0.483263598325632 0 0  0.4864853556478196 0 0  0.4897071129700028 0 0  0.4929288702921845 0 0  0.4961506276143663 0 0  0.4993723849365479 0 0  0.5025941422587239 0 0  0.5058158995809008 0 0  0.5090376569030826 0 0  0.5122594142252677 0 0  0.515481171547461 0 0  0.5187029288696494 0 0  0.5219246861918312 0 0  0.525146443514013 0 0  0.5283682008361947 0 0  0.5315899581583845 0 0  0.5348117154805778 0 0  0.5380334728027617 0 0  0.5412552301249435 0 0  0.5444769874471141 0 0  0.5476987447692853 0 0  0.550920502091467 0 0  0.5541422594136513 0 0  0.5573640167358447 0 0  0.560585774058034 0 0  0.5638075313802158 0 0  0.5670292887023975 0 0  0.5702510460245793 0 0  0.5734728033467682 0 0  0.5766945606689615 0 0  0.579916317991155 0 0  0.5831380753133483 0 0  0.5863598326355314 0 0  0.5895815899577131 0 0  0.5928033472798949 0 0  0.5960251046020785 0 0  0.5992468619242718 0 0  0.6024686192464619 0 0  0.6056903765686437 0 0  0.6089121338908206 0 0  0.6121338912129908 0 0  0.6153556485351673 0 0  0.618577405857349 0 0  0.6217991631795386 0 0  0.625020920501732 0 0  0.6282426778239159 0 0  0.6314644351460976 0 0  0.6346861924682795 0 0  0.6379079497904622 0 0  0.6411297071126555 0 0  0.6443514644348465 0 0  0.6475732217570283 0 0  0.650794979079206 0 0  0.6540167364013761 0 0  0.6572384937235518 0 0  0.6604602510457335 0 0  0.6636820083679225 0 0  0.6669037656901158 0 0  0.6701255230123004 0 0  0.6733472803344823 0 0  0.6765690376566641 0 0  0.6797907949788459 0 0  0.6830125523010393 0 0  0.686234309623231 0 0  0.6894560669454127 0 0  0.6926778242675914 0 0  0.6958995815897615 0 0  0.6991213389119363 0 0  0.7023430962341181 0 0  0.7055648535563062 0 0  0.7087866108784994 0 0  0.712008368200685 0 0  0.7152301255228668 0 0  0.7184518828450486 0 0  0.7216736401672305 0 0  0.724895397489423 0 0  0.7281171548116155 0 0  0.7313389121337973 0 0  0.7345606694559768 0 0  0.7377824267781468 0 0  0.7410041841003209 0 0  0.7442259414225026 0 0  0.7474476987446899 0 0  0.7506694560668832 0 0  0.7538912133890696 0 0  0.7571129707112513 0 0  0.760334728033433 0 0  0.7635564853556149 0 0  0.7667782426778067 0 0  0.77 0.001685393258423789 0  0.77 0.003370786516847669 0  0.77 0.005056179775271247 0  0.77 0.006741573033694517 0  0.77 0.008426966292117821 0  0.77 0.01011235955054176 0  0.77 0.01179775280896623 0  0.77 0.0134831460673904 0  0.77 0.01516853932581489 0  0.77 0.01685393258423891 0  0.77 0.01853932584266291 0  0.77 0.02022471910108589 0  0.77 0.02191011235950794 0  0.77 0.02359550561792999 0  0.77 0.02528089887635205 0  0.77 0.02696629213477411 0  0.77 0.02865168539319714 0  0.77 0.03033707865161956 0  0.77 0.03202247191004162 0  0.77 0.03370786516846367 0  0.77 0.03539325842688572 0  0.77 0.03707865168530778 0  0.77 0.03876404494372984 0  0.77 0.0404494382021519 0  0.77 0.04213483146057394 0  0.77 0.04382022471899601 0  0.77 0.04550561797741807 0  0.77 0.04719101123584013 0  0.77 0.04887640449426219 0  0.77 0.05056179775268425 0  0.77 0.0522471910111063 0  0.77 0.05393258426952837 0  0.77 0.05561797752795105 0  0.77 0.05730337078637505 0  0.77 0.05898876404479723 0  0.77 0.0606741573032193 0  0.77 0.06235955056164135 0  0.77 0.06404494382006341 0  0.77 0.06573033707848548 0  0.77 0.06741573033690752 0  0.77 0.06910112359532959 0  0.77 0.07078651685375165 0  0.77 0.0724719101121737 0  0.77 0.07415730337059653 0  0.77 0.07584269662902443 0  0.77 0.07752808988745429 0  0.77 0.07921348314588413 0  0.77 0.08089887640431678 0  0.77 0.08258426966274923 0  0.77 0.08426966292117907 0  0.77 0.08595505617960987 0  0.77 0.08764044943804362 0  0.77 0.08932584269647403 0  0.77 0.09101123595490389 0  0.77 0.09269662921333673 0  0.77 0.09438202247176901 0  0.77 0.09606741573019884 0  0.77 0.09775280898862983 0  0.77 0.09943820224706355 0  0.77 0.1011235955054938 0  0.77 0.1028089887639236 0  0.77 0.1044943820223567 0  0.77 0.1061797752807888 0  0.77 0.1078651685392186 0  0.77 0.1095505617976498 0  0.77 0.1112359550560835 0  0.77 0.1129213483145136 0  0.77 0.1146067415729456 0  0.77 0.1162921348313787 0  0.77 0.1179775280898085 0  0.77 0.1196629213482387 0  0.77 0.1213483146066724 0  0.77 0.1230337078651035 0  0.77 0.1247191011235322 0  0.77 0.1264044943819605 0  0.77 0.1280898876403903 0  0.77 0.1297752808988242 0  0.77 0.1314606741572554 0  0.77 0.1331460674156853 0  0.77 0.1348314606741154 0  0.77 0.1365168539325504 0  0.77 0.1382022471909802 0  0.77 0.13988764044941 0  0.77 0.1415730337078443 0  0.77 0.1432584269662752 0  0.77 0.144943820224705 0  0.77 0.1466292134831355 0  0.77 0.1483146067415701 0  0.7667782426778414 0.15 0  0.7635564853556813 0.15 0  0.7603347280335111 0.15 0  0.757112970711341 0.15 0  0.7538912133891708 0.15 0  0.7506694560670005 0.15 0  0.7474476987448303 0.15 0  0.7442259414226602 0.15 0  0.74100418410049 0.15 0  0.7377824267783197 0.15 0  0.7345606694561496 0.15 0  0.7313389121339794 0.15 0  0.7281171548118092 0.15 0  0.724895397489639 0.15 0  0.7216736401674688 0.15 0  0.7184518828452986 0.15 0  0.7152301255231284 0.15 0  0.7120083682009583 0.15 0  0.708786610878788 0.15 0  0.7055648535566178 0.15 0  0.7023430962344477 0.15 0  0.6991213389122775 0.15 0  0.6958995815901072 0.15 0  0.692677824267937 0.15 0  0.6894560669457669 0.15 0  0.6862343096235967 0.15 0  0.6830125523014264 0.15 0  0.6797907949792563 0.15 0  0.6765690376570861 0.15 0  0.6733472803349159 0.15 0  0.6701255230127456 0.15 0  0.6669037656905755 0.15 0  0.6636820083684053 0.15 0  0.6604602510462351 0.15 0  0.657238493724065 0.15 0  0.6540167364018947 0.15 0  0.6507949790797245 0.15 0  0.6475732217575543 0.15 0  0.644351464435384 0.15 0  0.6411297071132231 0.15 0  0.6379079497910645 0.15 0  0.634686192468906 0.15 0  0.6314644351467468 0.15 0  0.6282426778245765 0.15 0  0.6250209205024085 0.15 0  0.62179916318025 0.15 0  0.6185774058580914 0.15 0  0.6153556485359328 0.15 0  0.6121338912137689 0.15 0  0.6089121338915987 0.15 0  0.6056903765694354 0.15 0  0.6024686192472768 0.15 0  0.5992468619251182 0.15 0  0.5960251046029597 0.15 0  0.5928033472807912 0.15 0  0.589581589958621 0.15 0  0.5863598326364508 0.15 0  0.5831380753142792 0.15 0  0.5799163179920974 0.15 0  0.57669456
[...]
<PointData  Scalars="concentration"> 
<DataArray  type="Float64"  Name="concentration"  format="ascii">0.0000000000000000e+00  1.0000000000000011e+00  1.0000000000000362e+00  0.0000000000000000e+00  7.3602445438663636e-02  -1.0527110069754871e-02  -1.2202796657172775e-01  5.8420261936353535e-01  8.6083426297672971e-01  8.5838854301716272e-01  8.6385985832070811e-01  8.6425121370649116e-01  8.6393408639272939e-01  8.6392159520809975e-01  8.6400695081971146e-01  8.6427741711408290e-01  8.6456417453084122e-01  8.6493016925144950e-01  8.6533939882640620e-01  8.6575245230239684e-01  8.6618027985154478e-01  8.6668146048050343e-01  8.6713397228770128e-01  8.6760974562552418e-01  8.6819878681671514e-01  8.6868379142656194e-01  8.6920394110747023e-01  8.6992051829584260e-01  8.7042579137925968e-01  8.7098043086546895e-01  8.7190247981162883e-01  8.7238016003538332e-01  8.7294081186261707e-01  8.7421128368760248e-01  8.7454855557136113e-01  8.7502093833712558e-01  8.7696646790286426e-01  8.7687493628255286e-01  8.7701500518387743e-01  8.8043301322221990e-01  8.7920545052664423e-01  8.7824441932212682e-01  8.8540879869154432e-01  8.8122161146123623e-01  8.7585808751750049e-01  8.9518279357821140e-01  8.7867318468323863e-01  8.8253660605206607e-01  8.5115639154312572e-01  6.2654918333502374e-01  8.3734461681856165e-01  9.3702330322420446e-01  9.7933378900352763e-01  9.9604439168630943e-01  1.0018722301481167e+00  1.0032941642282756e+00  1.0031157251106475e+00  1.0024750512744225e+00  1.0018204820447822e+00  1.0012769265110537e+00  1.0008750757253904e+00  1.0005860710371930e+00  1.0003901795044161e+00  1.0002555246001850e+00  1.0001678490860297e+00  1.0001084969726310e+00  1.0000708188575989e+00  1.0000453606547224e+00  1.0000295318852885e+00  1.0000187714194104e+00  1.0000122170358110e+00  1.0000077110360863e+00  1.0000050212761771e+00  1.0000031519873651e+00  1.0000020490276753e+00  1.0000012871058195e+00  1.0000008267928673e+00  1.0000005292477834e+00  1.0000003263844723e+00  1.0000002224887792e+00  1.0000001229588318e+00  1.0000000980909576e+00  1.0000000412953640e+00  1.0000000473095978e+00  1.0000000087712222e+00  1.0000000269436320e+00  9.9999999509710868e-01  1.0000000199190928e+00  9.9999998804331502e-01  1.0000000188837785e+00  9.9999998348896024e-01  1.0000000198959598e+00  9.9999998073380825e-01  1.0000000206381627e+00  9.9999997988265499e-01  1.0000000201883406e+00  9.9999998063136653e-01  1.0000000187408575e+00  9.9999998223314157e-01  1.0000000169155097e+00  9.9999998403065449e-01  1.0000000150970321e+00  9.9999998582358007e-01  1.0000000132436002e+00  9.9999998777409893e-01  1.0000000111316889e+00  9.9999999005841556e-01  1.0000000086839629e+00  9.9999999261560912e-01  1.0000000060905938e+00  9.9999999515457438e-01  1.0000000036932728e+00  9.9999999733324330e-01  1.0000000017899247e+00  9.9999999892512303e-01  1.0000000005264174e+00  9.9999999985622423e-01  9.9999999992465127e-01  1.0000000001340770e+00  9.9999999996306177e-01  9.9999999979375420e-01  1.0000000005755014e+00  9.9999999896410230e-01  1.0000000015359130e+00  9.9999999798971528e-01  1.0000000023884301e+00  9.9999999739323575e-01  1.0000000026221429e+00  9.9999999757766544e-01  1.0000000020302557e+00  9.9999999849991306e-01  1.0000000009061609e+00  9.9999999967254716e-01  9.9999999983201737e-01  1.0000000005347236e+00  9.9999999924485727e-01  1.0000000008377385e+00  9.9999999918996585e-01  1.0000000007089869e+00  9.9999999942831419e-01  1.0000000004286178e+00  9.9999999969970521e-01  1.0000000001971157e+00  9.9999999987865285e-01  1.0000000000700566e+00  9.9999999996210998e-01  1.0000000000191673e+00  9.9999999999095635e-01  1.0000000000039715e+00  9.9999999999838907e-01  1.0000000000006062e+00  9.9999999999979550e-01  1.0000000000000635e+00  9.9999999999998468e-01  1.0000000000000036e+00  1.0000000000000007e+00  1.0000000000000027e+00  1.0000000000000004e+00  1.0000000000000020e+00  1.0000000000000013e+00  1.0000000000000007e+00  1.0000000000000011e+00  1.0000000000000029e+00  1.0000000000000002e+00  1.0000000000000020e+00  1.0000000000000020e+00  1.0000000000000022e+00  1.0000000000000013e+00  1.0000000000000020e+00  1.0000000000000011e+00  9.9999999999999911e-01  1.0000000000000033e+00  1.0000000000000011e+00  1.0000000000000011e+00  1.0000000000000016e+00  9.9999999999999856e-01  1.0000000000000022e+00  1.0000000000000024e+00  1.0000000000000011e+00  1.0000000000000007e+00  1.0000000000000009e+00  1.0000000000000007e+00  1.0000000000000027e+00  1.0000000000000007e+00  1.0000000000000007e+00  1.0000000000000020e+00  1.0000000000000002e+00  1.0000000000000020e+00  1.0000000000000004e+00  1.0000000000000011e+00  1.0000000000000022e+00  9.9999999999999878e-01  1.0000000000000033e+00  1.0000000000000009e+00  1.0000000000000009e+00  1.0000000000000009e+00  1.0000000000000027e+00  1.0000000000000020e+00  9.9999999999999944e-01  1.0000000000000020e+00  9.9999999999999978e-01  9.9999999999999944e-01  1.0000000000000016e+00  1.0000000000000013e+00  1.0000000000000013e+00  1.0000000000000018e+00  1.0000000000000009e+00  1.0000000000000013e+00  1.0000000000000024e+00  9.9999999999999978e-01  1.0000000000000024e+00  9.9999999999999989e-01  1.0000000000000018e+00  1.0000000000000031e+00  9.9999999999999900e-01  1.0000000000000018e+00  1.0000000000000020e+00  1.0000000000000027e+00  1.0000000000000022e+00  1.0000000000000004e+00  1.0000000000000013e+00  1.0000000000000000e+00  9.9999999999999933e-01  1.0000000000000027e+00  1.0000000000000016e+00  1.0000000000000013e+00  1.0000000000000016e+00  1.0000000000000016e+00  1.0000000000000000e+00  1.0000000000000013e+00  9.9999999999999956e-01  1.0000000000000020e+00  1.0000000000000007e+00  1.0000000000000013e+00  1.0000000000000009e+00  1.0000000000000009e+00  1.0000000000000020e+00  1.0000000000000020e+00  1.0000000000000018e+00  1.0000000000000031e+00  1.0000000000000011e+00  1.0000000000000009e+00  1.0000000000000000e+00  1.0000000000000011e+00  9.9999999999999956e-01  1.0000000000000009e+00  9.9999999999999978e-01  1.0000000000000007e+00  1.0000000000000013e+00  1.0000000000000002e+00  1.0000000000000011e+00  1.0000000000000004e+00  1.0000000000000007e+00  1.0000000000000002e+00  1.0000000000000007e+00  1.0000000000000007e+00  1.0000000000000007e+00  1.0000000000000007e+00  9.9999999999999978e-01  1.0000000000000009e+00  1.0000000000000007e+00  1.0000000000000009e+00  9.9999999999999978e-01  1.0000000000000011e+00  1.0000000000000007e+00  9.9999999999999956e-01  1.0000000000000011e+00  1.0000000000000004e+00  1.0000000000000009e+00  1.0000000000000004e+00  1.0000000000000002e+00  1.0000000000000011e+00  1.0000000000000000e+00  1.0000000000000007e+00  1.0000000000000007e+00  1.0000000000000007e+00  1.0000000000000007e+00  1.0000000000000009e+00  1.0000000000000004e+00  1.0000000000000009e+00  1.0000000000000007e+00  1.0000000000000000e+00  1.0000000000000013e+00  1.0000000000000004e+00  1.0000000000000004e+00  1.0000000000000009e+00  1.0000000000000004e+00  1.0000000000000000e+00  1.0000000000000007e+00  1.0000000000000002e+00  1.0000000000000009e+00  9.9999999999999978e-01  1.0000000000000007e+00  1.0000000000000007e+00  1.0000000000000004e+00  1.0000000000000002e+00  1.0000000000000002e+00  1.0000000000000002e+00  1.0000000000000011e+00  9.9999999999999944e-01  1.0000000000000004e+00  1.0000000000000007e+00  1.0000000000000007e+00  1.0000000000000004e+00  1.0000000000000004e+00  9.9999999999999756e-01  9.9999999999999201e-01  9.9999999999999001e-01  9.9999999999999212e-01  9.9999999999998046e-01  9.9999999999996025e-01  9.9999999999993949e-01  9.9999999999993094e-01  9.9999999999990807e-01  9.9999999999972766e-01  9.9999999999923994e-01  9.9999999999860822e-01  9.9999999999816302e-01  9.9999999999784661e-01  9.9999999999742817e-01  9.9999999999708256e-01  9.9999999999662870e-01  9.9999999999528100e-01  9.9999999999383404e-01  9.9999999999451206e-01  9.9999999999719946e-01  9.9999999999905620e-01  9.9999999999927880e-01  1.0000000000004845e+00  9.9999999999971345e-01  1.0000000000000306e+00  1.0000000000000313e+00  1.0000000000000644e+00  1.0000000000001128e+00  1.0000000000000888e+00  1.0000000000001945e+00  1.0000000000002061e+00  1.0000000000003226e+00  1.0000000000004252e+00  1.0000000000005607e+00  1.0000000000008327e+00  1.0000000000010341e+00  1.0000000000015270e+00  1.0000000000020008e+00  1.0000000000027862e+00  1.0000000000037881e+00  1.0000000000051938e+00  1.0000000000070881e+00  1.0000000000097191e+00  1.0000000000132729e+00  1.0000000000181721e+00  1.0000000000248499e+00  1.0000000000339955e+00  1.0000000000464977e+00  1.0000000000636124e+00  1.0000000000870122e+00  1.0000000001190288e+00  1.0000000001628280e+00  1.0000000002227487e+00  1.0000000003047198e+00  1.0000000004168723e+00  1.0000000005703122e+00  1.0000000007802567e+00  1.0000000010675287e+00  1.0000000014606290e+00  1.0000000019985915e+00  1.0000000027348597e+00  1.0000000037426311e+00  1.0000000051221836e+00  1.0000000070109234e+00  1.0000000095971739e+00  1.0000000131391484e+00  1.0000000179909916e+00  1.0000000246386171e+00  1.0000000337490613e+00  1.0000000462384564e+00  1.0000000633657748e+00  1.0000000868622667e+00  1.0000001191103556e+00  1.0000001633911382e+00  1.0000002242273582e+00  1.0000003078591460e+00  1.0000004229048483e+00  1.0000005812800468e+00  1.0000007994770603e+00  1.0000011003477727e+00  1.0000015155891842e+00  1.0000020892084938e+00  1.0000028823502889e+00  1.0000039800096134e+00  1.0000055003386430e+00  1.0000076074854138e+00  1.0000105291721471e+00  1.0000145804978671e+00  1.0000201956496424e+00  1.0000279691453826e+00  1.0000387075321959e+00  1.0000534904093485e+00  1.0000737349128428e+00  1.0001012480508757e+00  1.0001382325240573e+00  1.0001871773539797e+00  1.0002505045820824e+00  1.0003297427533016e+00  1.0004238382261119e+00  1.0005259796037727e+00  1.0006180023171996e+00  1.0006611337018771e+00  1.0005817947990809e+00  1.0002520849739815e+00  9.9946801547126263e-01  9.9793721744784181e-01  9.9530102636800843e-01  9.9123464616335633e-01  9.8604390732130887e-01  9.8476280144734762e-01  1.0017365810812691e+00  1.0033327487057870e+00  1.0233742196073938e+00  1.0538321320433903e+00  1.0445213500533119e+00  9.3347583699252545e-01  8.4058429637596688e-01  6.7016424648520967e-01  7.7891612483938066e-01  5.4670109576108339e-01  1.1851121408617546e-01  1.9686031416231464e-01  7.3935463066569632e-02  5.4863381937180232e-02  2.1063795755122861e-01  1.8606920094811349e-01  3.3589139791905720e-01  1.4135190678422871e-01  1.5075969589477778e-01  3.3805065685549507e-01  4.6794676076221092e-01  3.1650134956465920e-01  2.6217208056046715e-01  6.4946880013114827e-01  -9.3625030490153294e-01  -1.4169719896049432e-01  6.4866190099487453e-01  8.1990088244664683e-01  6.5500480623805024e-01  1.2291324685282659e+00  8.3271070147093684e-01  1.4961826085130581e-01  5.4249509804207940e-01  1.1363191280913401e+00  6.0502308424758366e-01  9.2494243492462580e-01  9.2978090610778308e-01  5.9667387403680150e-01  1.4371387624615448e+00  1.7444232740967441e-01  -5.7310108648951075e-01  2.8796886691137830e-01  -6.1138702163500769e-01  -5.5468913755720228e-01  -9.7766198461258211e-02  -1.4756230828680103e-01  6.2327584953978843e-01  1.3229120308635123e+00  -2.1265051187782916e-01  5.9254927300455895e-01  1.6303850754488045e+00  -2.5698688143762766e-01  5.5253533293680313e-01  7.3658433719158278e-01  3.3647015450562501e-01  6.8093311681539204e-01  4.5934583293675885e-01  1.4214449314639321e+00  1.0107467830802339e+00  9.0741112536031043e-01  1.0563559216089424e+00  4.9244259777606553e-01  -9.0960257907866215e-02  1.0332010374008320e-01  1.4770982670218589e+00  2.3211548743403592e+00  8.1661777086463327e-01  6.4358421198092346e+00  1.3313943555372688e+01  4.1676122407071459e+00  1.3683561334706052e+01  2.8119001950243636e+01  1.4706798010840387e+01  8.2141660415613487e+00  4.0946867934622034e+01  3.3142053836706886e+01  2.2025995168218831e+01  3.3741931217910448e+01  3.7362611333953396e+01  2.6267705462909866e+01  3.7099145404314022e+01  4.5918185857576873e+01  3.6306968195025490e+01  4.5533065570510161e+01  3.6414173198434383e+01  1.4087042419636770e+01  1.8624693422221402e+01  2.0777418511228024e+01  8.6716789827420158e+00  1.3400397490374349e+01  1.1681240827940522e+01  4.9828670829192649e+00  8.4212737343379409e+00  5.9489823909999267e+00  1.9347518110149728e+00  5.6751567509248515e+00  2.3784051610669672e+00  1.0596678459616837e+00  3.6038252150359384e+00  1.4164644116058429e+00  -3.1980482728678200e-01  1.3648151682399459e+00  1.8203665393229409e+00  -5.8602300549906217e-01  9.6057871735426825e-01  2.5440075552837942e+00  -4.5134426752166545e-01  1.1655316626515273e+00  2.4284116082765199e+00  -1.6558770816738336e-01  9.9656055267392973e-01  2.3651894146036048e+00  4.3158902013634604e-01  7.3973096539703298e-01  1.2203330508172312e+00  -1.7314436615191400e-01  4.5738566884137211e-01  1.2773055084199396e+00  9.4610525468676110e-01  3.7722922743162002e-01  1.1248172151072395e+00  1.5589013310031308e+00  7.9865463949671067e-01  2.0126590156393526e-01  1.3939190471657539e+00  8.8048839590340555e-01  1.5589945482940133e+00  1.0914630351456380e+00  1.2557407228058368e+00  1.3317386183454754e+00  1.1265014467266674e+00  1.4663670516658518e+00  1.3064256092616258e+00  1.2645818495595067e+00  1.2841284413317273e+00  1.2449753303599698e+00  1.2942165775353229e+00  1.2792381993001376e+00  1.3555958956155085e+00  1.3225836670304272e+00  1.2620781231997049e+00  1.2296939023227043e+00  1.3405959642835741e+00  1.2571444766889803e+00  1.3294069735072702e+00  1.1912441084097103e+00  1.1981643040501038e+00  1.0361289074105675e+00  8.6072936299622471e-01  -7.4853790957088773e-02  -4.5769651724633209e-02  7.4735155326577402e-02  0.0000000000000000e+00  0.0000000000000000e+00  0.0000000000000000e+00  0.0000000000000000e+00  0.0000000000000000e+00  0.0000000000000000e+00  0.0000000000000000e+00  0.0000000000000000e+00  0.0000000000000000e+00  0.0000000000000000e+00  0.0000000000000000e+00  0.0000000000000000e+00  0.0000000000000000e+00  0.0000000000000000e+00  0.0000000000000000e+00  0.0000000000000000e+00  0.0000000000000000e+00  0.0000000000000000e+00  0.0000000000000000e+00  0.0000000000000000e+00  0.0000000000000000e+00  0.0000000000000000e+00  0.0000000000000000e+00  0.0000000000000000e+00  0.0000000000000000e+00  0.0000000000000000e+00  0.0000000000000000e+00  0.0000000000000000e+00  0.0000000000000000e+00  0.0000000000000000e+00  0.0000000000000000e+00  0.0000000000000000e+00  0.0000000000000000e+00  0.0000000000000000e+00  0.0000000000000000e+00  0.0000000000000000e+00  0.0000000000000000e+00  0.0000000000000000e+00  0.0000000000000000e+00  0.0000000000000000e+00  0.0000000000000000e+00  0.0000000000000000e+00  0.0000000000000000e+00  0.0000000000000000e+00  0.0000000000000000e+00  0.0000000000000000e+00  0.0000000000000000e+00  0.0000000000000000e+00  0.0000000000000000e+00  0.0000000000000000e+00  0.0000000000000000e+00  0.0000000000000000e+00  0.0000000000000000e+00  0.0000000000000000e+00  0.0000000000000000e+00  0.0000000000000000e+00  0.0000000000000000e+00  0.0000000000000000e+00  0.0000000000000000e+00  0.0000000000000000e+00  0.0000000000000000e+00  0.0000000000000000e+00  0.0000000000000000e+00  0.0000000000000000e+00  0.0000000000000000e+00  0.0000000000000000e+00  0.0000000000000000e+00  0.0000000000000000e+00  0.0000000000000000e+00  0.0000000000000000e+00  0.0000000000000000e+00  0.0000000000000000e+00  0.0000000000000000e+00  0.0000000000000000e+00  0.0000000000000000e+00  0.0000000000000000e+00  0.0000000000000000e+00  0.0000000000000000e+00  0.0000000000000000e+00  0.0000000000000000e+00  0.0000000000000000e+00  0.0000000000000000e+00  0.0000000000000000e+00  0.0000000000000000e+00  0.0000000000000000e+00  0.0000000000000000e+00  0.0000000000000000e+00  0.0000000000000000e+00  -2.0691542345261993e-02  -8.3056677416948485e-02  -4.2664179904177597e-02  -7.4156016905459502e-03  1.0125096020221503e-04  4.0636614608613428e-05  2.4724018342332984e-08  -9.4163207127572658e-06  9.1391355330114226e-06  -3.4051048875932245e-06  6.9606948551153157e-06  -1.3007098267782786e-05  2.3890775809758820e-06  2.5901823679574384e-05  -4.1074332321499936e-05  2.8758822445634428e-05  -2.6604056180648961e-05  5.4660954684716645e-05  -5.0687558002251377e-05  -1.4744112114652495e-05  3.7647226162833348e-05  1.0994214577237152e-05  2.1325269115945271e-05  -7.8276188291395693e-05  -5.9181084206438407e-05  1.2097261243977002e-04  1.1071392138842568e-05  2.1300951230027152e-04  -1.9596612377760012e-04  -1.5973351106289319e-04  -4.8841385984394294e-04  -5.4618995409341851e-04  -6.2957004820207545e-04  -6.4804921355670925e-04  -7.5643456240332633e-04  -5.4749738476731077e-04  -8.8001357896634244e-04  -5.0693867339428181e-04  -8.1630066185745594e-04  -6.9562272203287047e-04  -5.8264724818338567e-04  -8.9442806646309323e-04  -5.5176548762931482e-04  -7.5090204811361846e-04  -8.2756746016528844e-04  -5.5391211966079315e-04  -8.1888783715011282e-04  -8.3650372800118651e-04  -4.9428552891964594e-04  -9.5182582632697668e-04  -8.2927802259005821e-04  -3.4754122376467838e-04  -1.3528691713983864e-03  -3.5905653534684684e-04  -8.6870047557829238e-04  -9.0098673333469212e-04  -9.7727813548001267e-04  -7.2745140745966716e-06  -2.2024833032673777e-03  4.6646349829739051e-04  -1.3370029484586980e-03  -1.5036500293434693e-03  3.4662262356091676e-04  -1.6657242843977683e-03  -1.3491035410354917e-03  5.1131431567796057e-04  -2.3689376553451642e-03  -2.9554152281510167e-04  -1.3700872046041653e-03  7.3211816414347607e-04  -5.4184281878298119e-03  5.8144964658241810e-03  -8.6982467759727251e-03  5.7612453643800634e-03  -6.7913782847969012e-03  3.7182286908555035e-03  -4.4654767201157408e-03  -1.6543542884707690e-03  4.6304018405658289e-03  -1.0047221473339923e-02  3.6104697571451450e-03  4.8187123698203273e-03  -2.0882506363308555e-02  2.8261711176591181e-02  -3.2848292855780704e-02  1.8393414225368380e-02  6.1060328393752680e-03  -4.8537473999370612e-02  8.9510035529978049e-02  8.8222214240748827e-03  -2.0900366225600216e-02  -7.3958769174682750e-03  -1.2171022343632535e-04  8.6418484252532237e-05  -1.6104079750337533e-05  6.1713690126090139e-06  -9.1055064946711249e-06  5.8220673057225776e-06  3.7574489450419935e-07  7.1267589679464712e-06  -2.5531238096750473e-05  2.6392276696332958e-05  -4.4524037325730257e-07  -1.4825650814295604e-05  -5.3495518230938219e-07  -5.5017187001705203e-06  5.7303711596301527e-05  -6.5896942581006296e-05  3.0875568165942838e-06  -2.1817622884056246e-06  4.2181050379938876e-05  5.6954323507107147e-05  -1.0680992464459608e-04  -3.2190767347420260e-05  -5.9740683365445720e-05  5.5366876322110985e-05  2.4290720311930981e-04  1.4676726591059106e-04  3.8589965850472534e-04  1.9810019218944591e-04  3.1281019315840264e-04  2.9018467715411129e-04  2.2026747495713730e-04  3.0835169886143281e-04  2.8489579870756354e-04  1.6857750424044957e-04  4.5199075406975194e-04  6.0822748623325272e-05  4.3663236324588617e-04  2.3667202346023002e-04  1.6881640853618873e-04  4.7762924248801673e-04  1.1647523664739717e-04  2.9726803310853669e-04  4.4434824114535467e-04  7.5910086820722131e-05  3.6217688482055355e-04  4.8721968672667991e-04  -8.3476882591708497e-05  6.0261395973362092e-04  3.3759449418122544e-04  -8.7099385629082189e-05  7.7498505533369288e-04  1.6961527969049298e-04  -2.3011638140787257e-06  7.9334613925761434e-04  3.0476622417259150e-04  -5.0951506876632661e-04  1.8336927328179596e-03  -1.0133300385337272e-03  7.1025004579877541e-04  1.1601670428874244e-03  -8.9669038361557128e-04  9.8332738828277181e-04  8.3515677093012463e-04  -4.9161623670251713e-04  4.6292520835029409e-04  1.5269735902579162e-03  -9.2560218664731997e-04  2.0460084164388641e-04  3.0753196413415003e-03  -4.1422327118206329e-03  5.7919281568497329e-03  -5.3646307332489837e-03  7.2970670721633829e-03  -7.1768249473764898e-03  6.3196762844007865e-03  4.8093576558064536e-04  -6.9933221862629