<?xml version="1.0"?>
<VTKFile type="UnstructuredGrid"  version="0.1"  >
<UnstructuredGrid>
<Piece  NumberOfPoints="21600" NumberOfCells="42542">
<Points>
<DataArray  type="Float64"  NumberOfComponents="3"  format="ascii">0 0 0  0.77 0 0  0.77 0.15 0  0 0.15 0  0.003221757322170014 0 0  0.006443514644340046 0 0  0.009665271966510193 0 0  0.01288702928868034 0 0  0.01610878661085048 0 0  0.01933054393302049 0 0  0.02255230125519027 0 0  0.02577405857735967 0 0  0.02899581589952872 0 0  0.03221757322169801 0 0  0.03543933054386744 0 0  0.03866108786603686 0 0  0.04188284518820627 0 0  0.0451046025103757 0 0  0.04832635983254521 0 0  0.05154811715471607 0 0  0.05476987447688695 0 0  0.05799163179905782 0 0  0.06121338912122846 0 0  0.06443514644339859 0 0  0.06765690376556875 0 0  0.0708786610877389 0 0  0.07410041840990904 0 0  0.0773221757320792 0 0  0.08054393305425039 0 0  0.08376569037642198 0 0  0.0869874476985936 0 0  0.09020920502076518 0 0  0.0934309623429339 0 0  0.0966527196651024 0 0  0.09987447698726967 0 0  0.1030962343094369 0 0  0.1063179916316041 0 0  0.1095397489537714 0 0  0.1127615062759386 0 0  0.1159832635981051 0 0  0.1192050209202709 0 0  0.1224267782424358 0 0  0.1256485355646001 0 0  0.1288702928867644 0 0  0.1320920502089288 0 0  0.1353138075310958 0 0  0.1385355648532632 0 0  0.1417573221754333 0 0  0.1449790794976035 0 0  0.1482008368197736 0 0  0.1514225941419428 0 0  0.1546443514641101 0 0  0.157866108786276 0 0  0.1610878661084403 0 0  0.1643096234306047 0 0  0.167531380752769 0 0  0.1707531380749333 0 0  0.1739748953970977 0 0  0.177196652719262 0 0  0.1804184100414264 0 0  0.1836401673635935 0 0  0.1868619246857611 0 0  0.1900836820079313 0 0  0.1933054393301014 0 0  0.1965271966522716 0 0  0.1997489539744406 0 0  0.2029707112966078 0 0  0.2061924686187736 0 0  0.209414225940938 0 0  0.2126359832631022 0 0  0.2158577405852666 0 0  0.219079497907431 0 0  0.2223012552295953 0 0  0.2255230125517597 0 0  0.2287447698739242 0 0  0.2319665271960914 0 0  0.2351882845182592 0 0  0.2384100418404293 0 0  0.2416317991625994 0 0  0.2448535564847696 0 0  0.2480753138069371 0 0  0.2512970711291014 0 0  0.2545188284512658 0 0  0.2577405857734302 0 0  0.2609623430955986 0 0  0.2641841004177688 0 0  0.2674058577399389 0 0  0.270627615062109 0 0  0.2738493723842792 0 0  0.2770711297064487 0 0  0.280292887028613 0 0  0.2835146443507774 0 0  0.2867364016729417 0 0  0.2899581589951061 0 0  0.2931799163172705 0 0  0.2964016736394348 0 0  0.2996234309615992 0 0  0.3028451882837672 0 0  0.3060669456059373 0 0  0.3092887029281075 0 0  0.3125104602502776 0 0  0.3157322175724478 0 0  0.3189539748946177 0 0  0.322175732216782 0 0  0.3253974895389464 0 0  0.3286192468611107 0 0  0.3318410041832751 0 0  0.3350627615054395 0 0  0.3382845188276038 0 0  0.3415062761497681 0 0  0.3447280334719325 0 0  0.3479497907940968 0 0  0.3511715481162612 0 0  0.3543933054384255 0 0  0.3576150627605947 0 0  0.3608368200827649 0 0  0.364058577404935 0 0  0.3672803347271051 0 0  0.3705020920492753 0 0  0.373723849371444 0 0  0.3769456066936084 0 0  0.3801673640157748 0 0  0.383389121337945 0 0  0.3866108786601209 0 0  0.3898326359823028 0 0  0.3930543933044846 0 0  0.3962761506266662 0 0  0.399497907948848 0 0  0.4027196652710298 0 0  0.4059414225932116 0 0  0.4091631799153934 0 0  0.4123849372375751 0 0  0.4156066945597569 0 0  0.4188284518819387 0 0  0.4220502092041222 0 0  0.4252719665263097 0 0  0.4284937238484974 0 0  0.4317154811706849 0 0  0.4349372384928725 0 0  0.4381589958150601 0 0  0.4413807531372476 0 0  0.4446025104594352 0 0  0.4478242677816181 0 0  0.4510460251037998 0 0  0.4542677824259815 0 0  0.4574895397481634 0 0  0.4607112970703451 0 0  0.4639330543925269 0 0  0.4671548117147087 0 0  0.4703765690368904 0 0  0.4735983263590722 0 0  0.4768200836812568 0 0  0.4800418410034444 0 0  0.483263598325632 0 0  0.4864853556478196 0 0  0.4897071129700028 0 0  0.4929288702921845 0 0  0.4961506276143663 0 0  0.4993723849365479 0 0  0.5025941422587239 0 0  0.5058158995809008 0 0  0.5090376569030826 0 0  0.5122594142252677 0 0  0.515481171547461 0 0  0.5187029288696494 0 0  0.5219246861918312 0 0  0.525146443514013 0 0  0.5283682008361947 0 0  0.5315899581583845 0 0  0.5348117154805778 0 0  0.5380334728027617 0 0  0.5412552301249435 0 0  0.5444769874471141 0 0  0.5476987447692853 0 0  0.550920502091467 0 0  0.5541422594136513 0 0  0.5573640167358447 0 0  0.560585774058034 0 0  0.5638075313802158 0 0  0.5670292887023975 0 0  0.5702510460245793 0 0  0.5734728033467682 0 0  0.5766945606689615 0 0  0.579916317991155 0 0  0.5831380753133483 0 0  0.5863598326355314 0 0  0.5895815899577131 0 0  0.5928033472798949 0 0  0.5960251046020785 0 0  0.5992468619242718 0 0  0.6024686192464619 0 0  0.6056903765686437 0 0  0.6089121338908206 0 0  0.6121338912129908 0 0  0.6153556485351673 0 0  0.618577405857349 0 0  0.6217991631795386 0 0  0.625020920501732 0 0  0.6282426778239159 0 0  0.6314644351460976 0 0  0.6346861924682795 0 0  0.6379079497904622 0 0  0.6411297071126555 0 0  0.6443514644348465 0 0  0.6475732217570283 0 0  0.650794979079206 0 0  0.6540167364013761 0 0  0.6572384937235518 0 0  0.6604602510457335 0 0  0.6636820083679225 0 0  0.6669037656901158 0 0  0.6701255230123004 0 0  0.6733472803344823 0 0  0.6765690376566641 0 0  0.6797907949788459 0 0  0.6830125523010393 0 0  0.686234309623231 0 0  0.6894560669454127 0 0  0.6926778242675914 0 0  0.6958995815897615 0 0  0.6991213389119363 0 0  0.7023430962341181 0 0  0.7055648535563062 0 0  0.7087866108784994 0 0  0.712008368200685 0 0  0.7152301255228668 0 0  0.7184518828450486 0 0  0.7216736401672305 0 0  0.724895397489423 0 0  0.7281171548116155 0 0  0.7313389121337973 0 0  0.7345606694559768 0 0  0.7377824267781468 0 0  0.7410041841003209 0 0  0.7442259414225026 0 0  0.7474476987446899 0 0  0.7506694560668832 0 0  0.7538912133890696 0 0  0.7571129707112513 0 0  0.760334728033433 0 0  0.7635564853556149 0 0  0.7667782426778067 0 0  0.77 0.001685393258423789 0  0.77 0.003370786516847669 0  0.77 0.005056179775271247 0  0.77 0.006741573033694517 0  0.77 0.008426966292117821 0  0.77 0.01011235955054176 0  0.77 0.01179775280896623 0  0.77 0.0134831460673904 0  0.77 0.01516853932581489 0  0.77 0.01685393258423891 0  0.77 0.01853932584266291 0  0.77 0.02022471910108589 0  0.77 0.02191011235950794 0  0.77 0.02359550561792999 0  0.77 0.02528089887635205 0  0.77 0.02696629213477411 0  0.77 0.02865168539319714 0  0.77 0.03033707865161956 0  0.77 0.03202247191004162 0  0.77 0.03370786516846367 0  0.77 0.03539325842688572 0  0.77 0.03707865168530778 0  0.77 0.03876404494372984 0  0.77 0.0404494382021519 0  0.77 0.04213483146057394 0  0.77 0.04382022471899601 0  0.77 0.04550561797741807 0  0.77 0.04719101123584013 0  0.77 0.04887640449426219 0  0.77 0.05056179775268425 0  0.77 0.0522471910111063 0  0.77 0.05393258426952837 0  0.77 0.05561797752795105 0  0.77 0.05730337078637505 0  0.77 0.05898876404479723 0  0.77 0.0606741573032193 0  0.77 0.06235955056164135 0  0.77 0.06404494382006341 0  0.77 0.06573033707848548 0  0.77 0.06741573033690752 0  0.77 0.06910112359532959 0  0.77 0.07078651685375165 0  0.77 0.0724719101121737 0  0.77 0.07415730337059653 0  0.77 0.07584269662902443 0  0.77 0.07752808988745429 0  0.77 0.07921348314588413 0  0.77 0.08089887640431678 0  0.77 0.08258426966274923 0  0.77 0.08426966292117907 0  0.77 0.08595505617960987 0  0.77 0.08764044943804362 0  0.77 0.08932584269647403 0  0.77 0.09101123595490389 0  0.77 0.09269662921333673 0  0.77 0.09438202247176901 0  0.77 0.09606741573019884 0  0.77 0.09775280898862983 0  0.77 0.09943820224706355 0  0.77 0.1011235955054938 0  0.77 0.1028089887639236 0  0.77 0.1044943820223567 0  0.77 0.1061797752807888 0  0.77 0.1078651685392186 0  0.77 0.1095505617976498 0  0.77 0.1112359550560835 0  0.77 0.1129213483145136 0  0.77 0.1146067415729456 0  0.77 0.1162921348313787 0  0.77 0.1179775280898085 0  0.77 0.1196629213482387 0  0.77 0.1213483146066724 0  0.77 0.1230337078651035 0  0.77 0.1247191011235322 0  0.77 0.1264044943819605 0  0.77 0.1280898876403903 0  0.77 0.1297752808988242 0  0.77 0.1314606741572554 0  0.77 0.1331460674156853 0  0.77 0.1348314606741154 0  0.77 0.1365168539325504 0  0.77 0.1382022471909802 0  0.77 0.13988764044941 0  0.77 0.1415730337078443 0  0.77 0.1432584269662752 0  0.77 0.144943820224705 0  0.77 0.1466292134831355 0  0.77 0.1483146067415701 0  0.7667782426778414 0.15 0  0.7635564853556813 0.15 0  0.7603347280335111 0.15 0  0.757112970711341 0.15 0  0.7538912133891708 0.15 0  0.7506694560670005 0.15 0  0.7474476987448303 0.15 0  0.7442259414226602 0.15 0  0.74100418410049 0.15 0  0.7377824267783197 0.15 0  0.7345606694561496 0.15 0  0.7313389121339794 0.15 0  0.7281171548118092 0.15 0  0.724895397489639 0.15 0  0.7216736401674688 0.15 0  0.7184518828452986 0.15 0  0.7152301255231284 0.15 0  0.7120083682009583 0.15 0  0.708786610878788 0.15 0  0.7055648535566178 0.15 0  0.7023430962344477 0.15 0  0.6991213389122775 0.15 0  0.6958995815901072 0.15 0  0.692677824267937 0.15 0  0.6894560669457669 0.15 0  0.6862343096235967 0.15 0  0.6830125523014264 0.15 0  0.6797907949792563 0.15 0  0.6765690376570861 0.15 0  0.6733472803349159 0.15 0  0.6701255230127456 0.15 0  0.6669037656905755 0.15 0  0.6636820083684053 0.15 0  0.6604602510462351 0.15 0  0.657238493724065 0.15 0  0.6540167364018947 0.15 0  0.6507949790797245 0.15 0  0.6475732217575543 0.15 0  0.644351464435384 0.15 0  0.6411297071132231 0.15 0  0.6379079497910645 0.15 0  0.634686192468906 0.15 0  0.6314644351467468 0.15 0  0.6282426778245765 0.15 0  0.6250209205024085 0.15 0  0.62179916318025 0.15 0  0.6185774058580914 0.15 0  0.6153556485359328 0.15 0  0.6121338912137689 0.15 0  0.6089121338915987 0.15 0  0.6056903765694354 0.15 0  0.6024686192472768 0.15 0  0.5992468619251182 0.15 0  0.5960251046029597 0.15 0  0.5928033472807912 0.15 0  0.589581589958621 0.15 0  0.5863598326364508 0.15 0  0.5831380753142792 0.15 0  0.5799163179920974 0.15 0  0.57669456
[...]
<PointData  Scalars="concentration"> 
<DataArray  type="Float64"  Name="concentration"  format="ascii">0.0000000000000000e+00  1.0000000000000016e+00  2.4446176053696389e-01  0.0000000000000000e+00  7.3962637147644852e-02  -1.0325758723430868e-02  -1.2190696235900925e-01  5.8170288163608819e-01  8.5899808032012903e-01  8.5690839261309371e-01  8.6228515747484635e-01  8.6237870881962608e-01  8.6183374541369151e-01  8.6148117599511043e-01  8.6128551748045679e-01  8.6118997755722004e-01  8.6115614379840322e-01  8.6115799958712991e-01  8.6118407013530629e-01  8.6121720099586163e-01  8.6125863602979424e-01  8.6130328401341250e-01  8.6134340019700550e-01  8.6139092167960063e-01  8.6143425636900506e-01  8.6147482417257892e-01  8.6152864832873177e-01  8.6156782874284998e-01  8.6162010736585415e-01  8.6168051027568349e-01  8.6171961133535369e-01  8.6180071751485499e-01  8.6185443493411640e-01  8.6191820166250788e-01  8.6202667467329952e-01  8.6206173421893750e-01  8.6220258416899476e-01  8.6227312731523875e-01  8.6236674469937069e-01  8.6255081007947176e-01  8.6255362639092981e-01  8.6285820441576744e-01  8.6280693897572891e-01  8.6317446311923063e-01  8.6314311054538151e-01  8.6350663608370315e-01  8.6355857996811181e-01  8.6387679603045719e-01  8.6403942597489547e-01  8.6431607704697944e-01  8.6456982423943995e-01  8.6485094255645456e-01  8.6514941744075424e-01  8.6548748403249631e-01  8.6580482366090361e-01  8.6620813056059309e-01  8.6657815468717758e-01  8.6700725088710651e-01  8.6747297476472673e-01  8.6793492747139067e-01  8.6846504057095153e-01  8.6901651097227894e-01  8.6960732679846475e-01  8.7021795765926047e-01  8.7093496624111333e-01  8.7161528359771090e-01  8.7238632411285544e-01  8.7325402093222093e-01  8.7408992214680170e-01  8.7500158982720799e-01  8.7611876107470332e-01  8.7707902153127748e-01  8.7819005919266757e-01  8.7962034489107754e-01  8.8069531066856455e-01  8.8202037073986528e-01  8.8391862600759896e-01  8.8498567220525137e-01  8.8655501975960660e-01  8.8918714924216691e-01  8.8989792839054382e-01  8.9174831367901952e-01  8.9567915310287138e-01  8.9501039403416482e-01  8.9733528659378892e-01  9.0381354270702641e-01  8.9865119141168404e-01  9.0263507226163309e-01  9.1373872578497384e-01  8.9485196742394046e-01  9.0163526905467384e-01  9.2497937753905890e-01  7.7745733631823444e-01  7.6117119488327822e-01  7.0492046166983302e-01  7.0534183703435283e-01  7.1856449805187161e-01  7.2698427693889622e-01  7.3141214116801934e-01  7.3330361707535885e-01  7.3370942391121796e-01  7.3338831041404595e-01  7.3281854440180227e-01  7.3222225448426559e-01  7.3175153008930505e-01  7.3151363809235992e-01  7.3140158468950989e-01  7.3149712866439076e-01  7.3185788537178631e-01  7.3214861406440168e-01  7.3263702509002726e-01  7.3341041717678945e-01  7.3365197550440986e-01  7.3430382996594701e-01  7.3535659374767792e-01  7.3484950947444894e-01  7.3576382201582813e-01  7.3725437247054959e-01  7.3473972905577556e-01  7.3714688423744534e-01  7.3975308205158186e-01  7.3250269321086259e-01  7.4101920949556954e-01  7.4636681475832622e-01  7.2714958966633270e-01  7.5823141792602555e-01  7.6880231952145039e-01  7.4269570953942821e-01  8.4708694346673485e-01  6.8619882862944492e-01  1.0109004489412632e+00  1.0397564075514978e+00  1.0303276945679856e+00  1.0181450493803781e+00  1.0098798606937187e+00  1.0051584697631311e+00  1.0026401649075263e+00  1.0013382806352837e+00  1.0006752005141251e+00  1.0003398696091066e+00  1.0001708462717460e+00  1.0000857899766653e+00  1.0000430267904183e+00  1.0000215481404346e+00  1.0000107710579231e+00  1.0000053726535092e+00  1.0000026713341981e+00  1.0000013276051265e+00  1.0000006519340627e+00  1.0000003273136058e+00  1.0000001532222520e+00  1.0000000824673125e+00  1.0000000339736934e+00  1.0000000195159082e+00  1.0000000109065388e+00  9.9999999863015510e-01  1.0000000103299462e+00  9.9999999193173372e-01  1.0000000071589403e+00  9.9999999962986963e-01  9.9999999068123968e-01  1.0000000226386381e+00  9.9999996269088276e-01  1.0000000513047003e+00  9.9999993829710154e-01  1.0000000658264054e+00  9.9999993855420699e-01  1.0000000474032384e+00  9.9999997612443192e-01  9.9999999250523053e-01  1.0000000437860137e+00  9.9999991877772010e-01  1.0000001157934884e+00  9.9999985606929342e-01  1.0000001630925512e+00  9.9999982787381136e-01  1.0000001713298003e+00  9.9999983777590917e-01  1.0000001471157662e+00  9.9999987142675029e-01  1.0000001089313468e+00  9.9999991008276667e-01  1.0000000724781435e+00  9.9999994310198481e-01  1.0000000432702978e+00  9.9999996775118272e-01  1.0000000256471089e+00  9.9999997403623631e-01  1.0000000336410664e+00  9.9999995850459045e-01  1.0000000279380681e+00  1.0000000459379992e+00  9.9999977215266989e-01  1.0000005494966773e+00  9.9999900842050882e-01  1.0000014604052661e+00  9.9999819531385492e-01  1.0000018826152095e+00  9.9999835233742351e-01  1.0000011895689602e+00  9.9999931281903875e-01  1.0000003010202814e+00  9.9999990959861296e-01  1.0000000160558788e+00  9.9999999434474396e-01  1.0000000105500078e+00  9.9999998488139208e-01  1.0000000184862132e+00  9.9999997905438975e-01  1.0000000220149616e+00  9.9999997845865318e-01  1.0000000197286971e+00  9.9999998304465654e-01  1.0000000137054319e+00  9.9999998956116321e-01  1.0000000075017335e+00  9.9999999490758162e-01  1.0000000032681620e+00  9.9999999801568773e-01  1.0000000011404231e+00  9.9999999937934281e-01  1.0000000003199581e+00  9.9999999984373089e-01  1.0000000000723182e+00  9.9999999996828992e-01  1.0000000000131735e+00  9.9999999999481870e-01  1.0000000000019309e+00  9.9999999999932176e-01  1.0000000000002274e+00  9.9999999999992972e-01  1.0000000000000220e+00  9.9999999999999456e-01  1.0000000000000016e+00  1.0000000000000016e+00  1.0000000000000007e+00  1.0000000000000004e+00  1.0000000000000011e+00  1.0000000000000016e+00  1.0000000000000018e+00  1.0000000000000020e+00  1.0000000000000016e+00  1.0000000000000000e+00  1.0000000000000004e+00  1.0000000000000009e+00  1.0000000000000002e+00  1.0000000000000004e+00  1.0000000000000007e+00  1.0000000000000007e+00  1.0000000000000009e+00  1.0000000000000000e+00  1.0000000000000022e+00  9.9999999999999711e-01  1.0000000000000067e+00  1.0000000000000004e+00  9.9999999999993505e-01  1.0000000000003535e+00  9.9999999999966005e-01  9.9999999999087485e-01  9.9999999997246181e-01  9.9999999995823763e-01  9.9999999994126443e-01  9.9999999989592414e-01  9.9999999985458954e-01  9.9999999984777133e-01  9.9999999983552390e-01  9.9999999981591248e-01  9.9999999980105858e-01  9.9999999983248278e-01  9.9999999976152643e-01  9.9999999988426425e-01  9.9999999953411545e-01  1.0000000005452803e+00  9.9999999826551644e-01  1.0000000030841496e+00  9.9999999332582001e-01  1.0000000125173092e+00  9.9999997612435654e-01  1.0000000419719515e+00  9.9999992974087692e-01  1.0000001079026986e+00  9.9999984764549077e-01  1.0000001927335735e+00  9.9999978182845883e-01  1.0000002104003054e+00  9.9999983611397381e-01  1.0000000558356787e+00  1.0000000112169709e+00  9.9999980555023793e-01  1.0000019753380267e+00  9.9997769664489111e-01  1.0001242502146033e+00  9.9975343544411976e-01  9.9811771974846430e-01  1.0205205247638267e+00  7.8892492829710625e-01  6.8340686431000741e-01  6.3196603796151096e-01  5.6885293337136944e-01  4.8725463927952378e-01  4.4555304501607412e-01  4.1748959176834705e-01  3.8072297333694022e-01  3.5081996014096645e-01  3.2594905402213159e-01  3.0074948442901084e-01  2.7465031293388348e-01  2.4854304995835333e-01  2.3136967950633899e-01  2.1041261878850306e-01  1.8236940842731075e-01  1.6199493050739505e-01  1.4670312026971566e-01  1.0988656124739270e-01  7.8157353294514745e-02  4.2040767144960897e-02  -2.1263258036672466e-04  -2.1184583246791584e-02  -1.4940444303764171e-02  -6.2324202859310104e-03  7.1453312554658754e-03  8.2671996187929798e-03  1.8339656586370719e-03  -9.4347574536578632e-03  4.9672032432642593e-04  1.5834546086260570e-02  -7.1265007042047968e-02  -2.2959092293188399e-01  -1.0576661748844585e+00  1.4447050185202697e+00  2.4166742040633665e-01  1.9931393480031317e-01  4.5289838607221239e-01  5.0486992366316308e-01  -3.7258012713862615e-01  2.6061642086746173e-01  6.4194984728540350e-01  -5.4203400345520236e-01  1.4747037572894645e-01  5.1952482297626168e-01  -9.9216750663333597e-01  -4.9158638255461562e-01  2.3603202726771449e-01  -6.3035078994100421e-02  -2.8658257864582493e-01  -6.5783211846589668e-03  9.3686850294224355e-02  -1.3198555036127793e-01  -6.9774753487746276e-03  1.6791989450632547e-01  2.7283890897014315e-02  8.5396961806382773e-02  2.3540808338416302e-01  1.2245868937552246e-01  1.1311975623695113e-01  2.1770410338681498e-01  1.5242246893969474e-01  1.1334805041732424e-01  2.0060863893253955e-01  1.7160831553356065e-01  1.1255888959114652e-01  2.3757112842288103e-01  1.6025849841136822e-01  1.9882634486794032e-01  2.1235427559737616e-01  1.8432313313899876e-01  1.6854449002252234e-01  1.5957178610925182e-01  1.6933936170049399e-01  1.6443492551682554e-01  1.9294740987448045e-01  2.3915599606598670e-01  2.8444783476806385e-01  4.3416663594607047e-01  6.7165005766417019e-01  1.0561125499201376e+00  1.5352274975145741e-01  -2.1396745597948930e-01  3.0991465657011780e-01  7.6365987638804578e-01  9.5165287945483101e-01  2.8470101494583633e-01  -8.5977653559099920e-02  5.6058519611116586e-01  1.1041073505818360e+00  3.5370186260011455e-01  -1.8584019701499377e-01  5.5654946807042904e-01  1.1727066125580201e+00  2.9904284910391521e-01  -9.9401342821703306e-02  4.4616698752893730e-01  1.2249633269766396e+00  2.7881640466900981e-01  -2.3162376281660241e-01  2.0198530298685077e-01  5.7447802803953729e-01  1.0154608732213832e+00  3.7858691905546749e-01  -2.6324799773966501e-01  2.1557811578613559e-01  5.1512547747460813e-01  1.0950755872675619e+00  2.7999424425015174e-01  -2.1334673587260519e-01  1.5598543441429052e-01  5.9971498056171546e-01  9.9966632407329148e-01  3.1423951449682302e-01  -2.8362627954565733e-01  2.1926120007545388e-01  5.6841879234100623e-01  1.0338957936035937e+00  2.4875741962823156e-01  -2.6438665937652639e-01  1.8800953615243032e-01  6.3731431520374926e-01  9.6567253420247878e-01  2.4820745202092293e-01  -2.9395677240486867e-01  2.0684327398841171e-01  6.5702024550232296e-01  9.5938150901895514e-01  2.4939796395079417e-01  -1.7595035805281972e-01  5.0997816045406319e-01  1.1321446994219513e+00  9.0781874239520388e-02  -3.5343661298833701e-01  2.3617041544712014e-01  7.1070214317944880e-01  9.0359370299258490e-01  5.9431113186132555e-02  -3.0911934804386171e-01  2.3316503271412073e-01  7.1398966349011572e-01  8.9835562252612811e-01  -3.6924633636440177e-02  -3.5130398903362275e-01  2.8566477105126398e-01  7.5559051334735938e-01  8.3435166377628378e-01  -6.8529007487646409e-03  -2.9893503748528949e-01  2.8009025197785353e-01  6.1796587900613620e-01  4.4672925202408897e-01  -2.3111421326564974e-01  1.6726887372581833e-01  5.7316391809986433e-01  5.9045070446695580e-01  2.3377405752160574e-01  1.0428829619388995e+00  1.7864600826190362e+00  2.3247741270970526e+00  2.2964917860635974e+00  2.0790052943625219e+00  2.0248649495804947e+00  1.9326800277154246e+00  1.8376470867924870e+00  1.7639635639856908e+00  1.7076384611951341e+00  1.6431587376101764e+00  1.6300888402753739e+00  1.5906159509497499e+00  1.5232646111159271e+00  1.6400701867441574e+00  1.3857768612473302e+00  1.7017111538612997e+00  1.3186770767053211e+00  1.6688371980725749e+00  1.3718339026064423e+00  1.5389617163292328e+00  1.4780570605592134e+00  1.4208739334202127e+00  1.5197626090472873e+00  1.3853188504175988e+00  1.5000400836754715e+00  1.3690490643726356e+00  1.4890036838890084e+00  1.3488251209240429e+00  1.4493280683036522e+00  1.3870048853394104e+00  1.3525729015008998e+00  1.4429120360872763e+00  1.2953326279497239e+00  1.4179260939357317e+00  1.3249028286593363e+00  1.3367458449740321e+00  1.3686502446090438e+00  1.2772158549667323e+00  1.3775880775777567e+00  1.2554540081963808e+00  1.3531427756504795e+00  1.2696885837675445e+00  1.2958959259576190e+00  1.3093264265973048e+00  1.2360113724013448e+00  1.3283667793301182e+00  1.2156953806134458e+00  1.3074411907572516e+00  1.2218241765287405e+00  1.2795951505390486e+00  1.2191354051774161e+00  1.2601253050455352e+00  1.2114249611900068e+00  1.2293689362002691e+00  1.2142796611491786e+00  1.1992104979256579e+00  1.2283412706224384e+00  1.1822394917794248e+00  1.2504842530066504e+00  1.3043507624742892e+00  1.1228814656427790e+00  1.6273304870066010e+00  1.1096284356540966e+00  1.4840147739683451e+00  9.7090316277113786e-01  3.1676838147171454e-01  1.0054782809910086e+00  1.1274606716206059e+00  7.0601015736426907e-03  1.2565543998422164e+00  1.0775747169479422e+00  3.1158230554189682e-02  1.1700602211758546e+00  9.1380723659570751e-01  -2.1067347490570529e-01  3.2131952838937594e-01  8.9613448487110570e-01  8.2625921620364612e-02  2.0970239811361532e-01  1.4670627251594879e+00  8.9795471274538008e-01  1.1683907675912804e+00  3.1475304326318887e-01  1.0404981955345329e+00  1.3643185298257410e+00  9.1307740525157899e-01  1.7995133958587778e-01  1.2969183546258971e+00  9.8266768901330304e-01  1.4038650345822654e+00  1.1009957135337911e+00  1.2143871378529343e+00  1.2938569025268551e+00  1.0727901227028862e+00  1.4552266062082908e+00  1.2610531585024705e+00  1.2523794685015273e+00  1.2637850936815005e+00  1.2268873010856829e+00  1.2754712445837035e+00  1.2622494886889513e+00  1.3420830259269025e+00  1.3061259323939554e+00  1.2549875849509731e+00  1.2228546174796600e+00  1.3238426823073144e+00  1.2538251246400418e+00  1.3200010501343875e+00  1.1848475876835125e+00  1.1989516423531703e+00  1.0335144939570065e+00  8.6404729453850826e-01  -7.3584146643403375e-02  -4.7574156522654169e-02  7.8293644383233676e-02  0.0000000000000000e+00  0.0000000000000000e+00  0.0000000000000000e+00  0.0000000000000000e+00  0.0000000000000000e+00  0.0000000000000000e+00  0.0000000000000000e+00  0.0000000000000000e+00  0.0000000000000000e+00  0.0000000000000000e+00  0.0000000000000000e+00  0.0000000000000000e+00  0.0000000000000000e+00  0.0000000000000000e+00  0.0000000000000000e+00  0.0000000000000000e+00  0.0000000000000000e+00  0.0000000000000000e+00  0.0000000000000000e+00  0.0000000000000000e+00  0.0000000000000000e+00  0.0000000000000000e+00  0.0000000000000000e+00  0.0000000000000000e+00  0.0000000000000000e+00  0.0000000000000000e+00  0.0000000000000000e+00  0.0000000000000000e+00  0.0000000000000000e+00  0.0000000000000000e+00  0.0000000000000000e+00  0.0000000000000000e+00  0.0000000000000000e+00  0.0000000000000000e+00  0.0000000000000000e+00  0.0000000000000000e+00  0.0000000000000000e+00  0.0000000000000000e+00  0.0000000000000000e+00  0.0000000000000000e+00  0.0000000000000000e+00  0.0000000000000000e+00  0.0000000000000000e+00  0.0000000000000000e+00  0.0000000000000000e+00  0.0000000000000000e+00  0.0000000000000000e+00  0.0000000000000000e+00  0.0000000000000000e+00  0.0000000000000000e+00  0.0000000000000000e+00  0.0000000000000000e+00  0.0000000000000000e+00  0.0000000000000000e+00  0.0000000000000000e+00  0.0000000000000000e+00  0.0000000000000000e+00  0.0000000000000000e+00  0.0000000000000000e+00  0.0000000000000000e+00  0.0000000000000000e+00  0.0000000000000000e+00  0.0000000000000000e+00  0.0000000000000000e+00  0.0000000000000000e+00  0.0000000000000000e+00  0.0000000000000000e+00  0.0000000000000000e+00  0.0000000000000000e+00  0.0000000000000000e+00  0.0000000000000000e+00  0.0000000000000000e+00  0.0000000000000000e+00  0.0000000000000000e+00  0.0000000000000000e+00  0.0000000000000000e+00  0.0000000000000000e+00  0.0000000000000000e+00  0.0000000000000000e+00  0.0000000000000000e+00  0.0000000000000000e+00  0.0000000000000000e+00  0.0000000000000000e+00  0.0000000000000000e+00  0.0000000000000000e+00  0.0000000000000000e+00  0.0000000000000000e+00  0.0000000000000000e+00  -2.0908039920655729e-02  -8.3288914940726336e-02  -4.2340994740694964e-02  -7.1194605645796948e-03  1.2916924848837023e-04  3.1274340668069925e-05  -9.4517357998957420e-06  3.2016715628492858e-06  -6.5538787220856956e-08  -7.0558065256285845e-08  -2.9959970922385658e-07  5.9443093579518719e-07  -7.4143467508307848e-07  1.1236884430560285e-06  -1.8582587692619681e-06  2.6123148318262202e-06  -3.6932991514496303e-06  5.1213444274215394e-06  -6.2160483828284099e-06  7.4077820127835749e-06  -8.7463977746064989e-06  9.6709707925568201e-06  -1.1115786939097896e-05  1.2456638155913147e-05  -1.3615206081968547e-05  1.5087232182301862e-05  -1.5525674303891313e-05  1.6172607273493404e-05  -1.6077979933542038e-05  1.6464704159830041e-05  -1.6985506111404211e-05  1.7756601412714891e-05  -1.8133636048031376e-05  1.7630712250737788e-05  -1.5583873026090551e-05  1.1689738310869320e-05  -6.1853479547281925e-06  -2.0547842173716917e-07  7.0244278414632471e-06  -1.4185597768043271e-05  2.1074538743960835e-05  -2.6231032334507098e-05  2.7945455220896752e-05  -2.4564338240989996e-05  1.4723489812010478e-05  1.0280933590481711e-06  -1.9999007799125958e-05  4.0529031768421672e-05  -6.3640058696391342e-05  9.1233363034511048e-05  -1.2616383060154673e-04  1.7139338033444318e-04  -2.2487311856924183e-04  2.8115971384998564e-04  -3.3571789063338608e-04  3.7797220997892218e-04  -3.9303456122967515e-04  3.6982344372236487e-04  -2.9470388364411909e-04  1.7443350202291167e-04  -4.2337671153595060e-05  -7.2220163537670259e-05  1.0585135111912583e-04  -5.5364333357566486e-05  -1.2349529659736076e-04  4.0249253783794444e-04  -8.1772636509611020e-04  1.3376679432916361e-03  -2.0097316383315771e-03  2.8225981621411863e-03  -3.8260467790095683e-03  4.9164313352822253e-03  -5.9029932506636162e-03  6.3429997483173406e-03  -5.8046930955714558e-03  3.9261801966211374e-03  -8.2985127486494444e-04  -2.8243874197658235e-03  5.6023464739716625e-03  -5.7433003516727289e-03  1.7074111597385545e-03  6.6530137093708018e-03  -1.7536067886516286e-02  2.6936398013339812e-02  -2.9603153374535590e-02  1.9879908953968833e-02  7.1924075496748643e-03  -4.9153505361156653e-02  8.9452653435484406e-02  8.2816151570134760e-03  -2.0838124545386680e-02  -7.0788052395619619e-03  -3.8765659389693725e-05  6.9558071590944653e-05  -1.7017016657524887e-05  2.6720140983903214e-06  1.8067439723751630e-07  8.5413505296612837e-08  -2.8382046063822650e-07  1.7744826454683065e-07  -1.5025124013207124e-07  3.2092756147390254e-07  -3.4682968338239605e-07  3.2462224689984979e-07  -3.1794864595951847e-07  -1.5670702912384326e-07  8.1642534913144022e-07  -1.3995740654120239e-06  2.2785012264296235e-06  -2.9053951213716448e-06  3.5244182300894885e-06  -4.4045644898683091e-06  5.1321667432771127e-06  -6.4090442086887964e-06  7.5304414334237441e-06  -8.6567633268929794e-06  9.2805193493470609e-06  -9.4915608704713243e-06  9.5969255620589083e-06  -1.0020509732527054e-05  1.1003365236364328e-05  -1.2559703804332066e-05  1.4371144831392510e-05  -1.5748041680451658e-05  1.5924030218806602e-05  -1.4653589511807825e-05  1.2232242111489220e-05  -8.7083261709247914e-06  3.6586926493855801e-06  3.1437408885046251e-06  -1.1358012049512350e-05  2.0108544619005162e-05  -2.7390580005023526e-05  3.0451925646294935e-05  -2.8316079781039883e-05  2.2655890265269137e-05  -1.5473377440720916e-05  8.0712294547758951e-06  -6.5649152726103835e-07  -1.0070489207965595e-05  2.8821343495314383e-05  -5.7355363708578943e-05  9.7939878134668264e-05  -1.5272881326342774e-04  2.1784597620878813e-04  -2.8738437995142916e-04  3.4447083008874295e-04  -3.6172249420791453e-04  3.2661071395600751e-04  -2.2623883063200634e-04  9.0502699233805577e-05  6.1427268819865951e-05  -1.8288974464176355e-04  2.6112081632955050e-04  -2.6499057402691687e-04  1.9980752934266034e-04  -4.9776626329652868e-05  -1.8272556280572014e-04  5.6366166367780653e-04  -1.1843480495423388e-03  2.1749911291988225e-03  -3.5387826250533969e-03  5.1011552535121492e-03  -6.4026266469998198e-03  6.8234659176623904e-03  -5.7013830760132894e-03  2.7229093975411562e-03  1.7467512006280378e