<?xml version="1.0"?>
<VTKFile type="UnstructuredGrid"  version="0.1"  >
<UnstructuredGrid>
<Piece  NumberOfPoints="21600" NumberOfCells="42542">
<Points>
<DataArray  type="Float64"  NumberOfComponents="3"  format="ascii">0 0 0  0.77 0 0  0.77 0.15 0  0 0.15 0  0.003221757322170014 0 0  0.006443514644340046 0 0  0.009665271966510193 0 0  0.01288702928868034 0 0  0.01610878661085048 0 0  0.01933054393302049 0 0  0.02255230125519027 0 0  0.02577405857735967 0 0  0.02899581589952872 0 0  0.03221757322169801 0 0  0.03543933054386744 0 0  0.03866108786603686 0 0  0.04188284518820627 0 0  0.0451046025103757 0 0  0.04832635983254521 0 0  0.05154811715471607 0 0  0.05476987447688695 0 0  0.05799163179905782 0 0  0.06121338912122846 0 0  0.06443514644339859 0 0  0.06765690376556875 0 0  0.0708786610877389 0 0  0.07410041840990904 0 0  0.0773221757320792 0 0  0.08054393305425039 0 0  0.08376569037642198 0 0  0.0869874476985936 0 0  0.09020920502076518 0 0  0.0934309623429339 0 0  0.0966527196651024 0 0  0.09987447698726967 0 0  0.1030962343094369 0 0  0.1063179916316041 0 0  0.1095397489537714 0 0  0.1127615062759386 0 0  0.1159832635981051 0 0  0.1192050209202709 0 0  0.1224267782424358 0 0  0.1256485355646001 0 0  0.1288702928867644 0 0  0.1320920502089288 0 0  0.1353138075310958 0 0  0.1385355648532632 0 0  0.1417573221754333 0 0  0.1449790794976035 0 0  0.1482008368197736 0 0  0.1514225941419428 0 0  0.1546443514641101 0 0  0.157866108786276 0 0  0.1610878661084403 0 0  0.1643096234306047 0 0  0.167531380752769 0 0  0.1707531380749333 0 0  0.1739748953970977 0 0  0.177196652719262 0 0  0.1804184100414264 0 0  0.1836401673635935 0 0  0.1868619246857611 0 0  0.1900836820079313 0 0  0.1933054393301014 0 0  0.1965271966522716 0 0  0.1997489539744406 0 0  0.2029707112966078 0 0  0.2061924686187736 0 0  0.209414225940938 0 0  0.2126359832631022 0 0  0.2158577405852666 0 0  0.219079497907431 0 0  0.2223012552295953 0 0  0.2255230125517597 0 0  0.2287447698739242 0 0  0.2319665271960914 0 0  0.2351882845182592 0 0  0.2384100418404293 0 0  0.2416317991625994 0 0  0.2448535564847696 0 0  0.2480753138069371 0 0  0.2512970711291014 0 0  0.2545188284512658 0 0  0.2577405857734302 0 0  0.2609623430955986 0 0  0.2641841004177688 0 0  0.2674058577399389 0 0  0.270627615062109 0 0  0.2738493723842792 0 0  0.2770711297064487 0 0  0.280292887028613 0 0  0.2835146443507774 0 0  0.2867364016729417 0 0  0.2899581589951061 0 0  0.2931799163172705 0 0  0.2964016736394348 0 0  0.2996234309615992 0 0  0.3028451882837672 0 0  0.3060669456059373 0 0  0.3092887029281075 0 0  0.3125104602502776 0 0  0.3157322175724478 0 0  0.3189539748946177 0 0  0.322175732216782 0 0  0.3253974895389464 0 0  0.3286192468611107 0 0  0.3318410041832751 0 0  0.3350627615054395 0 0  0.3382845188276038 0 0  0.3415062761497681 0 0  0.3447280334719325 0 0  0.3479497907940968 0 0  0.3511715481162612 0 0  0.3543933054384255 0 0  0.3576150627605947 0 0  0.3608368200827649 0 0  0.364058577404935 0 0  0.3672803347271051 0 0  0.3705020920492753 0 0  0.373723849371444 0 0  0.3769456066936084 0 0  0.3801673640157748 0 0  0.383389121337945 0 0  0.3866108786601209 0 0  0.3898326359823028 0 0  0.3930543933044846 0 0  0.3962761506266662 0 0  0.399497907948848 0 0  0.4027196652710298 0 0  0.4059414225932116 0 0  0.4091631799153934 0 0  0.4123849372375751 0 0  0.4156066945597569 0 0  0.4188284518819387 0 0  0.4220502092041222 0 0  0.4252719665263097 0 0  0.4284937238484974 0 0  0.4317154811706849 0 0  0.4349372384928725 0 0  0.4381589958150601 0 0  0.4413807531372476 0 0  0.4446025104594352 0 0  0.4478242677816181 0 0  0.4510460251037998 0 0  0.4542677824259815 0 0  0.4574895397481634 0 0  0.4607112970703451 0 0  0.4639330543925269 0 0  0.4671548117147087 0 0  0.4703765690368904 0 0  0.4735983263590722 0 0  0.4768200836812568 0 0  0.4800418410034444 0 0  0.483263598325632 0 0  0.4864853556478196 0 0  0.4897071129700028 0 0  0.4929288702921845 0 0  0.4961506276143663 0 0  0.4993723849365479 0 0  0.5025941422587239 0 0  0.5058158995809008 0 0  0.5090376569030826 0 0  0.5122594142252677 0 0  0.515481171547461 0 0  0.5187029288696494 0 0  0.5219246861918312 0 0  0.525146443514013 0 0  0.5283682008361947 0 0  0.5315899581583845 0 0  0.5348117154805778 0 0  0.5380334728027617 0 0  0.5412552301249435 0 0  0.5444769874471141 0 0  0.5476987447692853 0 0  0.550920502091467 0 0  0.5541422594136513 0 0  0.5573640167358447 0 0  0.560585774058034 0 0  0.5638075313802158 0 0  0.5670292887023975 0 0  0.5702510460245793 0 0  0.5734728033467682 0 0  0.5766945606689615 0 0  0.579916317991155 0 0  0.5831380753133483 0 0  0.5863598326355314 0 0  0.5895815899577131 0 0  0.5928033472798949 0 0  0.5960251046020785 0 0  0.5992468619242718 0 0  0.6024686192464619 0 0  0.6056903765686437 0 0  0.6089121338908206 0 0  0.6121338912129908 0 0  0.6153556485351673 0 0  0.618577405857349 0 0  0.6217991631795386 0 0  0.625020920501732 0 0  0.6282426778239159 0 0  0.6314644351460976 0 0  0.6346861924682795 0 0  0.6379079497904622 0 0  0.6411297071126555 0 0  0.6443514644348465 0 0  0.6475732217570283 0 0  0.650794979079206 0 0  0.6540167364013761 0 0  0.6572384937235518 0 0  0.6604602510457335 0 0  0.6636820083679225 0 0  0.6669037656901158 0 0  0.6701255230123004 0 0  0.6733472803344823 0 0  0.6765690376566641 0 0  0.6797907949788459 0 0  0.6830125523010393 0 0  0.686234309623231 0 0  0.6894560669454127 0 0  0.6926778242675914 0 0  0.6958995815897615 0 0  0.6991213389119363 0 0  0.7023430962341181 0 0  0.7055648535563062 0 0  0.7087866108784994 0 0  0.712008368200685 0 0  0.7152301255228668 0 0  0.7184518828450486 0 0  0.7216736401672305 0 0  0.724895397489423 0 0  0.7281171548116155 0 0  0.7313389121337973 0 0  0.7345606694559768 0 0  0.7377824267781468 0 0  0.7410041841003209 0 0  0.7442259414225026 0 0  0.7474476987446899 0 0  0.7506694560668832 0 0  0.7538912133890696 0 0  0.7571129707112513 0 0  0.760334728033433 0 0  0.7635564853556149 0 0  0.7667782426778067 0 0  0.77 0.001685393258423789 0  0.77 0.003370786516847669 0  0.77 0.005056179775271247 0  0.77 0.006741573033694517 0  0.77 0.008426966292117821 0  0.77 0.01011235955054176 0  0.77 0.01179775280896623 0  0.77 0.0134831460673904 0  0.77 0.01516853932581489 0  0.77 0.01685393258423891 0  0.77 0.01853932584266291 0  0.77 0.02022471910108589 0  0.77 0.02191011235950794 0  0.77 0.02359550561792999 0  0.77 0.02528089887635205 0  0.77 0.02696629213477411 0  0.77 0.02865168539319714 0  0.77 0.03033707865161956 0  0.77 0.03202247191004162 0  0.77 0.03370786516846367 0  0.77 0.03539325842688572 0  0.77 0.03707865168530778 0  0.77 0.03876404494372984 0  0.77 0.0404494382021519 0  0.77 0.04213483146057394 0  0.77 0.04382022471899601 0  0.77 0.04550561797741807 0  0.77 0.04719101123584013 0  0.77 0.04887640449426219 0  0.77 0.05056179775268425 0  0.77 0.0522471910111063 0  0.77 0.05393258426952837 0  0.77 0.05561797752795105 0  0.77 0.05730337078637505 0  0.77 0.05898876404479723 0  0.77 0.0606741573032193 0  0.77 0.06235955056164135 0  0.77 0.06404494382006341 0  0.77 0.06573033707848548 0  0.77 0.06741573033690752 0  0.77 0.06910112359532959 0  0.77 0.07078651685375165 0  0.77 0.0724719101121737 0  0.77 0.07415730337059653 0  0.77 0.07584269662902443 0  0.77 0.07752808988745429 0  0.77 0.07921348314588413 0  0.77 0.08089887640431678 0  0.77 0.08258426966274923 0  0.77 0.08426966292117907 0  0.77 0.08595505617960987 0  0.77 0.08764044943804362 0  0.77 0.08932584269647403 0  0.77 0.09101123595490389 0  0.77 0.09269662921333673 0  0.77 0.09438202247176901 0  0.77 0.09606741573019884 0  0.77 0.09775280898862983 0  0.77 0.09943820224706355 0  0.77 0.1011235955054938 0  0.77 0.1028089887639236 0  0.77 0.1044943820223567 0  0.77 0.1061797752807888 0  0.77 0.1078651685392186 0  0.77 0.1095505617976498 0  0.77 0.1112359550560835 0  0.77 0.1129213483145136 0  0.77 0.1146067415729456 0  0.77 0.1162921348313787 0  0.77 0.1179775280898085 0  0.77 0.1196629213482387 0  0.77 0.1213483146066724 0  0.77 0.1230337078651035 0  0.77 0.1247191011235322 0  0.77 0.1264044943819605 0  0.77 0.1280898876403903 0  0.77 0.1297752808988242 0  0.77 0.1314606741572554 0  0.77 0.1331460674156853 0  0.77 0.1348314606741154 0  0.77 0.1365168539325504 0  0.77 0.1382022471909802 0  0.77 0.13988764044941 0  0.77 0.1415730337078443 0  0.77 0.1432584269662752 0  0.77 0.144943820224705 0  0.77 0.1466292134831355 0  0.77 0.1483146067415701 0  0.7667782426778414 0.15 0  0.7635564853556813 0.15 0  0.7603347280335111 0.15 0  0.757112970711341 0.15 0  0.7538912133891708 0.15 0  0.7506694560670005 0.15 0  0.7474476987448303 0.15 0  0.7442259414226602 0.15 0  0.74100418410049 0.15 0  0.7377824267783197 0.15 0  0.7345606694561496 0.15 0  0.7313389121339794 0.15 0  0.7281171548118092 0.15 0  0.724895397489639 0.15 0  0.7216736401674688 0.15 0  0.7184518828452986 0.15 0  0.7152301255231284 0.15 0  0.7120083682009583 0.15 0  0.708786610878788 0.15 0  0.7055648535566178 0.15 0  0.7023430962344477 0.15 0  0.6991213389122775 0.15 0  0.6958995815901072 0.15 0  0.692677824267937 0.15 0  0.6894560669457669 0.15 0  0.6862343096235967 0.15 0  0.6830125523014264 0.15 0  0.6797907949792563 0.15 0  0.6765690376570861 0.15 0  0.6733472803349159 0.15 0  0.6701255230127456 0.15 0  0.6669037656905755 0.15 0  0.6636820083684053 0.15 0  0.6604602510462351 0.15 0  0.657238493724065 0.15 0  0.6540167364018947 0.15 0  0.6507949790797245 0.15 0  0.6475732217575543 0.15 0  0.644351464435384 0.15 0  0.6411297071132231 0.15 0  0.6379079497910645 0.15 0  0.634686192468906 0.15 0  0.6314644351467468 0.15 0  0.6282426778245765 0.15 0  0.6250209205024085 0.15 0  0.62179916318025 0.15 0  0.6185774058580914 0.15 0  0.6153556485359328 0.15 0  0.6121338912137689 0.15 0  0.6089121338915987 0.15 0  0.6056903765694354 0.15 0  0.6024686192472768 0.15 0  0.5992468619251182 0.15 0  0.5960251046029597 0.15 0  0.5928033472807912 0.15 0  0.589581589958621 0.15 0  0.5863598326364508 0.15 0  0.5831380753142792 0.15 0  0.5799163179920974 0.15 0  0.57669456
[...]
<PointData  Scalars="concentration"> 
<DataArray  type="Float64"  Name="concentration"  format="ascii">0.0000000000000000e+00  1.0000000000000013e+00  3.2570772448217683e-01  0.0000000000000000e+00  7.3919020741752717e-02  -1.0356634786682299e-02  -1.2191772246180810e-01  5.8202228971354053e-01  8.5924132210807758e-01  8.5709834490024983e-01  8.6249217462890326e-01  8.6262153089557314e-01  8.6211247102896071e-01  8.6179378912952154e-01  8.6165292233671631e-01  8.6158795204795813e-01  8.6161057147594600e-01  8.6166282921617909e-01  8.6172664608022298e-01  8.6183945196375789e-01  8.6190659680597270e-01  8.6204623877906983e-01  8.6211371980535534e-01  8.6227203781765693e-01  8.6233351468775110e-01  8.6251579661242395e-01  8.6258307538055023e-01  8.6276117053526624e-01  8.6289012085523875e-01  8.6301484145028784e-01  8.6323478252827712e-01  8.6334318482067218e-01  8.6355888904000933e-01  8.6380080383907931e-01  8.6387814040771393e-01  8.6432848651463223e-01  8.6431424164554471e-01  8.6482597537081651e-01  8.6493642706033735e-01  8.6532811906060503e-01  8.6565565516502740e-01  8.6598400795198105e-01  8.6636964922622328e-01  8.6685189243210170e-01  8.6713899306511932e-01  8.6782993117261209e-01  8.6811733368666721e-01  8.6884307785224402e-01  8.6932589163006480e-01  8.6999729124077418e-01  8.7066656147467258e-01  8.7138860269355312e-01  8.7217857684561906e-01  8.7297040068896270e-01  8.7392452809366294e-01  8.7483157607945339e-01  8.7582145820582846e-01  8.7701992100620374e-01  8.7807428848877211e-01  8.7929914746178639e-01  8.8079232952557329e-01  8.8202369787249424e-01  8.8345661933946507e-01  8.8543330603110471e-01  8.8669924978599135e-01  8.8840254669123520e-01  8.9108104863030546e-01  8.9210436629293299e-01  8.9407999067032851e-01  8.9800731283870772e-01  8.9786167705539943e-01  9.0024014358017068e-01  9.0663044611004628e-01  9.0243847723647153e-01  9.0612567211918849e-01  9.1726795232458669e-01  9.0009428012329040e-01  9.0555722006484796e-01  9.3084281399959956e-01  7.8570049195475045e-01  7.7352175619321695e-01  7.2001344191726147e-01  7.2153311276584831e-01  7.3370801845947731e-01  7.4077497687335236e-01  7.4440755119459123e-01  7.4534169825032237e-01  7.4553206844624198e-01  7.4570848424646663e-01  7.4419960148449926e-01  7.4417979140912183e-01  7.4511822805920269e-01  7.4217775160753396e-01  7.4432097433126543e-01  7.4737187445319464e-01  7.4022400303926050e-01  7.4909493044868403e-01  7.5587951228992567e-01  7.3621985613330054e-01  7.6825311194711721e-01  7.8188401781862593e-01  7.4592378004373205e-01  8.6469420050228241e-01  6.9262027071529064e-01  1.0138827654238904e+00  1.0401763540666336e+00  1.0285822405188909e+00  1.0159299590347799e+00  1.0080465881396752e+00  1.0038805682067127e+00  1.0018270784784435e+00  1.0008488439537604e+00  1.0003912380832845e+00  1.0001793854222900e+00  1.0000819332733026e+00  1.0000373026536307e+00  1.0000169332010955e+00  1.0000076645799179e+00  1.0000034592253570e+00  1.0000015566430396e+00  1.0000006983867806e+00  1.0000003123833208e+00  1.0000001393021041e+00  1.0000000619328970e+00  1.0000000274534029e+00  1.0000000121341539e+00  1.0000000053491673e+00  1.0000000023503053e+00  1.0000000010326759e+00  1.0000000004488474e+00  1.0000000001999583e+00  1.0000000000821168e+00  1.0000000000414551e+00  1.0000000000121041e+00  1.0000000000104812e+00  1.0000000000010005e+00  1.0000000000012250e+00  1.0000000000033917e+00  9.9999999999437605e-01  1.0000000000089972e+00  9.9999999998854505e-01  1.0000000000134082e+00  9.9999999998567690e-01  1.0000000000142775e+00  9.9999999998671818e-01  1.0000000000115725e+00  9.9999999999060463e-01  1.0000000000070604e+00  9.9999999999518663e-01  1.0000000000028411e+00  9.9999999999880851e-01  9.9999999999980305e-01  1.0000000000015055e+00  9.9999999999712785e-01  1.0000000000042120e+00  9.9999999999514444e-01  1.0000000000032570e+00  1.0000000000032316e+00  9.9999999998184796e-01  1.0000000000452851e+00  9.9999999991267563e-01  1.0000000001442206e+00  9.9999999978846632e-01  1.0000000002797185e+00  9.9999999966486508e-01  1.0000000003636027e+00  9.9999999964393815e-01  1.0000000003145619e+00  9.9999999974506337e-01  1.0000000002026774e+00  9.9999999981864873e-01  1.0000000001990992e+00  9.9999999975617637e-01  1.0000000002960860e+00  9.9999999964418940e-01  1.0000000004607406e+00  9.9999999933350148e-01  1.0000000009786754e+00  9.9999999872483558e-01  1.0000000013011385e+00  9.9999999919242544e-01  9.9999999980944854e-01  1.0000000012010195e+00  9.9999999867183298e-01  9.9999999977862453e-01  1.0000000033425032e+00  9.9999999358599290e-01  1.0000000064459087e+00  9.9999999970555431e-01  9.9999998661395573e-01  1.0000000324347260e+00  9.9999994909185408e-01  1.0000000609139799e+00  9.9999994385894997e-01  1.0000000355602172e+00  9.9999999467492739e-01  9.9999997751452196e-01  1.0000000341669715e+00  9.9999997998159140e-01  9.9999997875294799e-01  1.0000000814159549e+00  9.9999985441799655e-01  1.0000001975818784e+00  9.9999977437530729e-01  1.0000002257559963e+00  9.9999979800353656e-01  1.0000001636071412e+00  9.9999987890171516e-01  1.0000000828086186e+00  9.9999994679124860e-01  1.0000000330490435e+00  9.9999997932857076e-01  1.0000000135610778e+00  9.9999999053204824e-01  1.0000000068840491e+00  9.9999999497903869e-01  1.0000000035634846e+00  9.9999999758116731e-01  1.0000000015578567e+00  9.9999999905138803e-01  1.0000000005448051e+00  9.9999999970574172e-01  1.0000000001488820e+00  9.9999999992980459e-01  1.0000000000306501e+00  9.9999999998769618e-01  1.0000000000045131e+00  9.9999999999849498e-01  1.0000000000004616e+00  9.9999999999986677e-01  1.0000000000000415e+00  9.9999999999998745e-01  1.0000000000000053e+00  9.9999999999999878e-01  1.0000000000000013e+00  1.0000000000000007e+00  1.0000000000000016e+00  1.0000000000000009e+00  1.0000000000000013e+00  1.0000000000000011e+00  1.0000000000000020e+00  1.0000000000000007e+00  1.0000000000000004e+00  1.0000000000000004e+00  1.0000000000000004e+00  1.0000000000000007e+00  1.0000000000000000e+00  1.0000000000000002e+00  1.0000000000000009e+00  1.0000000000000002e+00  1.0000000000000007e+00  1.0000000000000009e+00  1.0000000000000002e+00  1.0000000000000009e+00  1.0000000000000000e+00  1.0000000000000027e+00  9.9999999999999345e-01  1.0000000000000231e+00  9.9999999999993072e-01  1.0000000000002129e+00  9.9999999999937528e-01  1.0000000000018066e+00  9.9999999999487366e-01  1.0000000000143456e+00  9.9999999996032995e-01  1.0000000001088014e+00  9.9999999970283326e-01  1.0000000008123973e+00  9.9999999776361237e-01  1.0000000062429470e+00  9.9999998219221287e-01  1.0000000522552976e+00  9.9999984196478198e-01  1.0000004869901233e+00  9.9999853459745602e-01  1.0000037595270219e+00  9.9999717435495750e-01  9.9991242024099503e-01  9.9986299987554361e-01  9.9988392942895288e-01  9.9981490159826636e-01  9.9993013457630409e-01  9.9958941746147689e-01  1.0004555074904549e+00  9.9845537442245569e-01  1.0024080816350360e+00  9.9602124534560332e-01  1.0035267953238503e+00  9.9721483992651250e-01  1.0001668973866622e+00  9.8118115496465785e-01  3.9750310111200304e-01  4.1242933397354464e-01  2.7093847266878707e-01  2.6021987314275880e-02  6.0987642439408636e-02  2.6411974364071705e-01  1.0319147980393473e-01  5.1308149600135286e-02  2.5817015853647773e-02  -5.6517340991322849e-02  5.1772478750920070e-01  7.9159827756430642e-02  -1.4743193479467795e-01  7.4272202477096883e-01  -2.0275410626428927e-01  8.2573040783940377e-01  -6.1083109553942755e-03  7.3069364521555835e-01  7.0603942200860428e-02  7.1991167954183111e-01  1.0647427183642354e-01  2.9850042705867019e-01  -5.0792855248514818e-02  3.5795289396290390e-02  1.9773112137178939e-01  1.4280371583842778e-02  -8.5895664553818033e-03  1.3876690149883175e-03  3.6552017176023440e-05  -4.7203826417286298e-04  4.9552920667184129e-04  -9.4601720812318867e-04  3.3246362272672872e-03  -1.1245337949709737e-02  3.7990194172424253e-02  -1.6237655337616594e-01  8.3922980315514506e-01  -4.3214997023358948e-01  1.1504370879632664e+00  3.8306313520566021e-01  5.8187101342043834e-01  1.0634627713922506e+00  4.7692430958721732e-01  -9.0800477634572649e-02  3.8958418886114066e-01  1.2442402314906158e+00  2.4655485478844083e-01  -9.9996325277773357e-02  3.7911108910829405e-01  7.7367707101229011e-01  -7.0782826006090455e-02  4.0183592723913764e-01  1.2368844974426827e+00  8.4267433398429026e-01  7.5810003432719664e-01  8.6739470421520215e-01  8.6906149087806284e-01  8.0022893668380035e-01  8.3886390383687737e-01  8.4942865775156251e-01  8.2720634717639818e-01  8.0938854008381478e-01  8.7659648048565308e-01  7.9052149132819105e-01  8.7752874009410520e-01  8.1199234144720445e-01  9.0575309678447635e-01  8.0229324399042579e-01  8.4378925290729989e-01  6.2831379798783182e-01  9.7441108607284899e-01  1.1472468329401460e+00  4.7478116171479889e-01  -4.2961382863443898e-01  -5.3464952789838738e-01  5.9305019730045490e-02  6.6841674939797668e-01  1.7751391824406362e-01  -7.9892938193090890e-01  -1.4053231885803108e-01  3.4964269143351917e-01  -4.6490490545651401e-02  -3.9155227261668243e-02  1.5105737410533820e-01  1.3023311784268149e-01  -2.1022005991216796e-03  1.3932538784538304e-01  1.6190591382695751e-01  5.1454968453226446e-02  1.3986194003443936e-01  1.5605264390046383e-01  1.1322336478280734e-01  1.4761735327360667e-01  2.1948236617753022e-01  2.5229848519035636e-01  4.0863296269102617e-01  7.2056792615858245e-01  9.4100355687355364e-01  -2.2652390901522015e-01  -3.7886725838628266e-01  3.7646615639623854e-01  9.3077991901907442e-01  8.0778285043711329e-01  7.2294596173414138e-03  -1.0000347576484392e-01  6.6947728256376349e-01  1.1281036560921469e+00  4.3267003316457560e-02  -1.6381459848892224e-01  6.6549858872516132e-01  1.1883897154906946e+00  1.2220396652944414e-01  -1.5574927785551376e-01  6.6519753939498849e-01  1.1340685909456418e+00  1.6329881616865866e-01  -2.4760750303097440e-01  2.8268714531180295e-01  6.6000210558504890e-01  9.6168260791098226e-01  3.1591231173215517e-01  -2.6600734645195578e-01  2.3180137761882927e-01  6.1939658229588013e-01  1.0077080393527809e+00  3.1611978650627964e-01  -1.7741480312757282e-01  4.0854956087799449e-01  7.7166679645242664e-01  -1.3891440498758084e-01  3.2250020426530374e-01  8.3572834118199046e-01  -8.8547961798605176e-02  4.0217223826809789e-01  1.1697122611023498e+00  2.8907173696848848e-01  -3.0323095288873281e-01  1.2769659059274077e-01  6.3499794553175204e-01  5.0254475313269475e-01  -2.6620092394673905e-01  2.2189231642075591e-02  2.0885401288612077e-01  1.7770439553699205e-01  4.3816050635919235e-01  7.0205689504587954e-01  -1.0797744109936967e-01  3.6398134313609698e-01  7.7420761423541440e-01  -3.1221921329135947e-02  3.7507027395754355e-01  1.2077105587512540e+00  4.4727030424942771e-01  5.6496232389098802e-02  8.4266449517705211e-01  2.7796656704145634e-01  5.8571101015394944e-01  -5.5375599184246928e-02  3.8057361565194048e-01  7.5106038441843015e-01  -1.1837913548099131e-01  3.5144818043543591e-01  7.7441122984107458e-01  -1.0047021770830045e-01  3.0237758097969974e-01  7.5213056045817028e-01  -2.2494848820440180e-01  -6.1989143117818460e-02  2.1479659332633166e-01  2.4999014331237662e-01  3.9087233391621196e-01  6.8257832080896563e-01  -4.3480859892574997e-02  2.9235779593677014e-01  7.2393674375752903e-01  -2.1001095142860632e-01  -1.2582993321864006e-01  1.5115150257875667e-01  2.7289411067930147e-01  7.4778794386167680e-01  1.5607511899955679e+00  2.1006005347967385e+00  1.8458903704028826e+00  1.9728215107481912e+00  1.9785314530806586e+00  1.8035208388570370e+00  1.8801299907945972e+00  1.8757702272400338e+00  1.7365138871674188e+00  1.7814528243924501e+00  1.7612433867653630e+00  1.6665876326571258e+00  1.6839979677536019e+00  1.6427002507341195e+00  1.6279936547221250e+00  1.5417576456954643e+00  1.6186112235528456e+00  1.4931860435824504e+00  1.5284230199224469e+00  1.4944359497564965e+00  1.4709728211844670e+00  1.4440400554785791e+00  1.4462560605425920e+00  1.4179788011817271e+00  1.3893265917660769e+00  1.4104887622676914e+00  1.3538013375974418e+00  1.3764855906552542e+00  1.3380864845784561e+00  1.3463282930603739e+00  1.3158167366909714e+00  1.3190869925342756e+00  1.2996280759336625e+00  1.2863609577297719e+00  1.2782626169132185e+00  1.2623069680016892e+00  1.2472184475540800e+00  1.2537595634342960e+00  1.2409745767080680e+00  1.2409775050382350e+00  1.2772134340565495e+00  1.3688657409445246e+00  1.1599438267314419e+00  1.6936497075238119e+00  1.1381696382801387e+00  1.5238391333750709e+00  9.8018824529582238e-01  3.2787802845307573e-01  1.0109809383537136e+00  1.1312305161149716e+00  1.3877786936338390e-02  1.2639054160358398e+00  1.0797383023292197e+00  2.8206080012391378e-02  1.1742201053736816e+00  9.0672390658910240e-01  -2.1842601024030714e-01  3.2864762423046656e-01  8.9731603025394446e-01  7.7458011546106029e-02  2.2418130245574305e-01  1.4762700398921647e+00  8.9255337363187770e-01  1.1770364113042062e+00  3.2657349247542011e-01  1.0332691970756567e+00  1.3738118159888162e+00  9.1413614393393527e-01  1.8204519247402476e-01  1.3009899346061391e+00  9.8395375901077420e-01  1.4105288891873433e+00  1.1026042964680929e+00  1.2171396368390932e+00  1.2974196922723411e+00  1.0743918704063475e+00  1.4604410921391977e+00  1.2633868463173301e+00  1.2540006908293313e+00  1.2666134408120562e+00  1.2283378918740904e+00  1.2773328428366864e+00  1.2644059476774949e+00  1.3433931141705691e+00  1.3079750254814315e+00  1.2557847140105747e+00  1.2239175565448970e+00  1.3249562690923402e+00  1.2550090119952024e+00  1.3204616257385040e+00  1.1858195066737938e+00  1.1988332089979563e+00  1.0337839579751007e+00  8.6363715130221919e-01  -7.3540858383994989e-02  -4.7704064221487839e-02  7.7922567926999170e-02  0.0000000000000000e+00  0.0000000000000000e+00  0.0000000000000000e+00  0.0000000000000000e+00  0.0000000000000000e+00  0.0000000000000000e+00  0.0000000000000000e+00  0.0000000000000000e+00  0.0000000000000000e+00  0.0000000000000000e+00  0.0000000000000000e+00  0.0000000000000000e+00  0.0000000000000000e+00  0.0000000000000000e+00  0.0000000000000000e+00  0.0000000000000000e+00  0.0000000000000000e+00  0.0000000000000000e+00  0.0000000000000000e+00  0.0000000000000000e+00  0.0000000000000000e+00  0.0000000000000000e+00  0.0000000000000000e+00  0.0000000000000000e+00  0.0000000000000000e+00  0.0000000000000000e+00  0.0000000000000000e+00  0.0000000000000000e+00  0.0000000000000000e+00  0.0000000000000000e+00  0.0000000000000000e+00  0.0000000000000000e+00  0.0000000000000000e+00  0.0000000000000000e+00  0.0000000000000000e+00  0.0000000000000000e+00  0.0000000000000000e+00  0.0000000000000000e+00  0.0000000000000000e+00  0.0000000000000000e+00  0.0000000000000000e+00  0.0000000000000000e+00  0.0000000000000000e+00  0.0000000000000000e+00  0.0000000000000000e+00  0.0000000000000000e+00  0.0000000000000000e+00  0.0000000000000000e+00  0.0000000000000000e+00  0.0000000000000000e+00  0.0000000000000000e+00  0.0000000000000000e+00  0.0000000000000000e+00  0.0000000000000000e+00  0.0000000000000000e+00  0.0000000000000000e+00  0.0000000000000000e+00  0.0000000000000000e+00  0.0000000000000000e+00  0.0000000000000000e+00  0.0000000000000000e+00  0.0000000000000000e+00  0.0000000000000000e+00  0.0000000000000000e+00  0.0000000000000000e+00  0.0000000000000000e+00  0.0000000000000000e+00  0.0000000000000000e+00  0.0000000000000000e+00  0.0000000000000000e+00  0.0000000000000000e+00  0.0000000000000000e+00  0.0000000000000000e+00  0.0000000000000000e+00  0.0000000000000000e+00  0.0000000000000000e+00  0.0000000000000000e+00  0.0000000000000000e+00  0.0000000000000000e+00  0.0000000000000000e+00  0.0000000000000000e+00  0.0000000000000000e+00  0.0000000000000000e+00  0.0000000000000000e+00  0.0000000000000000e+00  0.0000000000000000e+00  0.0000000000000000e+00  0.0000000000000000e+00  -2.0878631657974843e-02  -8.3257095239687454e-02  -4.2383556333693166e-02  -7.1578889361519184e-03  1.2611168039277493e-04  3.2594705405947305e-05  -9.8137333581285396e-06  2.7948343378602596e-06  -2.1077802582471569e-07  1.3691572242768674e-07  -4.6641027634996066e-07  9.3972582377342647e-07  -6.2429505359967894e-07  1.3604774167808904e-06  -1.6813338127878810e-07  1.1419768699891715e-06  -1.9353258185963868e-06  3.3450848868212289e-06  -6.9436559781969304e-06  1.0268466997822552e-05  -1.2273119319327514e-05  1.4080798717340719e-05  -1.3127263487137714e-05  1.2883962467590861e-05  -1.3041779145007313e-05  1.5046894687144476e-05  -1.8443562820810606e-05  2.2803494138518259e-05  -2.4912696154469877e-05  2.3960492412850357e-05  -2.0257438929864859e-05  1.6986074514040798e-05  -1.5754626576537496e-05  1.6847069087200929e-05  -1.9813734029643185e-05  2.2140343542644359e-05  -1.9215248232916608e-05  9.6562347672553478e-06  2.8873263768582483e-06  -1.5763845289948278e-05  2.7594176891666781e-05  -3.3058926466169584e-05  3.0103639208101796e-05  -2.4548053032674920e-05  1.6782979605132793e-05  -4.5980644985911636e-06  -6.8124342313666750e-06  2.6083667619360536e-05  -6.3456668020111528e-05  1.0160692726399344e-04  -1.4312685195157817e-04  1.8319126738243615e-04  -2.0318906366718133e-04  2.7262706929268612e-04  -3.2393560601512119e-04  4.3116746162283164e-04  -4.4259615618890644e-04  4.3600037388447685e-04  -3.0047702274885391e-04  1.9946473756818643e-04  -5.1770107568162345e-05  -1.3740808192672395e-05  1.2029232228977853e-04  -9.5183210190437470e-05  -2.0681314295929344e-05  4.0009564228750974e-04  -8.4181972070800526e-04  1.3864058687076710e-03  -1.9221701470257891e-03  2.7614662896990800e-03  -3.8309935276655120e-03  5.0808247348892339e-03  -5.9819518469063195e-03  6.4199525585135284e-03  -5.9465509951450073e-03  4.2704450588478887e-03  -9.4978752404155527e-04  -2.9578693056193203e-03  5.7782530874190552e-03  -5.6503834846310785e-03  1.8803755680105541e-03  6.3869926286126465e-03  -1.7661687546305916e-02  2.7310207590050109e-02  -2.9353434816709802e-02  2.0014187115645982e-02  6.8615601960441653e-03  -4.9400667397709104e-02  8.9461884051141069e-02  8.3508477664938699e-03  -2.0845146457536316e-02  -7.1207669058842554e-03  -4.8950190215652905e-05  7.2744608636119118e-05  -1.7421737333518506e-05  2.9247040455535817e-06  -1.7064235829407549e-07  2.0163811655321971e-07  -3.7879918795483657e-07  -6.3359113257879635e-08  -6.8972190485562065e-08  -7.2830931447879330e-07  3.7195160699359950e-07  3.3073219465151245e-07  -7.2016334042211220e-07  1.9788065661392309e-06  -2.3057951506970581e-06  6.3340389526841022e-07  1.4843952343603890e-06  -4.7342608882544480e-06  6.8824673437718575e-06  -7.4348123444976067e-06  6.6120929943702216e-06  -5.2934740398702575e-06  4.5512509305938036e-06  -6.3223606976663725e-06  1.0463470489652554e-05  -1.5093170790937709e-05  1.7317800478878373e-05  -1.6279927342118915e-05  1.3336788831574965e-05  -1.0205772729857677e-05  9.0556478986514285e-06  -1.2201739350080445e-05  1.8579290550847212e-05  -2.3285248774651502e-05  2.3378410276653965e-05  -1.9116808157520886e-05  9.4698990686652217e-06  4.2794172722279120e-06  -1.5464615410389332e-05  2.2085579752035817e-05  -2.6519349817031168e-05  2.6521125662946393e-05  -2.6809659714576415e-05  3.3200907792840709e-05  -3.2254507916842381e-05  2.1931110509692791e-05  -3.6855411222853002e-06  -2.9791036205533051e-05  3.7599298836729427e-05  -5.5583131114103434e-05  6.0860071651181194e-05  -1.2573416733427872e-04  2.0924606434699730e-04  -3.2557187874289006e-04  3.7873210070823272e-04  -3.9011485705428025e-04  3.2733005318397868e-04  -2.6276135503409314e-04  1.4220804956563342e-04  6.6674159678741659e-06  -2.1105394516688307e-04  3.2538868166945447e-04  -3.1996931474653420e-04  1.6866053034278510e-04  -3.6074572162951804e-05  -1.2520536688278186e-04  4.2740214462804919e-04  -1.1298491650585543e-03  2.1784810364661182e-03  -3.5274586967729022e-03  5.0266565439954329e-03  -6.5034166050939495e-03  7.0973289786616543e-03  -5.9225157714539282e-03  2.7021318503290584e-03  1.699754457