<?xml version="1.0"?>
<VTKFile type="UnstructuredGrid"  version="0.1"  >
<UnstructuredGrid>
<Piece  NumberOfPoints="21600" NumberOfCells="42542">
<Points>
<DataArray  type="Float64"  NumberOfComponents="3"  format="ascii">0 0 0  0.77 0 0  0.77 0.15 0  0 0.15 0  0.003221757322170014 0 0  0.006443514644340046 0 0  0.009665271966510193 0 0  0.01288702928868034 0 0  0.01610878661085048 0 0  0.01933054393302049 0 0  0.02255230125519027 0 0  0.02577405857735967 0 0  0.02899581589952872 0 0  0.03221757322169801 0 0  0.03543933054386744 0 0  0.03866108786603686 0 0  0.04188284518820627 0 0  0.0451046025103757 0 0  0.04832635983254521 0 0  0.05154811715471607 0 0  0.05476987447688695 0 0  0.05799163179905782 0 0  0.06121338912122846 0 0  0.06443514644339859 0 0  0.06765690376556875 0 0  0.0708786610877389 0 0  0.07410041840990904 0 0  0.0773221757320792 0 0  0.08054393305425039 0 0  0.08376569037642198 0 0  0.0869874476985936 0 0  0.09020920502076518 0 0  0.0934309623429339 0 0  0.0966527196651024 0 0  0.09987447698726967 0 0  0.1030962343094369 0 0  0.1063179916316041 0 0  0.1095397489537714 0 0  0.1127615062759386 0 0  0.1159832635981051 0 0  0.1192050209202709 0 0  0.1224267782424358 0 0  0.1256485355646001 0 0  0.1288702928867644 0 0  0.1320920502089288 0 0  0.1353138075310958 0 0  0.1385355648532632 0 0  0.1417573221754333 0 0  0.1449790794976035 0 0  0.1482008368197736 0 0  0.1514225941419428 0 0  0.1546443514641101 0 0  0.157866108786276 0 0  0.1610878661084403 0 0  0.1643096234306047 0 0  0.167531380752769 0 0  0.1707531380749333 0 0  0.1739748953970977 0 0  0.177196652719262 0 0  0.1804184100414264 0 0  0.1836401673635935 0 0  0.1868619246857611 0 0  0.1900836820079313 0 0  0.1933054393301014 0 0  0.1965271966522716 0 0  0.1997489539744406 0 0  0.2029707112966078 0 0  0.2061924686187736 0 0  0.209414225940938 0 0  0.2126359832631022 0 0  0.2158577405852666 0 0  0.219079497907431 0 0  0.2223012552295953 0 0  0.2255230125517597 0 0  0.2287447698739242 0 0  0.2319665271960914 0 0  0.2351882845182592 0 0  0.2384100418404293 0 0  0.2416317991625994 0 0  0.2448535564847696 0 0  0.2480753138069371 0 0  0.2512970711291014 0 0  0.2545188284512658 0 0  0.2577405857734302 0 0  0.2609623430955986 0 0  0.2641841004177688 0 0  0.2674058577399389 0 0  0.270627615062109 0 0  0.2738493723842792 0 0  0.2770711297064487 0 0  0.280292887028613 0 0  0.2835146443507774 0 0  0.2867364016729417 0 0  0.2899581589951061 0 0  0.2931799163172705 0 0  0.2964016736394348 0 0  0.2996234309615992 0 0  0.3028451882837672 0 0  0.3060669456059373 0 0  0.3092887029281075 0 0  0.3125104602502776 0 0  0.3157322175724478 0 0  0.3189539748946177 0 0  0.322175732216782 0 0  0.3253974895389464 0 0  0.3286192468611107 0 0  0.3318410041832751 0 0  0.3350627615054395 0 0  0.3382845188276038 0 0  0.3415062761497681 0 0  0.3447280334719325 0 0  0.3479497907940968 0 0  0.3511715481162612 0 0  0.3543933054384255 0 0  0.3576150627605947 0 0  0.3608368200827649 0 0  0.364058577404935 0 0  0.3672803347271051 0 0  0.3705020920492753 0 0  0.373723849371444 0 0  0.3769456066936084 0 0  0.3801673640157748 0 0  0.383389121337945 0 0  0.3866108786601209 0 0  0.3898326359823028 0 0  0.3930543933044846 0 0  0.3962761506266662 0 0  0.399497907948848 0 0  0.4027196652710298 0 0  0.4059414225932116 0 0  0.4091631799153934 0 0  0.4123849372375751 0 0  0.4156066945597569 0 0  0.4188284518819387 0 0  0.4220502092041222 0 0  0.4252719665263097 0 0  0.4284937238484974 0 0  0.4317154811706849 0 0  0.4349372384928725 0 0  0.4381589958150601 0 0  0.4413807531372476 0 0  0.4446025104594352 0 0  0.4478242677816181 0 0  0.4510460251037998 0 0  0.4542677824259815 0 0  0.4574895397481634 0 0  0.4607112970703451 0 0  0.4639330543925269 0 0  0.4671548117147087 0 0  0.4703765690368904 0 0  0.4735983263590722 0 0  0.4768200836812568 0 0  0.4800418410034444 0 0  0.483263598325632 0 0  0.4864853556478196 0 0  0.4897071129700028 0 0  0.4929288702921845 0 0  0.4961506276143663 0 0  0.4993723849365479 0 0  0.5025941422587239 0 0  0.5058158995809008 0 0  0.5090376569030826 0 0  0.5122594142252677 0 0  0.515481171547461 0 0  0.5187029288696494 0 0  0.5219246861918312 0 0  0.525146443514013 0 0  0.5283682008361947 0 0  0.5315899581583845 0 0  0.5348117154805778 0 0  0.5380334728027617 0 0  0.5412552301249435 0 0  0.5444769874471141 0 0  0.5476987447692853 0 0  0.550920502091467 0 0  0.5541422594136513 0 0  0.5573640167358447 0 0  0.560585774058034 0 0  0.5638075313802158 0 0  0.5670292887023975 0 0  0.5702510460245793 0 0  0.5734728033467682 0 0  0.5766945606689615 0 0  0.579916317991155 0 0  0.5831380753133483 0 0  0.5863598326355314 0 0  0.5895815899577131 0 0  0.5928033472798949 0 0  0.5960251046020785 0 0  0.5992468619242718 0 0  0.6024686192464619 0 0  0.6056903765686437 0 0  0.6089121338908206 0 0  0.6121338912129908 0 0  0.6153556485351673 0 0  0.618577405857349 0 0  0.6217991631795386 0 0  0.625020920501732 0 0  0.6282426778239159 0 0  0.6314644351460976 0 0  0.6346861924682795 0 0  0.6379079497904622 0 0  0.6411297071126555 0 0  0.6443514644348465 0 0  0.6475732217570283 0 0  0.650794979079206 0 0  0.6540167364013761 0 0  0.6572384937235518 0 0  0.6604602510457335 0 0  0.6636820083679225 0 0  0.6669037656901158 0 0  0.6701255230123004 0 0  0.6733472803344823 0 0  0.6765690376566641 0 0  0.6797907949788459 0 0  0.6830125523010393 0 0  0.686234309623231 0 0  0.6894560669454127 0 0  0.6926778242675914 0 0  0.6958995815897615 0 0  0.6991213389119363 0 0  0.7023430962341181 0 0  0.7055648535563062 0 0  0.7087866108784994 0 0  0.712008368200685 0 0  0.7152301255228668 0 0  0.7184518828450486 0 0  0.7216736401672305 0 0  0.724895397489423 0 0  0.7281171548116155 0 0  0.7313389121337973 0 0  0.7345606694559768 0 0  0.7377824267781468 0 0  0.7410041841003209 0 0  0.7442259414225026 0 0  0.7474476987446899 0 0  0.7506694560668832 0 0  0.7538912133890696 0 0  0.7571129707112513 0 0  0.760334728033433 0 0  0.7635564853556149 0 0  0.7667782426778067 0 0  0.77 0.001685393258423789 0  0.77 0.003370786516847669 0  0.77 0.005056179775271247 0  0.77 0.006741573033694517 0  0.77 0.008426966292117821 0  0.77 0.01011235955054176 0  0.77 0.01179775280896623 0  0.77 0.0134831460673904 0  0.77 0.01516853932581489 0  0.77 0.01685393258423891 0  0.77 0.01853932584266291 0  0.77 0.02022471910108589 0  0.77 0.02191011235950794 0  0.77 0.02359550561792999 0  0.77 0.02528089887635205 0  0.77 0.02696629213477411 0  0.77 0.02865168539319714 0  0.77 0.03033707865161956 0  0.77 0.03202247191004162 0  0.77 0.03370786516846367 0  0.77 0.03539325842688572 0  0.77 0.03707865168530778 0  0.77 0.03876404494372984 0  0.77 0.0404494382021519 0  0.77 0.04213483146057394 0  0.77 0.04382022471899601 0  0.77 0.04550561797741807 0  0.77 0.04719101123584013 0  0.77 0.04887640449426219 0  0.77 0.05056179775268425 0  0.77 0.0522471910111063 0  0.77 0.05393258426952837 0  0.77 0.05561797752795105 0  0.77 0.05730337078637505 0  0.77 0.05898876404479723 0  0.77 0.0606741573032193 0  0.77 0.06235955056164135 0  0.77 0.06404494382006341 0  0.77 0.06573033707848548 0  0.77 0.06741573033690752 0  0.77 0.06910112359532959 0  0.77 0.07078651685375165 0  0.77 0.0724719101121737 0  0.77 0.07415730337059653 0  0.77 0.07584269662902443 0  0.77 0.07752808988745429 0  0.77 0.07921348314588413 0  0.77 0.08089887640431678 0  0.77 0.08258426966274923 0  0.77 0.08426966292117907 0  0.77 0.08595505617960987 0  0.77 0.08764044943804362 0  0.77 0.08932584269647403 0  0.77 0.09101123595490389 0  0.77 0.09269662921333673 0  0.77 0.09438202247176901 0  0.77 0.09606741573019884 0  0.77 0.09775280898862983 0  0.77 0.09943820224706355 0  0.77 0.1011235955054938 0  0.77 0.1028089887639236 0  0.77 0.1044943820223567 0  0.77 0.1061797752807888 0  0.77 0.1078651685392186 0  0.77 0.1095505617976498 0  0.77 0.1112359550560835 0  0.77 0.1129213483145136 0  0.77 0.1146067415729456 0  0.77 0.1162921348313787 0  0.77 0.1179775280898085 0  0.77 0.1196629213482387 0  0.77 0.1213483146066724 0  0.77 0.1230337078651035 0  0.77 0.1247191011235322 0  0.77 0.1264044943819605 0  0.77 0.1280898876403903 0  0.77 0.1297752808988242 0  0.77 0.1314606741572554 0  0.77 0.1331460674156853 0  0.77 0.1348314606741154 0  0.77 0.1365168539325504 0  0.77 0.1382022471909802 0  0.77 0.13988764044941 0  0.77 0.1415730337078443 0  0.77 0.1432584269662752 0  0.77 0.144943820224705 0  0.77 0.1466292134831355 0  0.77 0.1483146067415701 0  0.7667782426778414 0.15 0  0.7635564853556813 0.15 0  0.7603347280335111 0.15 0  0.757112970711341 0.15 0  0.7538912133891708 0.15 0  0.7506694560670005 0.15 0  0.7474476987448303 0.15 0  0.7442259414226602 0.15 0  0.74100418410049 0.15 0  0.7377824267783197 0.15 0  0.7345606694561496 0.15 0  0.7313389121339794 0.15 0  0.7281171548118092 0.15 0  0.724895397489639 0.15 0  0.7216736401674688 0.15 0  0.7184518828452986 0.15 0  0.7152301255231284 0.15 0  0.7120083682009583 0.15 0  0.708786610878788 0.15 0  0.7055648535566178 0.15 0  0.7023430962344477 0.15 0  0.6991213389122775 0.15 0  0.6958995815901072 0.15 0  0.692677824267937 0.15 0  0.6894560669457669 0.15 0  0.6862343096235967 0.15 0  0.6830125523014264 0.15 0  0.6797907949792563 0.15 0  0.6765690376570861 0.15 0  0.6733472803349159 0.15 0  0.6701255230127456 0.15 0  0.6669037656905755 0.15 0  0.6636820083684053 0.15 0  0.6604602510462351 0.15 0  0.657238493724065 0.15 0  0.6540167364018947 0.15 0  0.6507949790797245 0.15 0  0.6475732217575543 0.15 0  0.644351464435384 0.15 0  0.6411297071132231 0.15 0  0.6379079497910645 0.15 0  0.634686192468906 0.15 0  0.6314644351467468 0.15 0  0.6282426778245765 0.15 0  0.6250209205024085 0.15 0  0.62179916318025 0.15 0  0.6185774058580914 0.15 0  0.6153556485359328 0.15 0  0.6121338912137689 0.15 0  0.6089121338915987 0.15 0  0.6056903765694354 0.15 0  0.6024686192472768 0.15 0  0.5992468619251182 0.15 0  0.5960251046029597 0.15 0  0.5928033472807912 0.15 0  0.589581589958621 0.15 0  0.5863598326364508 0.15 0  0.5831380753142792 0.15 0  0.5799163179920974 0.15 0  0.57669456
[...]
<PointData  Scalars="concentration"> 
<DataArray  type="Float64"  Name="concentration"  format="ascii">0.0000000000000000e+00  1.0000000000479925e+00  4.9029652122721473e-01  0.0000000000000000e+00  7.3974938752225813e-02  -1.0317642127004575e-02  -1.2190343719915472e-01  5.8161239135395548e-01  8.5892893987736552e-01  8.5685554104220440e-01  8.6222536252737092e-01  8.6231069132291682e-01  8.6175530711134574e-01  8.6139092142867535e-01  8.6118403071230021e-01  8.6107535914408984e-01  8.6102780639222110e-01  8.6101707429912355e-01  8.6102683207603214e-01  8.6104522229813074e-01  8.6107160442036645e-01  8.6109602712091260e-01  8.6112131330319619e-01  8.6114833905481847e-01  8.6116852807261612e-01  8.6119387557671201e-01  8.6121737654421737e-01  8.6123520693828448e-01  8.6126625539962076e-01  8.6128517104973557e-01  8.6131177635925626e-01  8.6134938170794262e-01  8.6136544326818798e-01  8.6141680041720969e-01  8.6144670437877768e-01  8.6148166888663913e-01  8.6155484111233605e-01  8.6156488619645755e-01  8.6166555256775013e-01  8.6169703159158229e-01  8.6176291225963197e-01  8.6188379986632802e-01  8.6186485631420851e-01  8.6209829279612782e-01  8.6201137207955825e-01  8.6230933746991612e-01  8.6222790034127395e-01  8.6251611165393560e-01  8.6250412904656737e-01  8.6274836893541929e-01  8.6281583925251137e-01  8.6303113643026463e-01  8.6315945072248890e-01  8.6336561825884894e-01  8.6354932494498982e-01  8.6375043362887072e-01  8.6399030861814996e-01  8.6420253561303984e-01  8.6447349432611476e-01  8.6474319717463821e-01  8.6500433286227141e-01  8.6536892819899003e-01  8.6561767902018749e-01  8.6606426291006977e-01  8.6634024714340152e-01  8.6684399969130832e-01  8.6717555282084224e-01  8.6772755655849299e-01  8.6815053815629195e-01  8.6871987360941272e-01  8.6927691347668490e-01  8.6988150223117366e-01  8.7052820181459156e-01  8.7124751925205834e-01  8.7198109646064870e-01  8.7276637529609957e-01  8.7368259680804305e-01  8.7455809775703419e-01  8.7552159358808190e-01  8.7668544987542874e-01  8.7771067558950233e-01  8.7889065355439033e-01  8.8037022339343807e-01  8.8154130474784775e-01  8.8294280446277329e-01  8.8489276158132546e-01  8.8608710625684017e-01  8.8773976357409756e-01  8.9040481486868717e-01  8.9129837696627445e-01  8.9321951031864533e-01  8.9714152346380471e-01  8.9676267051799952e-01  8.9910018892375088e-01  9.0550700119653549e-01  9.0086772209176702e-01  9.0464775998890745e-01  9.1574941803248777e-01  8.9777296555486952e-01  9.0377652951608356e-01  9.2822629287400182e-01  7.8184375461004707e-01  7.6783304908507855e-01  7.1310319952385759e-01  7.1424485200082355e-01  7.2719792863943478e-01  7.3516289947392111e-01  7.3934061670201423e-01  7.4124950796579081e-01  7.4192979750109245e-01  7.4207641442570271e-01  7.4210082306136349e-01  7.4222419923959015e-01  7.4255105860783965e-01  7.4312188896457021e-01  7.4393890074313707e-01  7.4498101257963034e-01  7.4622839590729684e-01  7.4764079917755633e-01  7.4918338670455631e-01  7.5083334436025095e-01  7.5253979177961217e-01  7.5426458715824773e-01  7.5601411706696398e-01  7.5769237759781405e-01  7.5928467412796385e-01  7.6085190152478055e-01  7.6216761958326995e-01  7.6331678586922658e-01  7.6447675099481593e-01  7.6502074294377298e-01  7.6546781462329072e-01  7.6614110652843881e-01  7.6529206088556967e-01  7.6507009043719432e-01  7.6555876153015145e-01  7.6211662611201980e-01  7.6243942564118883e-01  7.6380126408778526e-01  7.5498619819868085e-01  7.6089730949309919e-01  7.6524875379123225e-01  7.4352640735632547e-01  7.7258273843321257e-01  7.8275614696966211e-01  7.4743119531650415e-01  8.5923785538102260e-01  7.0278123811951287e-01  1.0095823993189430e+00  1.0356547913769929e+00  1.0267664563180567e+00  1.0158175459602694e+00  1.0085383360553868e+00  1.0044331458905247e+00  1.0022617187747747e+00  1.0011449400582055e+00  1.0005777652373726e+00  1.0002912182201318e+00  1.0001467511502400e+00  1.0000739440637272e+00  1.0000372276022969e+00  1.0000187761745760e+00  1.0000093906618828e+00  1.0000047847243501e+00  1.0000023271407519e+00  1.0000012255474220e+00  1.0000005885852288e+00  1.0000002503850758e+00  1.0000002585298249e+00  9.9999989963922187e-01  1.0000002359311304e+00  9.9999986360813720e-01  1.0000000201768633e+00  1.0000002220616477e+00  9.9999952823931881e-01  1.0000006589316073e+00  9.9999932565372951e-01  1.0000004952896626e+00  9.9999979927247773e-01  9.9999997513684080e-01  9.9999998423961423e-01  1.0000004092780379e+00  9.9999896179267100e-01  1.0000015958204618e+00  9.9999829214326641e-01  1.0000010727711262e+00  1.0000004982091486e+00  9.9999684169380298e-01  1.0000070521909963e+00  9.9998797449570043e-01  1.0000169226482121e+00  9.9998117190302993e-01  1.0000130329240049e+00  1.0000055581595113e+00  9.9996033000918316e-01  1.0000868366201932e+00  9.9986151098281073e-01  1.0001822719163789e+00  9.9979300956587436e-01  1.0002076130134789e+00  9.9981267131713714e-01  1.0001553900834432e+00  9.9987776519709848e-01  1.0000950319754707e+00  9.9992395020943148e-01  1.0000638587027588e+00  9.9994447050860658e-01  1.0000481383650965e+00  9.9996040639569472e-01  1.0000304032305862e+00  9.9997192032911530e-01  1.0000531824784125e+00  9.9986048847947562e-01  1.0003145637978035e+00  9.9944454289671358e-01  1.0007547019845211e+00  9.9923343098087669e-01  1.0005456956085210e+00  9.9976707113968488e-01  1.0000299527994763e+00  1.0000130491409940e+00  1.0000013515988153e+00  9.9999876066752502e-01  9.9999889218668936e-01  9.9999942003378772e-01  9.9999974458394336e-01  9.9999990965330532e-01  9.9999998008678781e-01  1.0000000019687314e+00  1.0000000098499238e+00  1.0000000085426100e+00  1.0000000071712996e+00  1.0000000046294002e+00  1.0000000033749226e+00  1.0000000021705473e+00  1.0000000011126280e+00  1.0000000010193919e+00  1.0000000004872260e+00  1.0000000001720830e+00  1.0000000003079998e+00  1.0000000000967348e+00  1.0000000000086209e+00  9.9999999985510302e-01  1.0000000004193077e+00  9.9999999899869563e-01  1.0000000001267213e+00  1.0000000222290466e+00  9.9999983316015706e-01  9.9999964324471402e-01  9.9999948544776174e-01  9.9999801929354071e-01  9.9999624247501107e-01  9.9999598348616436e-01  9.9999592980393170e-01  9.9999519092033129e-01  9.9999552321557528e-01  9.9999627471148267e-01  9.9999556482353902e-01  9.9999634726817654e-01  9.9999690273912178e-01  9.9999611310008585e-01  9.9999689715271645e-01  9.9999694849041476e-01  9.9999468162371608e-01  9.9998750894678456e-01  9.9998830266623151e-01  9.9999804955456129e-01  9.9999800924509819e-01  9.9999620888231766e-01  9.9999767946808993e-01  9.9999740243031521e-01  9.9999761999348080e-01  9.9999282077394869e-01  9.9998800946755217e-01  9.9999375009969182e-01  9.9998774415340175e-01  9.9996838021264944e-01  9.9998482537103661e-01  1.0000020623536550e+00  9.9983752389588154e-01  9.9921008593540772e-01  9.9826709688664517e-01  9.9418721176032376e-01  9.8897515408062664e-01  9.8136468514554631e-01  9.6379239929652660e-01  9.5361304367709265e-01  9.4042828900987052e-01  9.1557109196058761e-01  9.0796255010590210e-01  9.3332409404357475e-01  9.3668243751353009e-01  9.4399975332083508e-01  9.5342778396616412e-01  9.6397709646284391e-01  9.7744020662989284e-01  9.9078137806497357e-01  9.9822422627529983e-01  9.9982319973002276e-01  9.9962381020991120e-01  9.9970041597296599e-01  9.9990656522580446e-01  9.9998468517119887e-01  9.9999313942772028e-01  9.9999523928068934e-01  9.9999831678898510e-01  9.9999903968007642e-01  1.0000009369361382e+00  9.9999820853254173e-01  1.0000033302480766e+00  9.9999354621796332e-01  1.0000125355199276e+00  9.9996945718320018e-01  1.0000627693193727e+00  9.9985186110521385e-01  1.0003389701461307e+00  9.9917488846580971e-01  1.0020760478387583e+00  9.9448815183432038e-01  1.0152612821615752e+00  9.5633957433378103e-01  1.1286215635194503e+00  7.4464341432936876e-01  4.3197299666020894e-01  -1.3773029052830776e-01  4.7003044643192937e-02  -7.1890166837910649e-02  1.7244237119724026e-01  -1.6926744964285745e+00  2.2006665646139556e+00  4.4048557568320962e-01  1.2180690302182773e-01  1.2568995412278863e-01  4.7846888256468087e-02  1.1934619648833275e-01  1.4397277888448970e-01  1.4751332261185396e-01  2.1706871135804365e-01  1.7288787368398265e-01  1.1049305697440064e-01  1.6429661882646929e-01  1.5845862917220724e-01  8.3287668332579390e-02  2.2353123447286907e-01  4.7407794265161701e-02  2.3061638283442493e-01  9.4344483634894033e-02  1.6900349603304760e-01  2.0172170136300402e-01  1.1975013965512937e-01  2.1303246136022486e-01  1.7066603768048530e-01  1.5165313519172144e-01  1.9181838857461969e-01  1.5743974378646183e-01  1.6091552035819992e-01  2.2209786918684496e-01  1.7131820207323736e-01  2.3057218740127411e-01  1.4649929273881354e-01  2.0845496264997687e-01  6.8604168004525651e-02  1.9326539433919707e-01  1.0787438315576441e-01  2.8257871453442951e-01  5.4545077977427880e-01  1.0266621516949455e+00  3.1872160427671747e-01  -2.7517393090800174e-01  2.0358439669241352e-01  6.7120601771464639e-01  9.3033482462039052e-01  3.5438524296781537e-01  -3.1374571322391870e-01  2.3711622394714349e-01  4.5387369959311480e-01  6.6159423195045364e-01  -2.8516779868546743e-01  1.4802737625013657e-02  1.5400533835641902e-01  1.0017771279509184e-01  4.9889352548990469e-02  2.4729514387500579e-01  4.0915804734188371e-01  6.7386406978285185e-01  -2.6310591139129452e-01  -4.9602740468914636e-03  1.1673902944452717e-01  9.6095850645785616e-02  6.1597304279457712e-02  1.9785999758135703e-01  4.5926378778455879e-01  6.4538030360659204e-01  -1.1077469059862907e-01  3.0509714839354252e-01  7.9150040294804436e-01  -1.4859907365611191e-01  2.6551140839476262e-01  8.2913419365016883e-01  -1.9300427445757001e-01  3.1786805728807271e-01  7.5448242446468516e-01  -1.6153717564786116e-01  2.9321789855228869e-01  6.9328890342900629e-01  -1.9944689846177721e-01  3.0241430158552789e-02  7.2207476049443475e-01  9.7348225853491732e-01  -4.6815198804242786e-02  -3.9744191255353328e-01  3.2480028210463485e-01  7.1749507940531176e-01  8.6253510954066259e-01  9.0539362302012316e-02  -2.3616095567417189e-01  5.8847290637374816e-01  1.1304769794512328e+00  -9.4964399519418208e-02  -3.8930441469854310e-01  3.7958081685838613e-01  8.1192267021907638e-01  8.2914847433640992e-01  1.6412078082038375e-01  -2.2807335306990859e-01  3.3194338560874009e-01  7.1169404120416691e-01  9.9036438339335253e-01  2.3799802967748906e-01  -2.3325800747215641e-01  3.0823955173032674e-01  6.3528468344592515e-01  9.6972434078526937e-01  3.0416708252554203e-01  -2.3762600348592561e-01  2.7129433825069377e-01  6.0213006655746815e-01  9.7734211124564618e-01  4.1052868339787224e-01  1.6094436108835587e-02  6.5659228068408815e-01  1.4844522071682518e+00  1.6444537492558655e+00  1.6410863930504642e+00  1.6688935932818034e+00  1.5641805708665495e+00  1.6332440516087123e+00  1.5192311112135626e+00  1.6442187255096132e+00  1.4967737158512466e+00  1.5732923043838425e+00  1.5606804138999437e+00  1.5085278815324299e+00  1.5461839432249840e+00  1.5258524108516713e+00  1.5300585850077071e+00  1.4698117504182664e+00  1.5991444717241143e+00  1.3989946210399962e+00  1.5891821267013619e+00  1.4573141145720856e+00  1.4754805794645376e+00  1.5347007303608835e+00  1.4247231058591132e+00  1.5110490320542123e+00  1.4462283687450392e+00  1.4752849800047290e+00  1.4264489137187579e+00  1.4869052290019302e+00  1.3944129448454801e+00  1.4623094214349774e+00  1.4184307878405764e+00  1.4031164489234773e+00  1.4298905785255447e+00  1.3894990765737452e+00  1.3992375053267154e+00  1.3808854816968197e+00  1.3999375822510980e+00  1.3340233383779876e+00  1.4090867505873519e+00  1.3212329803345841e+00  1.3624061123832807e+00  1.3496839331274664e+00  1.3172625713131165e+00  1.3377422572392643e+00  1.3269718834802620e+00  1.2907663495832671e+00  1.3385550867969578e+00  1.2726054204193404e+00  1.3137537806058797e+00  1.2826632947745618e+00  1.2816642411725585e+00  1.2856946953725379e+00  1.2658599900919372e+00  1.2759971339409384e+00  1.2581545440602884e+00  1.2669247032776401e+00  1.2468717040260804e+00  1.2634737469397510e+00  1.2334211395843582e+00  1.2583587941115291e+00  1.2253823625086617e+00  1.2454597047965517e+00  1.2218060076042552e+00  1.2285651653406939e+00  1.2135002998541240e+00  1.2122781699550305e+00  1.1987237579667824e+00  1.2051577604229391e+00  1.1985306207197974e+00  1.1925461062414466e+00  1.2272483993117904e+00  1.2959182048543425e+00  1.1172701868697679e+00  1.6049103060797734e+00  1.1067806891231851e+00  1.4713696579239164e+00  9.6848103137304298e-01  3.1479864050437656e-01  1.0043245624123025e+00  1.1255286854590463e+00  6.3519142607334281e-03  1.2538049623853640e+00  1.0769510206654387e+00  3.2475033902619577e-02  1.1686422076446883e+00  9.1533255890201171e-01  -2.0785713603147413e-01  3.1816573256860031e-01  8.9655465192560646e-01  8.3425726496041089e-02  2.0642283506976786e-01  1.4642625844002437e+00  9.0128380716041556e-01  1.1649330467184762e+00  3.1272350437942131e-01  1.0410238180926517e+00  1.3623995752271572e+00  9.1282062902697525e-01  1.7944624408568929e-01  1.2956654332296873e+00  9.8257946849894529e-01  1.4017710053134098e+00  1.1007201955007859e+00  1.2134730386544743e+00  1.2929229429960203e+00  1.0722019755875374e+00  1.4539274055160516e+00  1.2602816657731979e+00  1.2520174605670409e+00  1.2629193152668010e+00  1.2265984139239166e+00  1.2747862784138171e+00  1.2618279177859053e+00  1.3415536498446541e+00  1.3057363492321499e+00  1.2546775259319529e+00  1.2226337171042487e+00  1.3234511216335982e+00  1.2535954806009504e+00  1.3197775482085707e+00  1.1846668525608905e+00  1.1989378778601143e+00  1.0334979790600285e+00  8.6409874178586787e-01  -7.3547621837954491e-02  -4.7600881709121114e-02  7.8314519018998205e-02  0.0000000000000000e+00  0.0000000000000000e+00  0.0000000000000000e+00  0.0000000000000000e+00  0.0000000000000000e+00  0.0000000000000000e+00  0.0000000000000000e+00  0.0000000000000000e+00  0.0000000000000000e+00  0.0000000000000000e+00  0.0000000000000000e+00  0.0000000000000000e+00  0.0000000000000000e+00  0.0000000000000000e+00  0.0000000000000000e+00  0.0000000000000000e+00  0.0000000000000000e+00  0.0000000000000000e+00  0.0000000000000000e+00  0.0000000000000000e+00  0.0000000000000000e+00  0.0000000000000000e+00  0.0000000000000000e+00  0.0000000000000000e+00  0.0000000000000000e+00  0.0000000000000000e+00  0.0000000000000000e+00  0.0000000000000000e+00  0.0000000000000000e+00  0.0000000000000000e+00  0.0000000000000000e+00  0.0000000000000000e+00  0.0000000000000000e+00  0.0000000000000000e+00  0.0000000000000000e+00  0.0000000000000000e+00  0.0000000000000000e+00  0.0000000000000000e+00  0.0000000000000000e+00  0.0000000000000000e+00  0.0000000000000000e+00  0.0000000000000000e+00  0.0000000000000000e+00  0.0000000000000000e+00  0.0000000000000000e+00  0.0000000000000000e+00  0.0000000000000000e+00  0.0000000000000000e+00  0.0000000000000000e+00  0.0000000000000000e+00  0.0000000000000000e+00  0.0000000000000000e+00  0.0000000000000000e+00  0.0000000000000000e+00  0.0000000000000000e+00  0.0000000000000000e+00  0.0000000000000000e+00  0.0000000000000000e+00  0.0000000000000000e+00  0.0000000000000000e+00  0.0000000000000000e+00  0.0000000000000000e+00  0.0000000000000000e+00  0.0000000000000000e+00  0.0000000000000000e+00  0.0000000000000000e+00  0.0000000000000000e+00  0.0000000000000000e+00  0.0000000000000000e+00  0.0000000000000000e+00  0.0000000000000000e+00  0.0000000000000000e+00  0.0000000000000000e+00  0.0000000000000000e+00  0.0000000000000000e+00  0.0000000000000000e+00  0.0000000000000000e+00  0.0000000000000000e+00  0.0000000000000000e+00  0.0000000000000000e+00  0.0000000000000000e+00  0.0000000000000000e+00  0.0000000000000000e+00  0.0000000000000000e+00  0.0000000000000000e+00  0.0000000000000000e+00  0.0000000000000000e+00  0.0000000000000000e+00  -2.0916036366001249e-02  -8.3298047292511487e-02  -4.2328726576330508e-02  -7.1087396803435612e-03  1.3022772631248811e-04  3.0961029787158401e-05  -9.5752030020210063e-06  3.3403215469639769e-06  -9.4968266602490783e-08  -5.1265601834143778e-08  -2.7474357136206060e-07  4.8644761076576017e-07  -7.8940045132223067e-07  1.3657361305978527e-06  -2.0419926945304574e-06  2.8207433857068758e-06  -3.8906630810080376e-06  4.9230528693099585e-06  -5.8834307286059284e-06  7.1024876240059616e-06  -8.1903679353585226e-06  9.3205390506371441e-06  -1.0787678533849725e-05  1.1878259491437321e-05  -1.3063620304159939e-05  1.4023881004689687e-05  -1.4435394437193502e-05  1.5077028234396573e-05  -1.5236338103214899e-05  1.5951933745299936e-05  -1.6503039544996636e-05  1.7190474078468031e-05  -1.7191486379119213e-05  1.6227319082982637e-05  -1.3869973993111277e-05  1.0032977091535770e-05  -4.8903438628129793e-06  -1.2258313804698126e-06  7.9161884706867248e-06  -1.4694877161549096e-05  2.0915654144383208e-05  -2.5235847588480177e-05  2.6023804842714100e-05  -2.1780680664200515e-05  1.1996490865087751e-05  2.7440985444021229e-06  -2.0948147206692098e-05  4.1299648154625944e-05  -6.4159366704113791e-05  9.1950893121920399e-05  -1.2756182706658532e-04  1.7239382388348570e-04  -2.2527582924539085e-04  2.8169961698077057e-04  -3.3394834681543611e-04  3.7224025967352956e-04  -3.8453246371437558e-04  3.5737911205613744e-04  -2.8306922011756968e-04  1.6821660225296351e-04  -3.7493593707702855e-05  -6.7904082825272715e-05  1.0427178869799150e-04  -4.3015345440657742e-05  -1.2988759976570376e-04  4.1642699349845138e-04  -8.1648464581514856e-04  1.3437361980731088e-03  -2.0064464734426131e-03  2.8347115128566974e-03  -3.8206304367237325e-03  4.9068410403287537e-03  -5.8618245712864295e-03  6.3046683117444153e-03  -5.7501875591024071e-03  3.8866337598201031e-03  -7.8915093135819311e-04  -2.8189596207107179e-03  5.5781400683068624e-03  -5.6948325172736392e-03  1.6896812640040590e-03  6.6702683926151011e-03  -1.7519040551528742e-02  2.6913103551756669e-02  -2.9555170669634541e-02  1.9874605106083576e-02  7.2040663225808980e-03  -4.9156416123396544e-02  8.9450286100953263e-02  8.2619945706260411e-03  -2.0836160849699983e-02  -7.0668810192830384e-03  -3.6122153717759019e-05  6.8960366489583233e-05  -1.6935898810793503e-05  2.5465041885670666e-06  3.0176096332130429e-07  -9.9907929034227692e-09  -1.7662787350089309e-07  2.0844756094512593e-07  -3.2756223063936407e-07  3.8734832450380418e-07  -3.1431302599283768e-07  2.4839546066223479e-07  7.5062409724780138e-09  -5.0675999364184037e-07  9.4347372075377834e-07  -1.5077974935151482e-06  2.1651282363022647e-06  -2.6552893678032336e-06  3.4329280890345195e-06  -4.2805002136148999e-06  5.1820526642361199e-06  -6.3487639745977199e-06  7.2014253524086212e-06  -8.0357260673059184e-06  8.4390732453227471e-06  -8.7625526292132733e-06  9.1140723362041800e-06  -9.8439447724042229e-06  1.1034215367725437e-05  -1.2513334480545261e-05  1.3933255984422795e-05  -1.4809346129509261e-05  1.4746037133536716e-05  -1.3530067740714973e-05  1.1092468814905850e-05  -7.4252836981038215e-06  2.3012306433139146e-06  4.3976722695818087e-06  -1.2268047984182657e-05  2.0060803479872087e-05  -2.5991977906304564e-05  2.8371439826027700e-05  -2.6457537533506172e-05  2.1128875902635038e-05  -1.4378056060839924e-05  7.5134342892554339e-06  2.3087087056557391e-07  -1.1560995226453277e-05  3.0238887527323083e-05  -5.9775520870107011e-05  1.0190309340783049e-04  -1.5634459133983129e-04  2.2053602244810475e-04  -2.8633573402635503e-04  3.3761091588794184e-04  -3.5347616753060904e-04  3.1557459033203602e-04  -2.1955750213608372e-04  8.3123591829138861e-05  6.2190887072918240e-05  -1.8239179336674557e-04  2.5099772497650486e-04  -2.5680427824433341e-04  1.8932172181592368e-04  -4.6459398479181418e-05  -1.9453102058853488e-04  5.7946095436872084e-04  -1.2099322388784773e-03  2.1893171397040982e-03  -3.5448188033261933e-03  5.0874358625760657e-03  -6.3782235530978910e-03  6.7751782561301759e-03  -5.6514545079091047e-03  2.6840178913612720e-03  1.7469349347776146e-03  -6.3179874