<?xml version="1.0"?>
<VTKFile type="UnstructuredGrid"  version="0.1"  >
<UnstructuredGrid>
<Piece  NumberOfPoints="21600" NumberOfCells="42542">
<Points>
<DataArray  type="Float64"  NumberOfComponents="3"  format="ascii">0 0 0  0.77 0 0  0.77 0.15 0  0 0.15 0  0.003221757322170014 0 0  0.006443514644340046 0 0  0.009665271966510193 0 0  0.01288702928868034 0 0  0.01610878661085048 0 0  0.01933054393302049 0 0  0.02255230125519027 0 0  0.02577405857735967 0 0  0.02899581589952872 0 0  0.03221757322169801 0 0  0.03543933054386744 0 0  0.03866108786603686 0 0  0.04188284518820627 0 0  0.0451046025103757 0 0  0.04832635983254521 0 0  0.05154811715471607 0 0  0.05476987447688695 0 0  0.05799163179905782 0 0  0.06121338912122846 0 0  0.06443514644339859 0 0  0.06765690376556875 0 0  0.0708786610877389 0 0  0.07410041840990904 0 0  0.0773221757320792 0 0  0.08054393305425039 0 0  0.08376569037642198 0 0  0.0869874476985936 0 0  0.09020920502076518 0 0  0.0934309623429339 0 0  0.0966527196651024 0 0  0.09987447698726967 0 0  0.1030962343094369 0 0  0.1063179916316041 0 0  0.1095397489537714 0 0  0.1127615062759386 0 0  0.1159832635981051 0 0  0.1192050209202709 0 0  0.1224267782424358 0 0  0.1256485355646001 0 0  0.1288702928867644 0 0  0.1320920502089288 0 0  0.1353138075310958 0 0  0.1385355648532632 0 0  0.1417573221754333 0 0  0.1449790794976035 0 0  0.1482008368197736 0 0  0.1514225941419428 0 0  0.1546443514641101 0 0  0.157866108786276 0 0  0.1610878661084403 0 0  0.1643096234306047 0 0  0.167531380752769 0 0  0.1707531380749333 0 0  0.1739748953970977 0 0  0.177196652719262 0 0  0.1804184100414264 0 0  0.1836401673635935 0 0  0.1868619246857611 0 0  0.1900836820079313 0 0  0.1933054393301014 0 0  0.1965271966522716 0 0  0.1997489539744406 0 0  0.2029707112966078 0 0  0.2061924686187736 0 0  0.209414225940938 0 0  0.2126359832631022 0 0  0.2158577405852666 0 0  0.219079497907431 0 0  0.2223012552295953 0 0  0.2255230125517597 0 0  0.2287447698739242 0 0  0.2319665271960914 0 0  0.2351882845182592 0 0  0.2384100418404293 0 0  0.2416317991625994 0 0  0.2448535564847696 0 0  0.2480753138069371 0 0  0.2512970711291014 0 0  0.2545188284512658 0 0  0.2577405857734302 0 0  0.2609623430955986 0 0  0.2641841004177688 0 0  0.2674058577399389 0 0  0.270627615062109 0 0  0.2738493723842792 0 0  0.2770711297064487 0 0  0.280292887028613 0 0  0.2835146443507774 0 0  0.2867364016729417 0 0  0.2899581589951061 0 0  0.2931799163172705 0 0  0.2964016736394348 0 0  0.2996234309615992 0 0  0.3028451882837672 0 0  0.3060669456059373 0 0  0.3092887029281075 0 0  0.3125104602502776 0 0  0.3157322175724478 0 0  0.3189539748946177 0 0  0.322175732216782 0 0  0.3253974895389464 0 0  0.3286192468611107 0 0  0.3318410041832751 0 0  0.3350627615054395 0 0  0.3382845188276038 0 0  0.3415062761497681 0 0  0.3447280334719325 0 0  0.3479497907940968 0 0  0.3511715481162612 0 0  0.3543933054384255 0 0  0.3576150627605947 0 0  0.3608368200827649 0 0  0.364058577404935 0 0  0.3672803347271051 0 0  0.3705020920492753 0 0  0.373723849371444 0 0  0.3769456066936084 0 0  0.3801673640157748 0 0  0.383389121337945 0 0  0.3866108786601209 0 0  0.3898326359823028 0 0  0.3930543933044846 0 0  0.3962761506266662 0 0  0.399497907948848 0 0  0.4027196652710298 0 0  0.4059414225932116 0 0  0.4091631799153934 0 0  0.4123849372375751 0 0  0.4156066945597569 0 0  0.4188284518819387 0 0  0.4220502092041222 0 0  0.4252719665263097 0 0  0.4284937238484974 0 0  0.4317154811706849 0 0  0.4349372384928725 0 0  0.4381589958150601 0 0  0.4413807531372476 0 0  0.4446025104594352 0 0  0.4478242677816181 0 0  0.4510460251037998 0 0  0.4542677824259815 0 0  0.4574895397481634 0 0  0.4607112970703451 0 0  0.4639330543925269 0 0  0.4671548117147087 0 0  0.4703765690368904 0 0  0.4735983263590722 0 0  0.4768200836812568 0 0  0.4800418410034444 0 0  0.483263598325632 0 0  0.4864853556478196 0 0  0.4897071129700028 0 0  0.4929288702921845 0 0  0.4961506276143663 0 0  0.4993723849365479 0 0  0.5025941422587239 0 0  0.5058158995809008 0 0  0.5090376569030826 0 0  0.5122594142252677 0 0  0.515481171547461 0 0  0.5187029288696494 0 0  0.5219246861918312 0 0  0.525146443514013 0 0  0.5283682008361947 0 0  0.5315899581583845 0 0  0.5348117154805778 0 0  0.5380334728027617 0 0  0.5412552301249435 0 0  0.5444769874471141 0 0  0.5476987447692853 0 0  0.550920502091467 0 0  0.5541422594136513 0 0  0.5573640167358447 0 0  0.560585774058034 0 0  0.5638075313802158 0 0  0.5670292887023975 0 0  0.5702510460245793 0 0  0.5734728033467682 0 0  0.5766945606689615 0 0  0.579916317991155 0 0  0.5831380753133483 0 0  0.5863598326355314 0 0  0.5895815899577131 0 0  0.5928033472798949 0 0  0.5960251046020785 0 0  0.5992468619242718 0 0  0.6024686192464619 0 0  0.6056903765686437 0 0  0.6089121338908206 0 0  0.6121338912129908 0 0  0.6153556485351673 0 0  0.618577405857349 0 0  0.6217991631795386 0 0  0.625020920501732 0 0  0.6282426778239159 0 0  0.6314644351460976 0 0  0.6346861924682795 0 0  0.6379079497904622 0 0  0.6411297071126555 0 0  0.6443514644348465 0 0  0.6475732217570283 0 0  0.650794979079206 0 0  0.6540167364013761 0 0  0.6572384937235518 0 0  0.6604602510457335 0 0  0.6636820083679225 0 0  0.6669037656901158 0 0  0.6701255230123004 0 0  0.6733472803344823 0 0  0.6765690376566641 0 0  0.6797907949788459 0 0  0.6830125523010393 0 0  0.686234309623231 0 0  0.6894560669454127 0 0  0.6926778242675914 0 0  0.6958995815897615 0 0  0.6991213389119363 0 0  0.7023430962341181 0 0  0.7055648535563062 0 0  0.7087866108784994 0 0  0.712008368200685 0 0  0.7152301255228668 0 0  0.7184518828450486 0 0  0.7216736401672305 0 0  0.724895397489423 0 0  0.7281171548116155 0 0  0.7313389121337973 0 0  0.7345606694559768 0 0  0.7377824267781468 0 0  0.7410041841003209 0 0  0.7442259414225026 0 0  0.7474476987446899 0 0  0.7506694560668832 0 0  0.7538912133890696 0 0  0.7571129707112513 0 0  0.760334728033433 0 0  0.7635564853556149 0 0  0.7667782426778067 0 0  0.77 0.001685393258423789 0  0.77 0.003370786516847669 0  0.77 0.005056179775271247 0  0.77 0.006741573033694517 0  0.77 0.008426966292117821 0  0.77 0.01011235955054176 0  0.77 0.01179775280896623 0  0.77 0.0134831460673904 0  0.77 0.01516853932581489 0  0.77 0.01685393258423891 0  0.77 0.01853932584266291 0  0.77 0.02022471910108589 0  0.77 0.02191011235950794 0  0.77 0.02359550561792999 0  0.77 0.02528089887635205 0  0.77 0.02696629213477411 0  0.77 0.02865168539319714 0  0.77 0.03033707865161956 0  0.77 0.03202247191004162 0  0.77 0.03370786516846367 0  0.77 0.03539325842688572 0  0.77 0.03707865168530778 0  0.77 0.03876404494372984 0  0.77 0.0404494382021519 0  0.77 0.04213483146057394 0  0.77 0.04382022471899601 0  0.77 0.04550561797741807 0  0.77 0.04719101123584013 0  0.77 0.04887640449426219 0  0.77 0.05056179775268425 0  0.77 0.0522471910111063 0  0.77 0.05393258426952837 0  0.77 0.05561797752795105 0  0.77 0.05730337078637505 0  0.77 0.05898876404479723 0  0.77 0.0606741573032193 0  0.77 0.06235955056164135 0  0.77 0.06404494382006341 0  0.77 0.06573033707848548 0  0.77 0.06741573033690752 0  0.77 0.06910112359532959 0  0.77 0.07078651685375165 0  0.77 0.0724719101121737 0  0.77 0.07415730337059653 0  0.77 0.07584269662902443 0  0.77 0.07752808988745429 0  0.77 0.07921348314588413 0  0.77 0.08089887640431678 0  0.77 0.08258426966274923 0  0.77 0.08426966292117907 0  0.77 0.08595505617960987 0  0.77 0.08764044943804362 0  0.77 0.08932584269647403 0  0.77 0.09101123595490389 0  0.77 0.09269662921333673 0  0.77 0.09438202247176901 0  0.77 0.09606741573019884 0  0.77 0.09775280898862983 0  0.77 0.09943820224706355 0  0.77 0.1011235955054938 0  0.77 0.1028089887639236 0  0.77 0.1044943820223567 0  0.77 0.1061797752807888 0  0.77 0.1078651685392186 0  0.77 0.1095505617976498 0  0.77 0.1112359550560835 0  0.77 0.1129213483145136 0  0.77 0.1146067415729456 0  0.77 0.1162921348313787 0  0.77 0.1179775280898085 0  0.77 0.1196629213482387 0  0.77 0.1213483146066724 0  0.77 0.1230337078651035 0  0.77 0.1247191011235322 0  0.77 0.1264044943819605 0  0.77 0.1280898876403903 0  0.77 0.1297752808988242 0  0.77 0.1314606741572554 0  0.77 0.1331460674156853 0  0.77 0.1348314606741154 0  0.77 0.1365168539325504 0  0.77 0.1382022471909802 0  0.77 0.13988764044941 0  0.77 0.1415730337078443 0  0.77 0.1432584269662752 0  0.77 0.144943820224705 0  0.77 0.1466292134831355 0  0.77 0.1483146067415701 0  0.7667782426778414 0.15 0  0.7635564853556813 0.15 0  0.7603347280335111 0.15 0  0.757112970711341 0.15 0  0.7538912133891708 0.15 0  0.7506694560670005 0.15 0  0.7474476987448303 0.15 0  0.7442259414226602 0.15 0  0.74100418410049 0.15 0  0.7377824267783197 0.15 0  0.7345606694561496 0.15 0  0.7313389121339794 0.15 0  0.7281171548118092 0.15 0  0.724895397489639 0.15 0  0.7216736401674688 0.15 0  0.7184518828452986 0.15 0  0.7152301255231284 0.15 0  0.7120083682009583 0.15 0  0.708786610878788 0.15 0  0.7055648535566178 0.15 0  0.7023430962344477 0.15 0  0.6991213389122775 0.15 0  0.6958995815901072 0.15 0  0.692677824267937 0.15 0  0.6894560669457669 0.15 0  0.6862343096235967 0.15 0  0.6830125523014264 0.15 0  0.6797907949792563 0.15 0  0.6765690376570861 0.15 0  0.6733472803349159 0.15 0  0.6701255230127456 0.15 0  0.6669037656905755 0.15 0  0.6636820083684053 0.15 0  0.6604602510462351 0.15 0  0.657238493724065 0.15 0  0.6540167364018947 0.15 0  0.6507949790797245 0.15 0  0.6475732217575543 0.15 0  0.644351464435384 0.15 0  0.6411297071132231 0.15 0  0.6379079497910645 0.15 0  0.634686192468906 0.15 0  0.6314644351467468 0.15 0  0.6282426778245765 0.15 0  0.6250209205024085 0.15 0  0.62179916318025 0.15 0  0.6185774058580914 0.15 0  0.6153556485359328 0.15 0  0.6121338912137689 0.15 0  0.6089121338915987 0.15 0  0.6056903765694354 0.15 0  0.6024686192472768 0.15 0  0.5992468619251182 0.15 0  0.5960251046029597 0.15 0  0.5928033472807912 0.15 0  0.589581589958621 0.15 0  0.5863598326364508 0.15 0  0.5831380753142792 0.15 0  0.5799163179920974 0.15 0  0.57669456
[...]
<PointData  Scalars="concentration"> 
<DataArray  type="Float64"  Name="concentration"  format="ascii">0.0000000000000000e+00  9.9999999999999134e-01  3.9498547748573765e-01  0.0000000000000000e+00  7.3970269710315215e-02  -1.0320754489594476e-02  -1.2190478063154504e-01  5.8164690213886516e-01  8.5895526581359460e-01  8.5687571798354745e-01  8.6224815907447661e-01  8.6233657908289452e-01  8.6178526735449201e-01  8.6142529062311968e-01  8.6122268462772034e-01  8.6111914189520944e-01  8.6107661490280840e-01  8.6107082268894264e-01  8.6108684776792843e-01  8.6111056670100594e-01  8.6114307749954944e-01  8.6117495213138417e-01  8.6120575261529808e-01  8.6124116026265296e-01  8.6126936690497591e-01  8.6130105481846453e-01  8.6133629863517747e-01  8.6136108039775527e-01  8.6140205886140686e-01  8.6143509806977203e-01  8.6146676565519886e-01  8.6152284900105347e-01  8.6154909939393298e-01  8.6161013964272615e-01  8.6166656236772987e-01  8.6170069643492286e-01  8.6180606298459150e-01  8.6182782912317568e-01  8.6193871541827138e-01  8.6201791047495946e-01  8.6206370386339604e-01  8.6225828656637860e-01  8.6221639504592829e-01  8.6251505966832154e-01  8.6243449487790380e-01  8.6276974795122052e-01  8.6272997854615174e-01  8.6303457394653160e-01  8.6308685046837408e-01  8.6334326497642067e-01  8.6348157623401323e-01  8.6372222604727034e-01  8.6391329674856676e-01  8.6417128581586355e-01  8.6440307429921115e-01  8.6468450220501403e-01  8.6496605883489719e-01  8.6526998774875430e-01  8.6560775249104993e-01  8.6594445229927508e-01  8.6632932906845272e-01  8.6673035728861070e-01  8.6713989946750458e-01  8.6762866051094456e-01  8.6808429193813930e-01  8.6862694600252321e-01  8.6918136247725164e-01  8.6978156893991387e-01  8.7040214128606141e-01  8.7112664263576134e-01  8.7182354623102709e-01  8.7260724795032796e-01  8.7349087396455027e-01  8.7434930163352309e-01  8.7528313296730442e-01  8.7642177252157272e-01  8.7741640145603017e-01  8.7855829614276382e-01  8.8001670205102822e-01  8.8113835287639353e-01  8.8250745728896973e-01  8.8442948936462096e-01  8.8557010513131551e-01  8.8718424836293097e-01  8.8983646016223528e-01  8.9065335922819056e-01  8.9254623015373202e-01  8.9647602081894995e-01  8.9598126128057920e-01  8.9831672266444396e-01  9.0476514554031495e-01  8.9991769008060940e-01  9.0378587298914748e-01  9.1491598996254087e-01  8.9656837150909274e-01  9.0290526757107037e-01  9.2695238029364602e-01  7.8011045692064029e-01  7.6525425572099370e-01  7.0991743155806808e-01  7.1078039419998540e-01  7.2384332851605515e-01  7.3198559617017156e-01  7.3626255772725613e-01  7.3815863835957174e-01  7.3873453824775503e-01  7.3870205229542518e-01  7.3849808531718275e-01  7.3835117500376579e-01  7.3839097665602893e-01  7.3865149861430102e-01  7.3914192348979280e-01  7.3986460894363992e-01  7.4076829112940168e-01  7.4182604046540379e-01  7.4304809841627739e-01  7.4431877618933273e-01  7.4564032007506220e-01  7.4707655973725962e-01  7.4835772556081803e-01  7.4962207918374379e-01  7.5103459153556140e-01  7.5189516201039219e-01  7.5284961392768346e-01  7.5415535176397619e-01  7.5396232598094703e-01  7.5466240712736277e-01  7.5614217287778485e-01  7.5366935632696119e-01  7.5527575829401894e-01  7.5786662189625187e-01  7.5018036714993497e-01  7.5744102333164298e-01  7.6304294750124357e-01  7.4215620447559183e-01  7.7225558079066414e-01  7.8388141329400662e-01  7.4791437228027891e-01  8.6246670274578574e-01  6.9996981217800780e-01  1.0113557721726529e+00  1.0368853848288733e+00  1.0270462535811646e+00  1.0156496294000226e+00  1.0082734239734350e+00  1.0042072571566141e+00  1.0021027255379371e+00  1.0010430934226380e+00  1.0005159923594831e+00  1.0002550695091534e+00  1.0001260982081548e+00  1.0000623510557780e+00  1.0000308351551856e+00  1.0000152368599027e+00  1.0000075326879065e+00  1.0000037112929432e+00  1.0000018306605687e+00  1.0000009020980825e+00  1.0000004371852256e+00  1.0000002196766897e+00  1.0000001074441820e+00  1.0000000377759044e+00  1.0000000565022884e+00  9.9999995721297630e-01  1.0000000860859877e+00  9.9999990045462350e-01  1.0000001136105208e+00  9.9999990218999368e-01  1.0000000492221319e+00  1.0000000425535569e+00  9.9999983290533556e-01  1.0000002954535565e+00  9.9999962298778111e-01  1.0000003568606164e+00  9.9999979671521355e-01  9.9999993863412429e-01  1.0000003482497679e+00  9.9999947471080808e-01  1.0000004789264927e+00  9.9999980920077403e-01  9.9999978511805865e-01  1.0000004960725239e+00  9.9999959963855656e-01  9.9999981484424905e-01  1.0000011217497693e+00  9.9999797778501398e-01  1.0000023926384090e+00  9.9999814401256903e-01  1.0000003440614280e+00  1.0000018479367847e+00  9.9999582318163049e-01  1.0000060749643986e+00  9.9999283523454641e-01  1.0000073636236697e+00  9.9999314924074856e-01  1.0000059401867434e+00  9.9999506690851436e-01  1.0000040033862745e+00  9.9999686043741243e-01  1.0000021688611975e+00  9.9999906516811043e-01  9.9999972492364242e-01  1.0000000817198693e+00  1.0000044333255336e+00  9.9998294345188521e-01  1.0000398153031720e+00  9.9993087956943072e-01  1.0000940931809956e+00  9.9989878893239792e-01  1.0000844749011448e+00  9.9994774460445812e-01  1.0000216966702040e+00  9.9999545795789946e-01  9.9999974965253646e-01  1.0000001798720073e+00  1.0000000731389735e+00  9.9999999354704283e-01  9.9999999401200190e-01  9.9999999577212895e-01  9.9999999935905992e-01  1.0000000002265079e+00  1.0000000004360623e+00  1.0000000003202729e+00  1.0000000001942271e+00  1.0000000000991862e+00  1.0000000000450373e+00  1.0000000000181506e+00  1.0000000000047518e+00  9.9999999999918998e-01  9.9999999999929345e-01  9.9999999999752576e-01  9.9999999999823297e-01  1.0000000000000193e+00  9.9999999999824851e-01  9.9999999999988809e-01  1.0000000000001921e+00  9.9999999999916755e-01  1.0000000000002489e+00  1.0000000000000391e+00  9.9999999999978750e-01  1.0000000000000504e+00  1.0000000000000335e+00  1.0000000000000169e+00  9.9999999999994604e-01  1.0000000000001172e+00  1.0000000000001015e+00  9.9999999999663991e-01  1.0000000000279980e+00  9.9999999983097798e-01  1.0000000007142285e+00  9.9999999938015538e-01  9.9999998282214486e-01  9.9999996166855520e-01  9.9999994011404958e-01  9.9999989744797491e-01  9.9999987534321000e-01  9.9999987673184287e-01  9.9999985921743306e-01  9.9999985484346388e-01  9.9999985313244377e-01  9.9999984631219607e-01  9.9999987233057797e-01  9.9999988523136440e-01  9.9999983393498182e-01  9.9999975583800760e-01  9.9999977615818214e-01  9.9999991188012149e-01  9.9999991477202010e-01  9.9999986207283298e-01  9.9999991205232197e-01  9.9999989006220646e-01  9.9999991873970795e-01  9.9999987773395926e-01  9.9999965500039789e-01  9.9999959388625703e-01  9.9999976401338797e-01  9.9999960539000954e-01  9.9999891332173385e-01  9.9999885268177291e-01  9.9999982125189801e-01  9.9999958162938840e-01  9.9999704205995965e-01  9.9999586611132651e-01  9.9999236633377830e-01  9.9998717366373069e-01  9.9996793941580453e-01  9.9992931434160204e-01  9.9987555062237898e-01  9.9989127094312524e-01  9.9970442296374407e-01  9.9975593722515765e-01  9.9982068932625201e-01  9.9993132052264944e-01  9.9997679044747123e-01  9.9998501084823266e-01  1.0000031626621033e+00  1.0000089970159738e+00  9.9999405523176543e-01  9.9998193132307178e-01  9.9998423799534475e-01  9.9999247647327694e-01  9.9999756367218429e-01  9.9999921389879320e-01  9.9999931291736277e-01  9.9999977611995128e-01  9.9999985827176352e-01  9.9999821352426610e-01  1.0000080196714198e+00  9.9996996047256081e-01  1.0000969725026221e+00  9.9971442133014410e-01  1.0007756175085238e+00  9.9805249243527616e-01  1.0044779072022150e+00  9.9075248392806736e-01  1.0165628839107945e+00  9.7882544492643286e-01  9.9354555152841972e-01  6.9834763418633772e-01  5.4322460806533668e-01  3.0549988783467819e-01  4.7856530900982928e-02  -7.8055867329106549e-02  -5.8699385318306697e-03  -1.9511952549265885e-02  6.2372297498000148e-02  -5.2217611079733446e-02  -1.5689255978432670e-01  -1.9044919755989191e+00  2.2761805967754927e+00  3.5719040200789698e-01  4.6024671200920074e-03  -4.1559342249402317e-02  -1.1552559660505042e-01  -5.2500621168913054e-02  -8.9128113487386224e-02  -1.4120085052322601e-01  -7.5117780099459644e-02  -1.5925226554258091e-02  3.7934375447098566e-02  1.3121361359820993e-01  1.5892323783395870e-01  1.3807740870222382e-01  1.6268950182989714e-01  1.7163633912761325e-01  1.4961372002825721e-01  1.7830641380259624e-01  1.7536244975975296e-01  1.8010056982603556e-01  1.8316117543795973e-01  1.7818383314127770e-01  2.0229249264459204e-01  2.0759766238026831e-01  1.9994452037669749e-01  1.7072156509861788e-01  1.4247908681626359e-01  1.4977444383305122e-01  1.3226243790288356e-01  1.5674574586080142e-01  1.2388580041822214e-01  1.8917282035476621e-01  1.5647631672286857e-01  2.0253107405171566e-01  2.3355586569677161e-01  1.9143104972808703e-01  2.5900461544016912e-01  2.0146590472233827e-01  2.5011832363864239e-01  3.4667811350466388e-01  5.8506264693448151e-01  1.0470285998152427e+00  2.6125187900023222e-01  -2.7265566695510290e-01  2.3627632417199157e-01  7.0543047643373247e-01  9.2632060038775887e-01  3.7333298716944746e-01  -1.6791830102941402e-01  5.9409066134146582e-01  1.0356439537191198e+00  3.6881085844349570e-01  -3.4313812172751001e-01  2.5489039565049826e-01  4.8667858061624697e-01  6.5486317655112425e-01  -2.7800630139102939e-01  5.0718895784661953e-02  1.1725466441317282e-01  1.0529643119591993e-01  4.1503019710257404e-02  2.4876472617688156e-01  3.6587669502517622e-01  7.7259814909117830e-01  -1.7734069688847395e-01  4.2644560543203697e-01  6.9138757072279733e-01  -6.0083365671812779e-02  2.4157830441781764e-01  8.0667647166886547e-01  -1.9333118472314098e-01  6.5740990386766521e-02  6.4291309646106165e-01  9.7864503883747889e-01  2.6721121556266747e-01  -3.4550035923116368e-01  2.5529852860059121e-01  5.9824535627381237e-01  9.7268664295169405e-01  1.9671252322733498e-01  -3.1111259442401445e-01  1.8277120279694456e-01  6.9664849321644362e-01  9.1439812759418981e-01  1.1084048590303097e-01  -3.2913410761218331e-01  2.1359182588155257e-01  7.2200088677277352e-01  8.9423076669791235e-01  1.0551731394397305e-01  -2.2801498818233035e-01  5.6956481730245145e-01  1.1040651631218572e+00  -9.7541275007873615e-02  -3.9844502168804041e-01  3.0475936325636993e-01  8.1482825259839153e-01  8.1507566836294165e-01  5.3914870818309417e-02  -2.6635133215783763e-01  3.3645091405549515e-01  7.4756917463395101e-01  9.4505560387866194e-01  1.2834806437237492e-01  -2.4942613242561598e-01  3.0780109818721391e-01  7.1636715657006822e-01  8.9827520726725230e-01  2.1411492550737740e-01  -2.2799448112827633e-01  2.9140042585151227e-01  6.4674753922511030e-01  9.2672366147838914e-01  4.0755220042563617e-01  5.1171436285450574e-02  7.8529313595546046e-01  1.4495632991631873e+00  1.8333282860177751e+00  1.6829184290207322e+00  1.6615354931342217e+00  1.7437108284595011e+00  1.4605975800514426e+00  1.7274297773705869e+00  1.5398369150113709e+00  1.5097314579205945e+00  1.6720156194825542e+00  1.4403742144119507e+00  1.6027689226879656e+00  1.5388671626007437e+00  1.4704902607457697e+00  1.6028835090213769e+00  1.4231194570575152e+00  1.5809366386492467e+00  1.4466968312222268e+00  1.5168559592883648e+00  1.4938312542979806e+00  1.4556471820223695e+00  1.5040062067927007e+00  1.4671199925232850e+00  1.4333956140752973e+00  1.5186833472381265e+00  1.4015639164265519e+00  1.4538064962533295e+00  1.5062703296801281e+00  1.3046609388390946e+00  1.5891923358658471e+00  1.2696133077824092e+00  1.5219400104457728e+00  1.3434731742660717e+00  1.4250582050978662e+00  1.3713964270117940e+00  1.4042929053312354e+00  1.3380440260498394e+00  1.4036170463633033e+00  1.3214052950142918e+00  1.3730923314254815e+00  1.3243348837013453e+00  1.3471975022285323e+00  1.3055423015831662e+00  1.3470980273579789e+00  1.2761661880844313e+00  1.3397688713017564e+00  1.2693081525288801e+00  1.3127586912897808e+00  1.2719221673737136e+00  1.2931826101577093e+00  1.2616841988411529e+00  1.2857276276432870e+00  1.2498982265373730e+00  1.2737758823043275e+00  1.2457255686984328e+00  1.2577664531176318e+00  1.2422602620356342e+00  1.2412886972517823e+00  1.2391146861993123e+00  1.2205637016422728e+00  1.2333456452412281e+00  1.2012234558867403e+00  1.2157008238544993e+00  1.2001967425548259e+00  1.2057394629281364e+00  1.1964078950848032e+00  1.2292812745270461e+00  1.3035783072412490e+00  1.1202386960380208e+00  1.6113746026738824e+00  1.1100303059817145e+00  1.4749106920859463e+00  9.6944845657088707e-01  3.1613502195448828e-01  1.0040086762997664e+00  1.1264869007747089e+00  6.8624318751565371e-03  1.2545920206294492e+00  1.0773404460798057e+00  3.1938030933570401e-02  1.1693194077374436e+00  9.1451524110085125e-01  -2.0871127906633463e-01  3.1892592170124756e-01  8.9671934871986225e-01  8.2748440809690307e-02  2.0800956167459456e-01  1.4651727943413666e+00  9.0059514841108101e-01  1.1659161306247696e+00  3.1383308330699289e-01  1.0403662257152801e+00  1.3634746729155769e+00  9.1287516662168744e-01  1.7980864377274153e-01  1.2959801112115619e+00  9.8280550137503353e-01  1.4024275149211844e+00  1.1009064488396005e+00  1.2137629707109832e+00  1.2932964615666227e+00  1.0723666279472690e+00  1.4544920454019019e+00  1.2605166529703979e+00  1.2521997677392334e+00  1.2632157065940617e+00  1.2267386849802238e+00  1.2750187421017936e+00  1.2620136582704562e+00  1.3417365278165039e+00  1.3058983237984585e+00  1.2547874752062591e+00  1.2227253808732967e+00  1.3235916266956216e+00  1.2536941452506614e+00  1.3198525443229430e+00  1.1847444478118778e+00  1.1989386194930152e+00  1.0335083513495253e+00  8.6407463289476305e-01  -7.3554695688995350e-02  -4.7595339338577847e-02  7.8316984667056902e-02  0.0000000000000000e+00  0.0000000000000000e+00  0.0000000000000000e+00  0.0000000000000000e+00  0.0000000000000000e+00  0.0000000000000000e+00  0.0000000000000000e+00  0.0000000000000000e+00  0.0000000000000000e+00  0.0000000000000000e+00  0.0000000000000000e+00  0.0000000000000000e+00  0.0000000000000000e+00  0.0000000000000000e+00  0.0000000000000000e+00  0.0000000000000000e+00  0.0000000000000000e+00  0.0000000000000000e+00  0.0000000000000000e+00  0.0000000000000000e+00  0.0000000000000000e+00  0.0000000000000000e+00  0.0000000000000000e+00  0.0000000000000000e+00  0.0000000000000000e+00  0.0000000000000000e+00  0.0000000000000000e+00  0.0000000000000000e+00  0.0000000000000000e+00  0.0000000000000000e+00  0.0000000000000000e+00  0.0000000000000000e+00  0.0000000000000000e+00  0.0000000000000000e+00  0.0000000000000000e+00  0.0000000000000000e+00  0.0000000000000000e+00  0.0000000000000000e+00  0.0000000000000000e+00  0.0000000000000000e+00  0.0000000000000000e+00  0.0000000000000000e+00  0.0000000000000000e+00  0.0000000000000000e+00  0.0000000000000000e+00  0.0000000000000000e+00  0.0000000000000000e+00  0.0000000000000000e+00  0.0000000000000000e+00  0.0000000000000000e+00  0.0000000000000000e+00  0.0000000000000000e+00  0.0000000000000000e+00  0.0000000000000000e+00  0.0000000000000000e+00  0.0000000000000000e+00  0.0000000000000000e+00  0.0000000000000000e+00  0.0000000000000000e+00  0.0000000000000000e+00  0.0000000000000000e+00  0.0000000000000000e+00  0.0000000000000000e+00  0.0000000000000000e+00  0.0000000000000000e+00  0.0000000000000000e+00  0.0000000000000000e+00  0.0000000000000000e+00  0.0000000000000000e+00  0.0000000000000000e+00  0.0000000000000000e+00  0.0000000000000000e+00  0.0000000000000000e+00  0.0000000000000000e+00  0.0000000000000000e+00  0.0000000000000000e+00  0.0000000000000000e+00  0.0000000000000000e+00  0.0000000000000000e+00  0.0000000000000000e+00  0.0000000000000000e+00  0.0000000000000000e+00  0.0000000000000000e+00  0.0000000000000000e+00  0.0000000000000000e+00  0.0000000000000000e+00  0.0000000000000000e+00  0.0000000000000000e+00  -2.0912986011430646e-02  -8.3294571190933295e-02  -4.2333387852955623e-02  -7.1128377062775845e-03  1.2983266850093213e-04  3.1076486171852171e-05  -9.5404760771591811e-06  3.3115223684159514e-06  -9.6736875234440017e-08  -5.4814360654849860e-08  -2.8694392903149953e-07  5.0809690052945291e-07  -7.4017531395177349e-07  1.2761897563109825e-06  -1.9896194841512961e-06  2.7503944696847195e-06  -3.8468910654221549e-06  5.0105545039194489e-06  -5.9828572619654225e-06  7.2270290178127875e-06  -8.4027134999820297e-06  9.4351824173990643e-06  -1.0929343939600287e-05  1.2097499148970347e-05  -1.3296974720389203e-05  1.4446274161980626e-05  -1.4824994445806864e-05  1.5480916885177575e-05  -1.5559796234815845e-05  1.6172650262259807e-05  -1.6683908166247539e-05  1.7381397047291843e-05  -1.7554815093505838e-05  1.6806101440488968e-05  -1.4533240940204482e-05  1.0634096847396121e-05  -5.3773956692784077e-06  -8.1419497246247633e-07  7.6008498109109486e-06  -1.4559852708097334e-05  2.0927032920336577e-05  -2.5500258292043363e-05  2.6720733919271197e-05  -2.2849714289509465e-05  1.2945323206549034e-05  2.1927382940020117e-06  -2.0629633391865519e-05  4.1147767562670342e-05  -6.4157373432389140e-05  9.1695888324774737e-05  -1.2700226744864393e-04  1.7214461285730028e-04  -2.2528941006199444e-04  2.8166742247278206e-04  -3.3481420629251476e-04  3.7453293593829151e-04  -3.8778869960013181e-04  3.6205582188104566e-04  -2.8790434040206636e-04  1.7073993404418642e-04  -3.8887792729503889e-05  -6.8368215788159985e-05  1.0692557455734185e-04  -4.4753802717802639e-05  -1.2455420191254536e-04  4.1452193307567163e-04  -8.1329004680117875e-04  1.3447332343661808e-03  -2.0045572527540873e-03  2.8336984223781532e-03  -3.8191191538599692e-03  4.9134611731304059e-03  -5.8740428992593834e-03  6.3232828532877464e-03  -5.7675227621538355e-03  3.9051121903805335e-03  -8.0082809805384451e-04  -2.8165554066673787e-03  5.5915736754413858e-03  -5.7104235202976080e-03  1.7018435151402269e-03  6.6681959946799808e-03  -1.7520444124164015e-02  2.6925454474516455e-02  -2.9566971827628939e-02  1.9879320507970918e-02  7.2098804319172009e-03  -4.9154080721637836e-02  8.9451207061764570e-02  8.2694583850590891e-03  -2.0836905856563281e-02  -7.0714210366320859e-03  -3.7137561457836570e-05  6.9204973614389438e-05  -1.6985589453911989e-05  2.5951821150759892e-06  2.6920598534240736e-07  1.3930434829479945e-08  -1.9730528609704884e-07  1.7624997267119040e-07  -2.7309786389206726e-07  3.9052763124927997e-07  -3.3744651176985384e-07  2.8920623138964375e-07  -1.1158631381522252e-07  -4.0931152308231156e-07  9.0197351415191373e-07  -1.4624549995191121e-06  2.2200966874141751e-06  -2.7394809224913785e-06  3.4625416758884278e-06  -4.3186623560532209e-06  5.1589559561864692e-06  -6.4005635777564086e-06  7.3448496456976061e-06  -8.2645004978022611e-06  8.7379251209431486e-06  -9.0427834614798900e-06  9.3213520118622854e-06  -9.9097004052932909e-06  1.0991255154291837e-05  -1.2530429708052287e-05  1.4137208941795340e-05  -1.5181140198563622e-05  1.5176719682094050e-05  -1.3969215245740886e-05  1.1561382013770392e-05  -7.8722719971655458e-06  2.7362096161852422e-06  3.9142653585611939e-06  -1.1856416387895830e-05  2.0079953982730650e-05  -2.6539568338078190e-05  2.9115403963760593e-05  -2.7154162948560808e-05  2.1723781322216732e-05  -1.4673555093910941e-05  7.5666670108572408e-06  -8.7893369890682812e-08  -1.0972313553123991e-05  2.9722363054969383e-05  -5.8909588749495453e-05  1.0052097350225999e-04  -1.5514951501509748e-04  2.1969548770898765e-04  -2.8662746089781939e-04  3.4024990684059523e-04  -3.5705050903095062e-04  3.1932055978835120e-04  -2.2319606883317231e-04  8.4629287388593262e-05  6.0609705961113842e-05  -1.8379691971263609e-04  2.5321721053982150e-04  -2.6110509964925790e-04  1.9218007496126559e-04  -4.9132510393476618e-05  -1.9151695063270279e-04  5.7241881202850433e-04  -1.2014451893784296e-03  2.1821056268289669e-03  -3.5438227233751309e-03  5.0915017257815711e-03  -6.3891066457599484e-03  6.7917817370311212e-03  -5.6722176210321782e-03  2.6979183110313922e-03  1.7448950107002820e-03  -