<?xml version="1.0"?>
<VTKFile type="UnstructuredGrid"  version="0.1"  >
<UnstructuredGrid>
<Piece  NumberOfPoints="21600" NumberOfCells="42542">
<Points>
<DataArray  type="Float64"  NumberOfComponents="3"  format="ascii">0 0 0  0.77 0 0  0.77 0.15 0  0 0.15 0  0.003221757322170014 0 0  0.006443514644340046 0 0  0.009665271966510193 0 0  0.01288702928868034 0 0  0.01610878661085048 0 0  0.01933054393302049 0 0  0.02255230125519027 0 0  0.02577405857735967 0 0  0.02899581589952872 0 0  0.03221757322169801 0 0  0.03543933054386744 0 0  0.03866108786603686 0 0  0.04188284518820627 0 0  0.0451046025103757 0 0  0.04832635983254521 0 0  0.05154811715471607 0 0  0.05476987447688695 0 0  0.05799163179905782 0 0  0.06121338912122846 0 0  0.06443514644339859 0 0  0.06765690376556875 0 0  0.0708786610877389 0 0  0.07410041840990904 0 0  0.0773221757320792 0 0  0.08054393305425039 0 0  0.08376569037642198 0 0  0.0869874476985936 0 0  0.09020920502076518 0 0  0.0934309623429339 0 0  0.0966527196651024 0 0  0.09987447698726967 0 0  0.1030962343094369 0 0  0.1063179916316041 0 0  0.1095397489537714 0 0  0.1127615062759386 0 0  0.1159832635981051 0 0  0.1192050209202709 0 0  0.1224267782424358 0 0  0.1256485355646001 0 0  0.1288702928867644 0 0  0.1320920502089288 0 0  0.1353138075310958 0 0  0.1385355648532632 0 0  0.1417573221754333 0 0  0.1449790794976035 0 0  0.1482008368197736 0 0  0.1514225941419428 0 0  0.1546443514641101 0 0  0.157866108786276 0 0  0.1610878661084403 0 0  0.1643096234306047 0 0  0.167531380752769 0 0  0.1707531380749333 0 0  0.1739748953970977 0 0  0.177196652719262 0 0  0.1804184100414264 0 0  0.1836401673635935 0 0  0.1868619246857611 0 0  0.1900836820079313 0 0  0.1933054393301014 0 0  0.1965271966522716 0 0  0.1997489539744406 0 0  0.2029707112966078 0 0  0.2061924686187736 0 0  0.209414225940938 0 0  0.2126359832631022 0 0  0.2158577405852666 0 0  0.219079497907431 0 0  0.2223012552295953 0 0  0.2255230125517597 0 0  0.2287447698739242 0 0  0.2319665271960914 0 0  0.2351882845182592 0 0  0.2384100418404293 0 0  0.2416317991625994 0 0  0.2448535564847696 0 0  0.2480753138069371 0 0  0.2512970711291014 0 0  0.2545188284512658 0 0  0.2577405857734302 0 0  0.2609623430955986 0 0  0.2641841004177688 0 0  0.2674058577399389 0 0  0.270627615062109 0 0  0.2738493723842792 0 0  0.2770711297064487 0 0  0.280292887028613 0 0  0.2835146443507774 0 0  0.2867364016729417 0 0  0.2899581589951061 0 0  0.2931799163172705 0 0  0.2964016736394348 0 0  0.2996234309615992 0 0  0.3028451882837672 0 0  0.3060669456059373 0 0  0.3092887029281075 0 0  0.3125104602502776 0 0  0.3157322175724478 0 0  0.3189539748946177 0 0  0.322175732216782 0 0  0.3253974895389464 0 0  0.3286192468611107 0 0  0.3318410041832751 0 0  0.3350627615054395 0 0  0.3382845188276038 0 0  0.3415062761497681 0 0  0.3447280334719325 0 0  0.3479497907940968 0 0  0.3511715481162612 0 0  0.3543933054384255 0 0  0.3576150627605947 0 0  0.3608368200827649 0 0  0.364058577404935 0 0  0.3672803347271051 0 0  0.3705020920492753 0 0  0.373723849371444 0 0  0.3769456066936084 0 0  0.3801673640157748 0 0  0.383389121337945 0 0  0.3866108786601209 0 0  0.3898326359823028 0 0  0.3930543933044846 0 0  0.3962761506266662 0 0  0.399497907948848 0 0  0.4027196652710298 0 0  0.4059414225932116 0 0  0.4091631799153934 0 0  0.4123849372375751 0 0  0.4156066945597569 0 0  0.4188284518819387 0 0  0.4220502092041222 0 0  0.4252719665263097 0 0  0.4284937238484974 0 0  0.4317154811706849 0 0  0.4349372384928725 0 0  0.4381589958150601 0 0  0.4413807531372476 0 0  0.4446025104594352 0 0  0.4478242677816181 0 0  0.4510460251037998 0 0  0.4542677824259815 0 0  0.4574895397481634 0 0  0.4607112970703451 0 0  0.4639330543925269 0 0  0.4671548117147087 0 0  0.4703765690368904 0 0  0.4735983263590722 0 0  0.4768200836812568 0 0  0.4800418410034444 0 0  0.483263598325632 0 0  0.4864853556478196 0 0  0.4897071129700028 0 0  0.4929288702921845 0 0  0.4961506276143663 0 0  0.4993723849365479 0 0  0.5025941422587239 0 0  0.5058158995809008 0 0  0.5090376569030826 0 0  0.5122594142252677 0 0  0.515481171547461 0 0  0.5187029288696494 0 0  0.5219246861918312 0 0  0.525146443514013 0 0  0.5283682008361947 0 0  0.5315899581583845 0 0  0.5348117154805778 0 0  0.5380334728027617 0 0  0.5412552301249435 0 0  0.5444769874471141 0 0  0.5476987447692853 0 0  0.550920502091467 0 0  0.5541422594136513 0 0  0.5573640167358447 0 0  0.560585774058034 0 0  0.5638075313802158 0 0  0.5670292887023975 0 0  0.5702510460245793 0 0  0.5734728033467682 0 0  0.5766945606689615 0 0  0.579916317991155 0 0  0.5831380753133483 0 0  0.5863598326355314 0 0  0.5895815899577131 0 0  0.5928033472798949 0 0  0.5960251046020785 0 0  0.5992468619242718 0 0  0.6024686192464619 0 0  0.6056903765686437 0 0  0.6089121338908206 0 0  0.6121338912129908 0 0  0.6153556485351673 0 0  0.618577405857349 0 0  0.6217991631795386 0 0  0.625020920501732 0 0  0.6282426778239159 0 0  0.6314644351460976 0 0  0.6346861924682795 0 0  0.6379079497904622 0 0  0.6411297071126555 0 0  0.6443514644348465 0 0  0.6475732217570283 0 0  0.650794979079206 0 0  0.6540167364013761 0 0  0.6572384937235518 0 0  0.6604602510457335 0 0  0.6636820083679225 0 0  0.6669037656901158 0 0  0.6701255230123004 0 0  0.6733472803344823 0 0  0.6765690376566641 0 0  0.6797907949788459 0 0  0.6830125523010393 0 0  0.686234309623231 0 0  0.6894560669454127 0 0  0.6926778242675914 0 0  0.6958995815897615 0 0  0.6991213389119363 0 0  0.7023430962341181 0 0  0.7055648535563062 0 0  0.7087866108784994 0 0  0.712008368200685 0 0  0.7152301255228668 0 0  0.7184518828450486 0 0  0.7216736401672305 0 0  0.724895397489423 0 0  0.7281171548116155 0 0  0.7313389121337973 0 0  0.7345606694559768 0 0  0.7377824267781468 0 0  0.7410041841003209 0 0  0.7442259414225026 0 0  0.7474476987446899 0 0  0.7506694560668832 0 0  0.7538912133890696 0 0  0.7571129707112513 0 0  0.760334728033433 0 0  0.7635564853556149 0 0  0.7667782426778067 0 0  0.77 0.001685393258423789 0  0.77 0.003370786516847669 0  0.77 0.005056179775271247 0  0.77 0.006741573033694517 0  0.77 0.008426966292117821 0  0.77 0.01011235955054176 0  0.77 0.01179775280896623 0  0.77 0.0134831460673904 0  0.77 0.01516853932581489 0  0.77 0.01685393258423891 0  0.77 0.01853932584266291 0  0.77 0.02022471910108589 0  0.77 0.02191011235950794 0  0.77 0.02359550561792999 0  0.77 0.02528089887635205 0  0.77 0.02696629213477411 0  0.77 0.02865168539319714 0  0.77 0.03033707865161956 0  0.77 0.03202247191004162 0  0.77 0.03370786516846367 0  0.77 0.03539325842688572 0  0.77 0.03707865168530778 0  0.77 0.03876404494372984 0  0.77 0.0404494382021519 0  0.77 0.04213483146057394 0  0.77 0.04382022471899601 0  0.77 0.04550561797741807 0  0.77 0.04719101123584013 0  0.77 0.04887640449426219 0  0.77 0.05056179775268425 0  0.77 0.0522471910111063 0  0.77 0.05393258426952837 0  0.77 0.05561797752795105 0  0.77 0.05730337078637505 0  0.77 0.05898876404479723 0  0.77 0.0606741573032193 0  0.77 0.06235955056164135 0  0.77 0.06404494382006341 0  0.77 0.06573033707848548 0  0.77 0.06741573033690752 0  0.77 0.06910112359532959 0  0.77 0.07078651685375165 0  0.77 0.0724719101121737 0  0.77 0.07415730337059653 0  0.77 0.07584269662902443 0  0.77 0.07752808988745429 0  0.77 0.07921348314588413 0  0.77 0.08089887640431678 0  0.77 0.08258426966274923 0  0.77 0.08426966292117907 0  0.77 0.08595505617960987 0  0.77 0.08764044943804362 0  0.77 0.08932584269647403 0  0.77 0.09101123595490389 0  0.77 0.09269662921333673 0  0.77 0.09438202247176901 0  0.77 0.09606741573019884 0  0.77 0.09775280898862983 0  0.77 0.09943820224706355 0  0.77 0.1011235955054938 0  0.77 0.1028089887639236 0  0.77 0.1044943820223567 0  0.77 0.1061797752807888 0  0.77 0.1078651685392186 0  0.77 0.1095505617976498 0  0.77 0.1112359550560835 0  0.77 0.1129213483145136 0  0.77 0.1146067415729456 0  0.77 0.1162921348313787 0  0.77 0.1179775280898085 0  0.77 0.1196629213482387 0  0.77 0.1213483146066724 0  0.77 0.1230337078651035 0  0.77 0.1247191011235322 0  0.77 0.1264044943819605 0  0.77 0.1280898876403903 0  0.77 0.1297752808988242 0  0.77 0.1314606741572554 0  0.77 0.1331460674156853 0  0.77 0.1348314606741154 0  0.77 0.1365168539325504 0  0.77 0.1382022471909802 0  0.77 0.13988764044941 0  0.77 0.1415730337078443 0  0.77 0.1432584269662752 0  0.77 0.144943820224705 0  0.77 0.1466292134831355 0  0.77 0.1483146067415701 0  0.7667782426778414 0.15 0  0.7635564853556813 0.15 0  0.7603347280335111 0.15 0  0.757112970711341 0.15 0  0.7538912133891708 0.15 0  0.7506694560670005 0.15 0  0.7474476987448303 0.15 0  0.7442259414226602 0.15 0  0.74100418410049 0.15 0  0.7377824267783197 0.15 0  0.7345606694561496 0.15 0  0.7313389121339794 0.15 0  0.7281171548118092 0.15 0  0.724895397489639 0.15 0  0.7216736401674688 0.15 0  0.7184518828452986 0.15 0  0.7152301255231284 0.15 0  0.7120083682009583 0.15 0  0.708786610878788 0.15 0  0.7055648535566178 0.15 0  0.7023430962344477 0.15 0  0.6991213389122775 0.15 0  0.6958995815901072 0.15 0  0.692677824267937 0.15 0  0.6894560669457669 0.15 0  0.6862343096235967 0.15 0  0.6830125523014264 0.15 0  0.6797907949792563 0.15 0  0.6765690376570861 0.15 0  0.6733472803349159 0.15 0  0.6701255230127456 0.15 0  0.6669037656905755 0.15 0  0.6636820083684053 0.15 0  0.6604602510462351 0.15 0  0.657238493724065 0.15 0  0.6540167364018947 0.15 0  0.6507949790797245 0.15 0  0.6475732217575543 0.15 0  0.644351464435384 0.15 0  0.6411297071132231 0.15 0  0.6379079497910645 0.15 0  0.634686192468906 0.15 0  0.6314644351467468 0.15 0  0.6282426778245765 0.15 0  0.6250209205024085 0.15 0  0.62179916318025 0.15 0  0.6185774058580914 0.15 0  0.6153556485359328 0.15 0  0.6121338912137689 0.15 0  0.6089121338915987 0.15 0  0.6056903765694354 0.15 0  0.6024686192472768 0.15 0  0.5992468619251182 0.15 0  0.5960251046029597 0.15 0  0.5928033472807912 0.15 0  0.589581589958621 0.15 0  0.5863598326364508 0.15 0  0.5831380753142792 0.15 0  0.5799163179920974 0.15 0  0.57669456
[...]
<PointData  Scalars="concentration"> 
<DataArray  type="Float64"  Name="concentration"  format="ascii">0.0000000000000000e+00  1.0000000000000013e+00  3.5467063518634889e-01  0.0000000000000000e+00  7.3948971844890368e-02  -1.0335336038651678e-02  -1.2190986514771006e-01  5.8179875830840477e-01  8.5907232823633639e-01  8.5696548949461238e-01  8.6234701678451842e-01  8.6245379933248256e-01  8.6191562250462150e-01  8.6157711380595658e-01  8.6139695505211111e-01  8.6130662030807204e-01  8.6129890330383152e-01  8.6130444853858557e-01  8.6135062912578630e-01  8.6140686814261114e-01  8.6144608904728126e-01  8.6153882506891311e-01  8.6156237766034771e-01  8.6166785530767698e-01  8.6169462431718880e-01  8.6179842120662908e-01  8.6183175487394381e-01  8.6194546692043839e-01  8.6197885065637458e-01  8.6210256087653614e-01  8.6216186004724293e-01  8.6226084641850720e-01  8.6238618555396229e-01  8.6244869429932070e-01  8.6261971927796355e-01  8.6271308524113632e-01  8.6284187244653043e-01  8.6306148590555254e-01  8.6308557390310259e-01  8.6345494059723671e-01  8.6340851208708791e-01  8.6385874691190034e-01  8.6384309515014457e-01  8.6427649890989600e-01  8.6438301141311957e-01  8.6474964586169878e-01  8.6499317805905607e-01  8.6533570958258710e-01  8.6565138868853764e-01  8.6605078214860809e-01  8.6639795196503766e-01  8.6686433301844557e-01  8.6728001194375570e-01  8.6778841298291609e-01  8.6829352942923044e-01  8.6885598077295045e-01  8.6946594392830023e-01  8.7006416827890232e-01  8.7081221682325760e-01  8.7149136809875793e-01  8.7228292909698402e-01  8.7316537581003961e-01  8.7401727386113404e-01  8.7495083566175924e-01  8.7608409195742398e-01  8.7706895400139528e-01  8.7820304282691330e-01  8.7965148324917752e-01  8.8075791173931905e-01  8.8210890398349162e-01  8.8402449447759146e-01  8.8513602630852972e-01  8.8673305199183938e-01  8.8938235322340642e-01  8.9016056651523734e-01  8.9204142067384595e-01  8.9598527425612440e-01  8.9543517124497896e-01  8.9777706070375585e-01  9.0427061229070416e-01  8.9932512340199255e-01  9.0325362224701122e-01  9.1444640154860635e-01  8.9589731105807402e-01  9.0248114120816980e-01  9.2629206522257068e-01  7.7931742457372266e-01  7.6417494810600917e-01  7.0852653075075578e-01  7.0922170635964166e-01  7.2226978289675825e-01  7.3037263475918346e-01  7.3454790968767147e-01  7.3632019508447133e-01  7.3661902329160744e-01  7.3626280868540739e-01  7.3577334875665323e-01  7.3506553450903833e-01  7.3458052512998351e-01  7.3448887508861049e-01  7.3398425056875727e-01  7.3406757124448763e-01  7.3474092188219986e-01  7.3398171896091524e-01  7.3483127074013266e-01  7.3646622151579622e-01  7.3415172876242407e-01  7.3690922760534849e-01  7.4014636202127937e-01  7.3333587708870640e-01  7.4246563321495829e-01  7.4886679754675134e-01  7.2976783337105822e-01  7.6167876538641843e-01  7.7404979283246000e-01  7.4390077809305399e-01  8.5515714258718034e-01  6.8738999108992727e-01  1.0127719774881168e+00  1.0405277682999650e+00  1.0298659502178258e+00  1.0172677310618596e+00  1.0090705579222927e+00  1.0045603255197910e+00  1.0022436022596919e+00  1.0010915182947910e+00  1.0005278315803245e+00  1.0002543508264579e+00  1.0001222753289067e+00  1.0000586662710107e+00  1.0000280926639109e+00  1.0000134240234277e+00  1.0000063994762065e+00  1.0000030428554032e+00  1.0000014425412758e+00  1.0000006818812945e+00  1.0000003211112163e+00  1.0000001508280019e+00  1.0000000704665428e+00  1.0000000329066767e+00  1.0000000152120934e+00  1.0000000071112904e+00  1.0000000031657661e+00  1.0000000016258548e+00  1.0000000004898375e+00  1.0000000005481902e+00  9.9999999991796606e-01  1.0000000001484650e+00  1.0000000002873841e+00  9.9999999912697268e-01  1.0000000018608224e+00  9.9999999682503327e-01  1.0000000048031907e+00  9.9999999339167400e-01  1.0000000084233149e+00  9.9999998995628392e-01  1.0000000112828391e+00  9.9999998799772760e-01  1.0000000121412800e+00  9.9999998827708536e-01  1.0000000108428255e+00  9.9999999035722420e-01  1.0000000082790452e+00  9.9999999310612897e-01  1.0000000055965261e+00  9.9999999554420760e-01  1.0000000035024048e+00  9.9999999726245259e-01  1.0000000021435289e+00  9.9999999830642727e-01  1.0000000013594419e+00  9.9999999888336177e-01  1.0000000009478145e+00  9.9999999915525062e-01  1.0000000008091132e+00  9.9999999914865123e-01  1.0000000009867063e+00  9.9999999877314771e-01  1.0000000015664274e+00  9.9999999803336281e-01  1.0000000023443505e+00  9.9999999741866896e-01  1.0000000025672722e+00  9.9999999772919201e-01  1.0000000017960755e+00  9.9999999864675371e-01  1.0000000010980348e+00  9.9999999909543724e-01  1.0000000002776857e+00  1.0000000013629167e+00  9.9999999597593736e-01  1.0000000065402441e+00  9.9999999322609179e-01  1.0000000030814220e+00  1.0000000034572010e+00  9.9999999234036951e-01  1.0000000015714934e+00  1.0000000209557394e+00  9.9999994166541661e-01  1.0000000977860344e+00  9.9999988214610835e-01  1.0000000973401191e+00  9.9999997309132438e-01  9.9999991700344570e-01  1.0000002031868995e+00  9.9999970358732304e-01  1.0000003329302061e+00  9.9999969679810141e-01  1.0000002213775288e+00  9.9999988184553179e-01  1.0000000271233151e+00  1.0000000284036081e+00  9.9999995781844120e-01  1.0000000235347477e+00  1.0000000100512392e+00  9.9999995837113553e-01  1.0000000607208532e+00  9.9999993517867825e-01  1.0000000573108372e+00  9.9999995606068814e-01  1.0000000298668204e+00  9.9999998178306471e-01  1.0000000100373245e+00  9.9999999498909375e-01  1.0000000022648281e+00  9.9999999907914006e-01  1.0000000003310725e+00  9.9999999989917299e-01  1.0000000000228360e+00  9.9999999999857170e-01  9.9999999999778644e-01  1.0000000000016902e+00  9.9999999999916556e-01  1.0000000000003386e+00  9.9999999999988254e-01  1.0000000000000386e+00  9.9999999999999045e-01  1.0000000000000040e+00  1.0000000000000000e+00  1.0000000000000020e+00  1.0000000000000013e+00  1.0000000000000011e+00  1.0000000000000004e+00  1.0000000000000011e+00  1.0000000000000004e+00  1.0000000000000004e+00  1.0000000000000009e+00  1.0000000000000002e+00  1.0000000000000007e+00  1.0000000000000004e+00  1.0000000000000009e+00  1.0000000000000004e+00  1.0000000000000004e+00  9.9999999999999967e-01  1.0000000000000036e+00  9.9999999999999256e-01  1.0000000000000251e+00  9.9999999999992895e-01  1.0000000000002112e+00  9.9999999999937450e-01  1.0000000000018887e+00  9.9999999999418132e-01  1.0000000000190234e+00  9.9999999993108224e-01  1.0000000002755325e+00  9.9999999885923807e-01  1.0000000045713000e+00  9.9999998289814829e-01  1.0000000593504901e+00  9.9999980693824353e-01  1.0000005958918643e+00  9.9999825713938850e-01  1.0000047195092772e+00  9.9998867174213568e-01  1.0000225547570532e+00  9.9996733754982026e-01  1.0000220693886088e+00  9.9996263181835210e-01  1.0015379679707537e+00  9.7039540952523773e-01  9.5655886141363022e-01  9.5581549284458212e-01  9.6061590678972464e-01  9.2453611550470571e-01  1.0432377532068113e+00  6.5172561863377276e-01  2.5403718530869396e-02  8.6494118507725382e-01  1.4379020127707687e-01  9.3605945388850720e-01  1.0129378722736013e+00  9.5365066127720277e-01  9.3552209639680528e-01  8.5324854718018051e-01  8.8545832842950023e-01  2.6499958353226449e-01  7.6759824208394681e-02  8.6365510817637006e-02  7.6720432342478967e-02  6.3689954219575462e-02  5.1759563749248082e-02  4.5997818387237988e-02  3.8991442440049977e-02  3.3995287532890141e-02  3.0129526400031071e-02  2.5772396122828268e-02  2.2853562607722429e-02  1.9263453410345403e-02  1.4470479850207971e-02  8.9946837688515257e-03  3.5649612472807512e-03  -4.5853174577085572e-05  -2.0035174678143240e-03  -2.1734118236223965e-03  -1.2472314812246796e-03  3.8187284646289073e-04  9.1629247546647151e-04  6.1436564479732259e-04  -2.3509775328778342e-04  -4.0625649286728699e-04  -3.0298452766385202e-05  -4.3019072972009549e-04  2.4111361497118161e-04  1.2564697360381279e-03  9.6930104344995413e-04  -2.8095191015966615e-03  -3.0009689761695043e-02  -2.7774982835489848e-02  -4.7868869628890809e-01  1.1769162133493678e+00  -2.1804913315495330e-02  1.1530785623098062e-01  4.8044721994682277e-01  6.5417936745019101e-01  -1.6704457448688534e-01  3.1037302647840470e-01  7.4163115681149239e-01  -2.7338975528479659e-01  6.6007210573693520e-02  6.3494305517969274e-01  1.1055263789355378e+00  6.6741502532436381e-01  6.6299611306234563e-01  7.4143103903232188e-01  6.3773486293260617e-01  6.2012959147122793e-01  6.1122866190871761e-01  4.9641375467889598e-01  2.6152068776414406e-01  -3.9592306603850436e-01  -8.8263812623001225e-01  -2.1298639387576851e-01  1.7778813596591098e-01  -1.2331339116868167e-01  -1.4707597994292987e-01  2.3619943294977946e-02  3.6130908045767596e-03  -8.1205246851620366e-02  4.7079700684357299e-03  3.6265986249755050e-02  -3.3887540322109673e-02  2.2775419879953813e-02  8.8680049516032158e-02  6.6259145031650424e-02  1.0997648591398416e-01  1.6235833069055974e-01  1.3691159812268971e-01  1.5124789989394416e-01  1.8906400903544698e-01  1.8025827753788076e-01  1.7826056024342468e-01  2.1164159944720934e-01  1.7896694291965012e-01  1.5979816672422781e-01  1.8872115298053363e-01  1.4151636146725788e-01  1.9701232443646791e-01  2.0640999444271277e-01  2.8353073808388907e-01  4.4194947889117403e-01  6.9873110760561952e-01  9.5346157500644280e-01  -4.2200509196137610e-02  -3.5419160865649341e-01  4.5380055250487511e-01  8.4569197133137297e-01  8.9826295204066198e-01  1.7892380404269620e-01  -2.9738198794122352e-02  6.3050712079094917e-01  1.1450437016719397e+00  2.4928115347449642e-01  -1.4316205833384993e-01  5.9355009228815236e-01  1.1648122499330109e+00  2.8610279409383665e-01  -1.7068090011555132e-01  5.9611064719120366e-01  1.0969826982619364e+00  3.0909895021071748e-01  -2.5917819612911042e-01  2.1622073383058565e-01  6.3418749967764121e-01  9.6170737421702612e-01  3.7826848422977793e-01  -2.4971876235767401e-01  1.8351426730002759e-01  6.1196684365357934e-01  9.9125446639215098e-01  3.4120546640252708e-01  -2.4376416499032627e-01  1.7536393075351220e-01  6.3254262345491019e-01  9.5706473767417832e-01  3.6189410005917938e-01  -2.8740809882313900e-01  2.2745184468517424e-01  5.7948500482275500e-01  1.0264470594646404e+00  2.9322189495451406e-01  -2.3797543808076527e-01  1.7662514862548515e-01  6.4435708961042737e-01  9.5587059069357250e-01  3.3060480450333829e-01  -2.9514922679482303e-01  1.9142213043082704e-01  5.0625252146741462e-01  6.1957131286769263e-01  -2.1583141434191222e-01  1.3278312497415604e-01  6.6588319241740623e-01  9.5555502492808309e-01  3.0851009949637109e-01  -2.9023883938261519e-01  2.3336154990492827e-01  6.0274053209144995e-01  1.0021701430812271e+00  2.5071512879791003e-01  -2.7869735416862906e-01  1.6953551785454535e-01  5.4165851061970371e-01  6.1310644781460444e-01  -1.4833531845992326e-01  3.8291486156262422e-01  8.8498095289388079e-01  1.2950507345310053e-01  5.8409391191261328e-01  1.3887753944466915e-02  3.2682599263549195e-01  7.3709346751897364e-01  -9.3319115359401725e-02  3.2894354873088710e-01  7.6100139195655048e-01  -8.8048539815985691e-02  2.6805905088485904e-01  7.0683487941501366e-01  -2.3417533989114181e-01  -1.4703257092977534e-01  2.1420341517554720e-01  3.9569973258918922e-01  9.5044955405393805e-01  1.7655662747861114e+00  2.5442155278296434e+00  2.2528653492463153e+00  2.2167683864259167e+00  2.2935166289021116e+00  2.0496406308199386e+00  2.0808376070694918e+00  2.0904594633624622e+00  1.9124252545124869e+00  1.8979283690244282e+00  1.9147419310390781e+00  1.7689011217276098e+00  1.7424678423038829e+00  1.7593672102908589e+00  1.6572559355002294e+00  1.6077916113046908e+00  1.6610166649982860e+00  1.5351236961327737e+00  1.5548962988623745e+00  1.5328377106982203e+00  1.4935296182913014e+00  1.4738981579933110e+00  1.4647654427841523e+00  1.4465305142032239e+00  1.4176283246947152e+00  1.4089089274444131e+00  1.4231303267694273e+00  1.3392221569281384e+00  1.4268104261916965e+00  1.3121353149902861e+00  1.3940338507413144e+00  1.3035843846908712e+00  1.3675153443633699e+00  1.2952549843631032e+00  1.3290190128809625e+00  1.3109970618738240e+00  1.2825015260026325e+00  1.3095014663664031e+00  1.2773058472885985e+00  1.2693639310597713e+00  1.2852710255191935e+00  1.2488904134454151e+00  1.2519137254099559e+00  1.2589746109468591e+00  1.2096478650976938e+00  1.2449591096079859e+00  1.2112103712966198e+00  1.2246561063904491e+00  1.2114559202270536e+00  1.2545928581146060e+00  1.3207764268342701e+00  1.1488123018400231e+00  1.6436082967928558e+00  1.1232100501768618e+00  1.5048339941378859e+00  9.6882743494559864e-01  3.2457841364576046e-01  1.0095338542380192e+00  1.1246951788383650e+00  1.3635994748384932e-02  1.2560081825927250e+00  1.0785568891588084e+00  3.2371670619685870e-02  1.1683847627804065e+00  9.1343031735258884e-01  -2.1383834865608922e-01  3.2389437994992171e-01  8.9661602259499529e-01  8.1245403393099699e-02  2.1395663897825726e-01  1.4704622031469305e+00  8.9541776636745296e-01  1.1714564382936352e+00  3.1836798245666470e-01  1.0380250058956988e+00  1.3677703320287740e+00  9.1314550964612162e-01  1.8085338232689799e-01  1.2980145135144354e+00  9.8296754981076517e-01  1.4061832503009264e+00  1.1012377000971871e+00  1.2155113633405397e+00  1.2948409914920627e+00  1.0735505476647371e+00  1.4565534290889115e+00  1.2619687700198752e+00  1.2527476395882398e+00  1.2647350188932338e+00  1.2272162610125548e+00  1.2762054405581180e+00  1.2627293885271575e+00  1.3426385842576156e+00  1.3065928498622676e+00  1.2552903699254245e+00  1.2231738594781403e+00  1.3241478499172801e+00  1.2542808394953102e+00  1.3200367934913326e+00  1.1852713460507811e+00  1.1988459729239616e+00  1.0336976993607654e+00  8.6380836629991176e-01  -7.3479195406228062e-02  -4.7759025162052118e-02  7.8019512240359704e-02  0.0000000000000000e+00  0.0000000000000000e+00  0.0000000000000000e+00  0.0000000000000000e+00  0.0000000000000000e+00  0.0000000000000000e+00  0.0000000000000000e+00  0.0000000000000000e+00  0.0000000000000000e+00  0.0000000000000000e+00  0.0000000000000000e+00  0.0000000000000000e+00  0.0000000000000000e+00  0.0000000000000000e+00  0.0000000000000000e+00  0.0000000000000000e+00  0.0000000000000000e+00  0.0000000000000000e+00  0.0000000000000000e+00  0.0000000000000000e+00  0.0000000000000000e+00  0.0000000000000000e+00  0.0000000000000000e+00  0.0000000000000000e+00  0.0000000000000000e+00  0.0000000000000000e+00  0.0000000000000000e+00  0.0000000000000000e+00  0.0000000000000000e+00  0.0000000000000000e+00  0.0000000000000000e+00  0.0000000000000000e+00  0.0000000000000000e+00  0.0000000000000000e+00  0.0000000000000000e+00  0.0000000000000000e+00  0.0000000000000000e+00  0.0000000000000000e+00  0.0000000000000000e+00  0.0000000000000000e+00  0.0000000000000000e+00  0.0000000000000000e+00  0.0000000000000000e+00  0.0000000000000000e+00  0.0000000000000000e+00  0.0000000000000000e+00  0.0000000000000000e+00  0.0000000000000000e+00  0.0000000000000000e+00  0.0000000000000000e+00  0.0000000000000000e+00  0.0000000000000000e+00  0.0000000000000000e+00  0.0000000000000000e+00  0.0000000000000000e+00  0.0000000000000000e+00  0.0000000000000000e+00  0.0000000000000000e+00  0.0000000000000000e+00  0.0000000000000000e+00  0.0000000000000000e+00  0.0000000000000000e+00  0.0000000000000000e+00  0.0000000000000000e+00  0.0000000000000000e+00  0.0000000000000000e+00  0.0000000000000000e+00  0.0000000000000000e+00  0.0000000000000000e+00  0.0000000000000000e+00  0.0000000000000000e+00  0.0000000000000000e+00  0.0000000000000000e+00  0.0000000000000000e+00  0.0000000000000000e+00  0.0000000000000000e+00  0.0000000000000000e+00  0.0000000000000000e+00  0.0000000000000000e+00  0.0000000000000000e+00  0.0000000000000000e+00  0.0000000000000000e+00  0.0000000000000000e+00  0.0000000000000000e+00  0.0000000000000000e+00  0.0000000000000000e+00  0.0000000000000000e+00  0.0000000000000000e+00  -2.0898856979667899e-02  -8.3279423352482007e-02  -4.2353716315208526e-02  -7.1314126654149889e-03  1.2844404227527095e-04  3.1852697818380322e-05  -9.5973719192230340e-06  3.3700868207456289e-06  -8.7463281755924270e-07  3.5346632191035877e-07  -6.3109847591761520e-07  7.1400649534650129e-07  -6.7295464036471568e-08  3.4172097915484400e-07  -2.9389613017185176e-07  1.9112166280239242e-06  -3.1667006320703083e-06  5.8041503243545037e-06  -7.8995595668201598e-06  9.2493752582838337e-06  -1.0365117972200383e-05  1.0256077233576513e-05  -1.0115786032474590e-05  1.1015640912165765e-05  -1.2252890830228803e-05  1.5496754111046525e-05  -1.7997998446926774e-05  2.0018276588918266e-05  -1.9973361859043404e-05  1.8691258178680184e-05  -1.6625190925247865e-05  1.5181893457210767e-05  -1.5245091328985074e-05  1.6926094896772888e-05  -1.8422581458401468e-05  1.7359182147930932e-05  -1.2476791205811182e-05  3.7996688757479306e-06  7.6607817710694597e-06  -1.9175182261637737e-05  2.6723036234066178e-05  -2.8493436464485688e-05  2.5792839650307311e-05  -1.9898682839740174e-05  1.1778836968865337e-05  -2.8934089571639990e-06  -9.5122583172764807e-06  3.1565599947323056e-05  -6.3131654535184464e-05  1.0003338759547887e-04  -1.3996466519483931e-04  1.7689812862709317e-04  -2.1373847963933283e-04  2.6722829576509053e-04  -3.3285043936847171e-04  3.9662796500207470e-04  -4.3287498992381792e-04  3.8849042914579926e-04  -2.9981024168892204e-04  1.5522586851361589e-04  -5.3552143676396523e-05  -4.4384946911783000e-05  7.4816726885983028e-05  -7.8335619276476604e-05  -7.4098872578411972e-05  3.7295247887162239e-04  -8.5922313918556823e-04  1.3801314138595002e-03  -1.9885592819693580e-03  2.7405616198236532e-03  -3.8200177291191533e-03  5.0093189128694636e-03  -5.9868089355362081e-03  6.3026145015173639e-03  -5.7955167527062919e-03  4.0710176486855243e-03  -9.7137914757923429e-04  -2.9466799806792260e-03  5.7472903361623189e-03  -5.6399997676088789e-03  1.6483926800288724e-03  6.3855200157925127e-03  -1.7546697309381538e-02  2.7236058930634122e-02  -2.9420439071673618e-02  1.9760489219665767e-02  6.7717948455522725e-03  -4.9418504661934808e-02  8.9455378793158596e-02  8.3026751629964868e-03  -2.0840247498889394e-02  -7.0914016021754074e-03  -4.2219225971375018e-05  7.0737637794057460e-05  -1.7318979157433983e-05  3.1411124064845297e-06  1.3156627674507543e-07  -2.3665899744417589e-07  1.3430359227615356e-07  -6.1015554998189595e-07  4.4651783131291898e-07  -2.3675433778008678e-07  -6.8333519972719534e-07  1.1643437761360462e-06  -1.6551056104372948e-06  1.3897046667752124e-06  1.2697732700798598e-08  -1.5810620783739782e-06  3.5061212822200207e-06  -5.0000307818361132e-06  5.1932932107171663e-06  -4.9745061119789941e-06  4.0163526076266578e-06  -4.1016578580574528e-06  5.4676853232375440e-06  -8.1213557362648056e-06  1.1017779369639802e-05  -1.3104973507036563e-05  1.3595308508902950e-05  -1.2400746971821519e-05  1.0355836948597651e-05  -9.2566160047477239e-06  1.0560946320514806e-05  -1.3961079428294375e-05  1.7802318768520406e-05  -2.0183388261168804e-05  1.9099096071563005e-05  -1.2963068385827331e-05  2.8008647733941398e-06  7.8279460790433927e-06  -1.6218472550965178e-05  2.1431316764147202e-05  -2.3092717938491021e-05  2.3406318568521395e-05  -2.5981221033809705e-05  2.8953468985841446e-05  -2.6994882762511763e-05  1.7873920987341915e-05  1.8187077922181103e-07  -2.3183138551491093e-05  3.9794283976914336e-05  -5.4533917462549300e-05  8.0639463735867684e-05  -1.3032233678486209e-04  2.1983571445721660e-04  -3.0763919431647991e-04  3.7395161280318816e-04  -3.6644772946330627e-04  3.1493039767621894e-04  -2.2081388993329350e-04  1.2093677486074872e-04  2.1336372628465143e-05  -1.7561528874179022e-04  3.0562703680942009e-04  -3.0251240251792611e-04  1.8257146893597048e-04  -1.5371211257024537e-06  -1.6797874920004353e-04  4.8304634574368552e-04  -1.1347321798658011e-03  2.2233269767984194e-03  -3.5747977556568186e-03  5.0440749450545112e-03  -6.3706777708231657e-03  6.9621252197821443e-03  -5.8328407804035271e-03  2.6608360556468692e-03  1.8048217543144