<?xml version="1.0"?>
<VTKFile type="UnstructuredGrid"  version="0.1"  >
<UnstructuredGrid>
<Piece  NumberOfPoints="21600" NumberOfCells="42542">
<Points>
<DataArray  type="Float64"  NumberOfComponents="3"  format="ascii">0 0 0  0.77 0 0  0.77 0.15 0  0 0.15 0  0.003221757322170014 0 0  0.006443514644340046 0 0  0.009665271966510193 0 0  0.01288702928868034 0 0  0.01610878661085048 0 0  0.01933054393302049 0 0  0.02255230125519027 0 0  0.02577405857735967 0 0  0.02899581589952872 0 0  0.03221757322169801 0 0  0.03543933054386744 0 0  0.03866108786603686 0 0  0.04188284518820627 0 0  0.0451046025103757 0 0  0.04832635983254521 0 0  0.05154811715471607 0 0  0.05476987447688695 0 0  0.05799163179905782 0 0  0.06121338912122846 0 0  0.06443514644339859 0 0  0.06765690376556875 0 0  0.0708786610877389 0 0  0.07410041840990904 0 0  0.0773221757320792 0 0  0.08054393305425039 0 0  0.08376569037642198 0 0  0.0869874476985936 0 0  0.09020920502076518 0 0  0.0934309623429339 0 0  0.0966527196651024 0 0  0.09987447698726967 0 0  0.1030962343094369 0 0  0.1063179916316041 0 0  0.1095397489537714 0 0  0.1127615062759386 0 0  0.1159832635981051 0 0  0.1192050209202709 0 0  0.1224267782424358 0 0  0.1256485355646001 0 0  0.1288702928867644 0 0  0.1320920502089288 0 0  0.1353138075310958 0 0  0.1385355648532632 0 0  0.1417573221754333 0 0  0.1449790794976035 0 0  0.1482008368197736 0 0  0.1514225941419428 0 0  0.1546443514641101 0 0  0.157866108786276 0 0  0.1610878661084403 0 0  0.1643096234306047 0 0  0.167531380752769 0 0  0.1707531380749333 0 0  0.1739748953970977 0 0  0.177196652719262 0 0  0.1804184100414264 0 0  0.1836401673635935 0 0  0.1868619246857611 0 0  0.1900836820079313 0 0  0.1933054393301014 0 0  0.1965271966522716 0 0  0.1997489539744406 0 0  0.2029707112966078 0 0  0.2061924686187736 0 0  0.209414225940938 0 0  0.2126359832631022 0 0  0.2158577405852666 0 0  0.219079497907431 0 0  0.2223012552295953 0 0  0.2255230125517597 0 0  0.2287447698739242 0 0  0.2319665271960914 0 0  0.2351882845182592 0 0  0.2384100418404293 0 0  0.2416317991625994 0 0  0.2448535564847696 0 0  0.2480753138069371 0 0  0.2512970711291014 0 0  0.2545188284512658 0 0  0.2577405857734302 0 0  0.2609623430955986 0 0  0.2641841004177688 0 0  0.2674058577399389 0 0  0.270627615062109 0 0  0.2738493723842792 0 0  0.2770711297064487 0 0  0.280292887028613 0 0  0.2835146443507774 0 0  0.2867364016729417 0 0  0.2899581589951061 0 0  0.2931799163172705 0 0  0.2964016736394348 0 0  0.2996234309615992 0 0  0.3028451882837672 0 0  0.3060669456059373 0 0  0.3092887029281075 0 0  0.3125104602502776 0 0  0.3157322175724478 0 0  0.3189539748946177 0 0  0.322175732216782 0 0  0.3253974895389464 0 0  0.3286192468611107 0 0  0.3318410041832751 0 0  0.3350627615054395 0 0  0.3382845188276038 0 0  0.3415062761497681 0 0  0.3447280334719325 0 0  0.3479497907940968 0 0  0.3511715481162612 0 0  0.3543933054384255 0 0  0.3576150627605947 0 0  0.3608368200827649 0 0  0.364058577404935 0 0  0.3672803347271051 0 0  0.3705020920492753 0 0  0.373723849371444 0 0  0.3769456066936084 0 0  0.3801673640157748 0 0  0.383389121337945 0 0  0.3866108786601209 0 0  0.3898326359823028 0 0  0.3930543933044846 0 0  0.3962761506266662 0 0  0.399497907948848 0 0  0.4027196652710298 0 0  0.4059414225932116 0 0  0.4091631799153934 0 0  0.4123849372375751 0 0  0.4156066945597569 0 0  0.4188284518819387 0 0  0.4220502092041222 0 0  0.4252719665263097 0 0  0.4284937238484974 0 0  0.4317154811706849 0 0  0.4349372384928725 0 0  0.4381589958150601 0 0  0.4413807531372476 0 0  0.4446025104594352 0 0  0.4478242677816181 0 0  0.4510460251037998 0 0  0.4542677824259815 0 0  0.4574895397481634 0 0  0.4607112970703451 0 0  0.4639330543925269 0 0  0.4671548117147087 0 0  0.4703765690368904 0 0  0.4735983263590722 0 0  0.4768200836812568 0 0  0.4800418410034444 0 0  0.483263598325632 0 0  0.4864853556478196 0 0  0.4897071129700028 0 0  0.4929288702921845 0 0  0.4961506276143663 0 0  0.4993723849365479 0 0  0.5025941422587239 0 0  0.5058158995809008 0 0  0.5090376569030826 0 0  0.5122594142252677 0 0  0.515481171547461 0 0  0.5187029288696494 0 0  0.5219246861918312 0 0  0.525146443514013 0 0  0.5283682008361947 0 0  0.5315899581583845 0 0  0.5348117154805778 0 0  0.5380334728027617 0 0  0.5412552301249435 0 0  0.5444769874471141 0 0  0.5476987447692853 0 0  0.550920502091467 0 0  0.5541422594136513 0 0  0.5573640167358447 0 0  0.560585774058034 0 0  0.5638075313802158 0 0  0.5670292887023975 0 0  0.5702510460245793 0 0  0.5734728033467682 0 0  0.5766945606689615 0 0  0.579916317991155 0 0  0.5831380753133483 0 0  0.5863598326355314 0 0  0.5895815899577131 0 0  0.5928033472798949 0 0  0.5960251046020785 0 0  0.5992468619242718 0 0  0.6024686192464619 0 0  0.6056903765686437 0 0  0.6089121338908206 0 0  0.6121338912129908 0 0  0.6153556485351673 0 0  0.618577405857349 0 0  0.6217991631795386 0 0  0.625020920501732 0 0  0.6282426778239159 0 0  0.6314644351460976 0 0  0.6346861924682795 0 0  0.6379079497904622 0 0  0.6411297071126555 0 0  0.6443514644348465 0 0  0.6475732217570283 0 0  0.650794979079206 0 0  0.6540167364013761 0 0  0.6572384937235518 0 0  0.6604602510457335 0 0  0.6636820083679225 0 0  0.6669037656901158 0 0  0.6701255230123004 0 0  0.6733472803344823 0 0  0.6765690376566641 0 0  0.6797907949788459 0 0  0.6830125523010393 0 0  0.686234309623231 0 0  0.6894560669454127 0 0  0.6926778242675914 0 0  0.6958995815897615 0 0  0.6991213389119363 0 0  0.7023430962341181 0 0  0.7055648535563062 0 0  0.7087866108784994 0 0  0.712008368200685 0 0  0.7152301255228668 0 0  0.7184518828450486 0 0  0.7216736401672305 0 0  0.724895397489423 0 0  0.7281171548116155 0 0  0.7313389121337973 0 0  0.7345606694559768 0 0  0.7377824267781468 0 0  0.7410041841003209 0 0  0.7442259414225026 0 0  0.7474476987446899 0 0  0.7506694560668832 0 0  0.7538912133890696 0 0  0.7571129707112513 0 0  0.760334728033433 0 0  0.7635564853556149 0 0  0.7667782426778067 0 0  0.77 0.001685393258423789 0  0.77 0.003370786516847669 0  0.77 0.005056179775271247 0  0.77 0.006741573033694517 0  0.77 0.008426966292117821 0  0.77 0.01011235955054176 0  0.77 0.01179775280896623 0  0.77 0.0134831460673904 0  0.77 0.01516853932581489 0  0.77 0.01685393258423891 0  0.77 0.01853932584266291 0  0.77 0.02022471910108589 0  0.77 0.02191011235950794 0  0.77 0.02359550561792999 0  0.77 0.02528089887635205 0  0.77 0.02696629213477411 0  0.77 0.02865168539319714 0  0.77 0.03033707865161956 0  0.77 0.03202247191004162 0  0.77 0.03370786516846367 0  0.77 0.03539325842688572 0  0.77 0.03707865168530778 0  0.77 0.03876404494372984 0  0.77 0.0404494382021519 0  0.77 0.04213483146057394 0  0.77 0.04382022471899601 0  0.77 0.04550561797741807 0  0.77 0.04719101123584013 0  0.77 0.04887640449426219 0  0.77 0.05056179775268425 0  0.77 0.0522471910111063 0  0.77 0.05393258426952837 0  0.77 0.05561797752795105 0  0.77 0.05730337078637505 0  0.77 0.05898876404479723 0  0.77 0.0606741573032193 0  0.77 0.06235955056164135 0  0.77 0.06404494382006341 0  0.77 0.06573033707848548 0  0.77 0.06741573033690752 0  0.77 0.06910112359532959 0  0.77 0.07078651685375165 0  0.77 0.0724719101121737 0  0.77 0.07415730337059653 0  0.77 0.07584269662902443 0  0.77 0.07752808988745429 0  0.77 0.07921348314588413 0  0.77 0.08089887640431678 0  0.77 0.08258426966274923 0  0.77 0.08426966292117907 0  0.77 0.08595505617960987 0  0.77 0.08764044943804362 0  0.77 0.08932584269647403 0  0.77 0.09101123595490389 0  0.77 0.09269662921333673 0  0.77 0.09438202247176901 0  0.77 0.09606741573019884 0  0.77 0.09775280898862983 0  0.77 0.09943820224706355 0  0.77 0.1011235955054938 0  0.77 0.1028089887639236 0  0.77 0.1044943820223567 0  0.77 0.1061797752807888 0  0.77 0.1078651685392186 0  0.77 0.1095505617976498 0  0.77 0.1112359550560835 0  0.77 0.1129213483145136 0  0.77 0.1146067415729456 0  0.77 0.1162921348313787 0  0.77 0.1179775280898085 0  0.77 0.1196629213482387 0  0.77 0.1213483146066724 0  0.77 0.1230337078651035 0  0.77 0.1247191011235322 0  0.77 0.1264044943819605 0  0.77 0.1280898876403903 0  0.77 0.1297752808988242 0  0.77 0.1314606741572554 0  0.77 0.1331460674156853 0  0.77 0.1348314606741154 0  0.77 0.1365168539325504 0  0.77 0.1382022471909802 0  0.77 0.13988764044941 0  0.77 0.1415730337078443 0  0.77 0.1432584269662752 0  0.77 0.144943820224705 0  0.77 0.1466292134831355 0  0.77 0.1483146067415701 0  0.7667782426778414 0.15 0  0.7635564853556813 0.15 0  0.7603347280335111 0.15 0  0.757112970711341 0.15 0  0.7538912133891708 0.15 0  0.7506694560670005 0.15 0  0.7474476987448303 0.15 0  0.7442259414226602 0.15 0  0.74100418410049 0.15 0  0.7377824267783197 0.15 0  0.7345606694561496 0.15 0  0.7313389121339794 0.15 0  0.7281171548118092 0.15 0  0.724895397489639 0.15 0  0.7216736401674688 0.15 0  0.7184518828452986 0.15 0  0.7152301255231284 0.15 0  0.7120083682009583 0.15 0  0.708786610878788 0.15 0  0.7055648535566178 0.15 0  0.7023430962344477 0.15 0  0.6991213389122775 0.15 0  0.6958995815901072 0.15 0  0.692677824267937 0.15 0  0.6894560669457669 0.15 0  0.6862343096235967 0.15 0  0.6830125523014264 0.15 0  0.6797907949792563 0.15 0  0.6765690376570861 0.15 0  0.6733472803349159 0.15 0  0.6701255230127456 0.15 0  0.6669037656905755 0.15 0  0.6636820083684053 0.15 0  0.6604602510462351 0.15 0  0.657238493724065 0.15 0  0.6540167364018947 0.15 0  0.6507949790797245 0.15 0  0.6475732217575543 0.15 0  0.644351464435384 0.15 0  0.6411297071132231 0.15 0  0.6379079497910645 0.15 0  0.634686192468906 0.15 0  0.6314644351467468 0.15 0  0.6282426778245765 0.15 0  0.6250209205024085 0.15 0  0.62179916318025 0.15 0  0.6185774058580914 0.15 0  0.6153556485359328 0.15 0  0.6121338912137689 0.15 0  0.6089121338915987 0.15 0  0.6056903765694354 0.15 0  0.6024686192472768 0.15 0  0.5992468619251182 0.15 0  0.5960251046029597 0.15 0  0.5928033472807912 0.15 0  0.589581589958621 0.15 0  0.5863598326364508 0.15 0  0.5831380753142792 0.15 0  0.5799163179920974 0.15 0  0.57669456
[...]
<PointData  Scalars="concentration"> 
<DataArray  type="Float64"  Name="concentration"  format="ascii">0.0000000000000000e+00  1.0000000000000009e+00  1.0000000000007576e+00  0.0000000000000000e+00  7.3720587508785976e-02  -1.0450990687451525e-02  -1.2200160060955316e-01  5.8349359682739477e-01  8.6032922810964063e-01  8.5793274775170369e-01  8.6349002971829991e-01  8.6364310756121565e-01  8.6344293817990048e-01  8.6316967618229878e-01  8.6330232274727026e-01  8.6343958749946936e-01  8.6356243811831013e-01  8.6404568287754546e-01  8.6404235558970899e-01  8.6473364230257121e-01  8.6470005614578471e-01  8.6544001698559636e-01  8.6545686166730662e-01  8.6621817755504682e-01  8.6628410186138582e-01  8.6704738799316161e-01  8.6724121452351766e-01  8.6794180276402111e-01  8.6826725113391090e-01  8.6900958370138459e-01  8.6938171880826753e-01  8.7012728864070965e-01  8.7076217745693707e-01  8.7133478032983824e-01  8.7213429681037136e-01  8.7298830414560413e-01  8.7352073591742740e-01  8.7456346718590749e-01  8.7561547311793364e-01  8.7602871973613794e-01  8.7742310618596364e-01  8.7875463809460075e-01  8.7877756124015804e-01  8.8078217836279449e-01  8.8253309415182513e-01  8.8151479153600865e-01  8.8475442005987981e-01  8.8718175242584651e-01  8.8350970370503246e-01  8.8962544401539456e-01  8.9325059386108152e-01  8.8247500913936605e-01  8.9643035710179442e-01  9.0210888551204327e-01  8.6988682387222382e-01  9.0741095622076118e-01  9.1770167859451957e-01  7.5412521359991902e-01  8.4173341924371226e-01  6.0399237719013399e-01  8.7760958576041515e-01  9.6618496090640094e-01  9.9727607351118053e-01  1.0058399287319937e+00  1.0066141216021565e+00  1.0052599409493601e+00  1.0036917387910518e+00  1.0024375389209994e+00  1.0015542606242520e+00  1.0009706991547465e+00  1.0005976564759538e+00  1.0003650273196825e+00  1.0002212362092302e+00  1.0001338005983564e+00  1.0000804130063334e+00  1.0000484370457356e+00  1.0000289377241067e+00  1.0000174264385646e+00  1.0000103444530033e+00  1.0000062556143976e+00  1.0000036743462388e+00  1.0000022500122858e+00  1.0000012928782884e+00  1.0000008164224692e+00  1.0000004466691383e+00  1.0000003025060045e+00  1.0000001483846590e+00  1.0000001166681425e+00  1.0000000451088042e+00  1.0000000479071971e+00  1.0000000108340108e+00  1.0000000212630606e+00  1.0000000005335667e+00  1.0000000102115849e+00  9.9999999810266438e-01  1.0000000053680516e+00  9.9999999782598270e-01  1.0000000033335601e+00  9.9999999779209092e-01  1.0000000027200540e+00  9.9999999755736468e-01  1.0000000027504043e+00  9.9999999727084343e-01  1.0000000028501090e+00  9.9999999723292565e-01  1.0000000026536735e+00  9.9999999760190561e-01  1.0000000020871078e+00  9.9999999829693897e-01  1.0000000012956269e+00  9.9999999913450788e-01  1.0000000004284764e+00  1.0000000000236247e+00  9.9999999950836405e-01  1.0000000009758607e+00  9.9999999854196953e-01  1.0000000019017761e+00  9.9999999775133153e-01  1.0000000024266804e+00  9.9999999763899849e-01  1.0000000019914457e+00  9.9999999871092526e-01  1.0000000002701956e+00  1.0000000009981662e+00  9.9999999759705049e-01  1.0000000038007473e+00  9.9999999495894198e-01  1.0000000059922030e+00  9.9999999343656532e-01  1.0000000067183412e+00  9.9999999352328928e-01  1.0000000059055711e+00  9.9999999489750324e-01  1.0000000041760302e+00  9.9999999677230900e-01  1.0000000023390860e+00  9.9999999843463572e-01  1.0000000009348358e+00  9.9999999954707575e-01  1.0000000001085338e+00  1.0000000001192781e+00  9.9999999974453180e-01  1.0000000003248104e+00  9.9999999965074626e-01  1.0000000003466438e+00  9.9999999966969544e-01  1.0000000003092222e+00  9.9999999971147002e-01  1.0000000002702334e+00  9.9999999974592402e-01  1.0000000002385137e+00  9.9999999977836007e-01  1.0000000002019793e+00  9.9999999982104903e-01  1.0000000001530338e+00  9.9999999987443289e-01  1.0000000000983642e+00  9.9999999992678412e-01  1.0000000000515497e+00  9.9999999996587552e-01  1.0000000000210789e+00  9.9999999998801226e-01  1.0000000000061404e+00  9.9999999999731870e-01  1.0000000000008462e+00  1.0000000000000056e+00  9.9999999999969569e-01  1.0000000000003466e+00  9.9999999999972011e-01  1.0000000000001972e+00  9.9999999999987643e-01  1.0000000000000737e+00  9.9999999999996259e-01  1.0000000000000189e+00  9.9999999999999378e-01  1.0000000000000044e+00  1.0000000000000000e+00  1.0000000000000016e+00  1.0000000000000009e+00  9.9999999999999967e-01  1.0000000000000004e+00  1.0000000000000027e+00  1.0000000000000007e+00  9.9999999999999956e-01  1.0000000000000029e+00  1.0000000000000004e+00  1.0000000000000022e+00  9.9999999999999845e-01  1.0000000000000033e+00  1.0000000000000020e+00  1.0000000000000031e+00  1.0000000000000016e+00  1.0000000000000024e+00  1.0000000000000013e+00  1.0000000000000024e+00  1.0000000000000016e+00  1.0000000000000013e+00  1.0000000000000013e+00  1.0000000000000013e+00  1.0000000000000022e+00  9.9999999999999967e-01  1.0000000000000009e+00  1.0000000000000013e+00  9.9999999999999944e-01  1.0000000000000029e+00  1.0000000000000016e+00  1.0000000000000002e+00  1.0000000000000022e+00  1.0000000000000033e+00  1.0000000000000002e+00  1.0000000000000022e+00  1.0000000000000022e+00  1.0000000000000007e+00  9.9999999999999989e-01  1.0000000000000044e+00  9.9999999999999767e-01  1.0000000000000013e+00  1.0000000000000013e+00  1.0000000000000002e+00  1.0000000000000007e+00  1.0000000000000013e+00  9.9999999999999944e-01  1.0000000000000029e+00  1.0000000000000009e+00  1.0000000000000018e+00  1.0000000000000016e+00  1.0000000000000011e+00  1.0000000000000002e+00  1.0000000000000011e+00  1.0000000000000011e+00  1.0000000000000004e+00  1.0000000000000007e+00  9.9999999999999978e-01  1.0000000000000018e+00  1.0000000000000020e+00  1.0000000000000002e+00  1.0000000000000013e+00  1.0000000000000013e+00  1.0000000000000009e+00  1.0000000000000024e+00  1.0000000000000016e+00  1.0000000000000011e+00  1.0000000000000000e+00  1.0000000000000009e+00  1.0000000000000000e+00  1.0000000000000004e+00  1.0000000000000004e+00  1.0000000000000002e+00  1.0000000000000007e+00  1.0000000000000009e+00  1.0000000000000011e+00  1.0000000000000002e+00  1.0000000000000004e+00  1.0000000000000004e+00  1.0000000000000007e+00  1.0000000000000004e+00  1.0000000000000007e+00  1.0000000000000004e+00  1.0000000000000007e+00  1.0000000000000004e+00  1.0000000000000013e+00  1.0000000000000009e+00  1.0000000000000002e+00  1.0000000000000009e+00  1.0000000000000004e+00  1.0000000000000007e+00  1.0000000000000013e+00  1.0000000000000002e+00  1.0000000000000004e+00  1.0000000000000007e+00  1.0000000000000007e+00  1.0000000000000009e+00  1.0000000000000000e+00  1.0000000000000011e+00  1.0000000000000002e+00  1.0000000000000007e+00  1.0000000000000004e+00  1.0000000000000009e+00  1.0000000000000016e+00  9.9999999999999978e-01  1.0000000000000002e+00  1.0000000000000011e+00  1.0000000000000007e+00  1.0000000000000011e+00  1.0000000000000002e+00  1.0000000000000009e+00  9.9999999999999933e-01  1.0000000000000004e+00  1.0000000000000009e+00  1.0000000000000004e+00  1.0000000000000009e+00  1.0000000000000007e+00  9.9999999999999967e-01  9.9999999999999833e-01  1.0000000000000193e+00  9.9999999999996025e-01  9.9999999999986822e-01  1.0000000000008253e+00  1.0000000000010427e+00  9.9999999998826683e-01  9.9999999995068989e-01  9.9999999990349431e-01  9.9999999987677179e-01  9.9999999985813592e-01  9.9999999978324894e-01  9.9999999963485264e-01  9.9999999950890439e-01  9.9999999946363061e-01  9.9999999940613149e-01  9.9999999933901340e-01  9.9999999939168172e-01  9.9999999937015882e-01  9.9999999904418468e-01  9.9999999879834067e-01  9.9999999881926882e-01  9.9999999860106958e-01  9.9999999818418361e-01  9.9999999801307327e-01  9.9999999781397442e-01  9.9999999740715440e-01  9.9999999725792765e-01  9.9999999751725255e-01  9.9999999784597227e-01  9.9999999796670735e-01  9.9999999793324001e-01  9.9999999801384454e-01  9.9999999813289431e-01  9.9999999822650343e-01  9.9999999894530878e-01  9.9999999986575316e-01  9.9999999999042610e-01  1.0000000000508393e+00  9.9999999999522904e-01  1.0000000000302574e+00  1.0000000000544307e+00  1.0000000000326330e+00  1.0000000000912912e+00  1.0000000000921365e+00  1.0000000001532319e+00  1.0000000001888836e+00  1.0000000002877072e+00  1.0000000003747083e+00  1.0000000005396099e+00  1.0000000007323868e+00  1.0000000010306769e+00  1.0000000014089381e+00  1.0000000019733710e+00  1.0000000027084412e+00  1.0000000037665882e+00  1.0000000051919657e+00  1.0000000071850190e+00  1.0000000099115984e+00  1.0000000136827685e+00  1.0000000188564120e+00  1.0000000259783945e+00  1.0000000357436598e+00  1.0000000491376244e+00  1.0000000674649869e+00  1.0000000925159651e+00  1.0000001266855192e+00  1.0000001732093993e+00  1.0000002364076177e+00  1.0000003220511948e+00  1.0000004377902094e+00  1.0000005937268748e+00  1.0000008031083685e+00  1.0000010831994031e+00  1.0000014563255706e+00  1.0000019511425613e+00  1.0000026041289074e+00  1.0000034613894710e+00  1.0000045808681872e+00  1.0000060352905953e+00  1.0000079165133058e+00  1.0000103427978986e+00  1.0000134721643570e+00  1.0000175281788268e+00  1.0000228505134081e+00  1.0000299935549404e+00  1.0000399157822286e+00  1.0000543363565160e+00  1.0000763923223714e+00  1.0001118232458994e+00  1.0001710582504502e+00  1.0002728054452814e+00  1.0004500661278428e+00  1.0007599179659421e+00  1.0012988767599955e+00  1.0022259575527726e+00  1.0037952131829426e+00  1.0063974600678149e+00  1.0106049598168569e+00  1.0171981336352658e+00  1.0271193804600258e+00  1.0412383182504477e+00  1.0594435080941533e+00  1.0741894912869896e+00  1.0408853842783590e+00  9.2252901598339210e-01  9.9784973740382976e-01  1.0263459044932597e+00  1.0130230112333480e+00  9.9633873918937566e-01  1.0724322603149012e+00  9.5649847810591737e-01  9.9494752287601196e-01  1.0144638602869205e+00  1.0126010711088638e+00  1.0194691950043002e+00  1.0417839571543508e+00  1.0257424501294137e+00  9.6834542890065856e-01  1.2190069736655038e+00  1.1343009440395331e+00  1.0050313261822130e+00  1.0896464112770041e+00  1.0079501421677666e+00  9.9101079267090553e-01  7.9694027674896206e-01  5.7360272037220950e-01  1.1991410716152938e-01  -1.0750247050332730e-01  9.8484585581026088e-02  5.2020906137912193e-01  3.8976020908053283e-01  4.8550705999585336e-01  7.0826346220233738e-01  1.0095168410745514e+00  5.6976604791398289e-01  2.2787164263653570e-01  1.0289790480031313e-01  8.1911886274693479e-02  3.1137699782860312e-01  2.3211326081512737e-01  3.1270754926460372e-03  1.2643889396948130e-01  4.0932382691772268e-01  7.0189511658889780e-01  -2.3064637670887581e-01  5.4224223055515358e-02  1.1424410514361624e-01  2.7763609198553901e-01  8.4786174276369669e-02  8.1720800038893565e-02  7.6132328101320756e-01  2.8150857258970180e-01  3.8034493987661608e-02  5.3491722907278216e-01  1.0101826674609296e-01  2.8934235976473731e-02  2.9310331784152133e-01  3.2558732510458804e-01  4.7705121317083926e-01  4.9294746114781351e-01  8.2118545365507789e-01  7.2978253158144413e-01  4.1578837552863490e-01  1.0664614521813214e+00  1.2941940517732802e+00  3.2437344118350797e-01  1.1727455256089514e+00  1.5854720054129809e+00  -3.9174008707375324e-01  1.0732840045861725e-01  1.0109964824552053e+00  -2.9058137142066270e-01  -3.6980556215228312e-02  8.8495805643942604e-01  7.7415973987948705e-01  4.5624314628569397e-02  4.5649192036185471e-01  1.4036341127049059e+00  5.0152982660202372e-01  1.6041865389932913e-01  1.2995576862202327e+00  7.6685713680502809e-01  4.6842391789880272e-01  1.1900981136581879e+00  1.4825353570181010e-01  -5.3364582251632586e-01  -2.4728713068205019e-01  2.7280790584856507e-01  2.7563650940959872e-01  -2.6072797671524178e-01  5.7464511144434050e-01  6.1453716916013479e-01  -5.0825056738644547e-01  2.7797426023015726e-01  7.3173528838709467e-01  4.6255913914929864e-01  1.7817571762216564e-01  -3.6771212292893135e-01  2.3359076648613292e-01  7.8361676905711408e-01  4.5390068005353673e-01  1.2346286220348190e-01  1.0839598385081415e+00  1.9429769916525552e-01  1.1965763139455088e+00  8.2438003872693300e-01  7.8404898431536985e-01  3.0280498612458251e+00  3.7835785154630726e+00  1.4897956489492807e+00  3.4249539147744015e+00  2.4960530406747519e+00  3.8588232414617587e+00  4.0400084657045845e+00  2.6280778184262443e+00  3.5917186474177054e+00  1.5422083125409163e+00  2.1878964813332074e+00  2.1994661026184965e+00  1.9016198822647048e+00  2.0682114590916623e+00  1.4991751530872282e+00  1.9127674808865689e+00  1.1124094987303277e+00  3.5092448680898275e-01  1.2734487792405920e+00  1.0209308531416372e+00  5.7411133772603269e-02  1.3101821250689898e+00  1.1297825945017448e+00  -8.2864200539464639e-02  1.3315094129451519e+00  7.9753649124885395e-01  -2.6565665044086562e-01  4.0644168241777678e-01  8.8290275419184572e-01  9.6059199594282871e-02  2.7030611875659705e-01  1.5569483914170825e+00  7.9676408213472349e-01  1.2614269170139187e+00  3.7789458785458424e-01  1.0174548172545352e+00  1.4032671016617515e+00  9.3010859609734930e-01  1.8342751320587633e-01  1.3287653204987575e+00  9.8305562984338335e-01  1.4584379172310464e+00  1.0991808271901311e+00  1.2398855404799569e+00  1.3122559498278363e+00  1.0814839704963890e+00  1.4909273537217851e+00  1.2735540056926131e+00  1.2616661342543494e+00  1.2836816133234590e+00  1.2337780958608113e+00  1.2870453351378450e+00  1.2760259192003467e+00  1.3494416224865884e+00  1.3169994856114060e+00  1.2605175526783372e+00  1.2281710308364249e+00  1.3313690886469454e+00  1.2596908290034929e+00  1.3239696666793879e+00  1.1889368851266997e+00  1.1992734166256720e+00  1.0335084026750909e+00  8.6338103679741773e-01  -7.4456742493026654e-02  -4.7121542528245561e-02  7.8687230184226090e-02  0.0000000000000000e+00  0.0000000000000000e+00  0.0000000000000000e+00  0.0000000000000000e+00  0.0000000000000000e+00  0.0000000000000000e+00  0.0000000000000000e+00  0.0000000000000000e+00  0.0000000000000000e+00  0.0000000000000000e+00  0.0000000000000000e+00  0.0000000000000000e+00  0.0000000000000000e+00  0.0000000000000000e+00  0.0000000000000000e+00  0.0000000000000000e+00  0.0000000000000000e+00  0.0000000000000000e+00  0.0000000000000000e+00  0.0000000000000000e+00  0.0000000000000000e+00  0.0000000000000000e+00  0.0000000000000000e+00  0.0000000000000000e+00  0.0000000000000000e+00  0.0000000000000000e+00  0.0000000000000000e+00  0.0000000000000000e+00  0.0000000000000000e+00  0.0000000000000000e+00  0.0000000000000000e+00  0.0000000000000000e+00  0.0000000000000000e+00  0.0000000000000000e+00  0.0000000000000000e+00  0.0000000000000000e+00  0.0000000000000000e+00  0.0000000000000000e+00  0.0000000000000000e+00  0.0000000000000000e+00  0.0000000000000000e+00  0.0000000000000000e+00  0.0000000000000000e+00  0.0000000000000000e+00  0.0000000000000000e+00  0.0000000000000000e+00  0.0000000000000000e+00  0.0000000000000000e+00  0.0000000000000000e+00  0.0000000000000000e+00  0.0000000000000000e+00  0.0000000000000000e+00  0.0000000000000000e+00  0.0000000000000000e+00  0.0000000000000000e+00  0.0000000000000000e+00  0.0000000000000000e+00  0.0000000000000000e+00  0.0000000000000000e+00  0.0000000000000000e+00  0.0000000000000000e+00  0.0000000000000000e+00  0.0000000000000000e+00  0.0000000000000000e+00  0.0000000000000000e+00  0.0000000000000000e+00  0.0000000000000000e+00  0.0000000000000000e+00  0.0000000000000000e+00  0.0000000000000000e+00  0.0000000000000000e+00  0.0000000000000000e+00  0.0000000000000000e+00  0.0000000000000000e+00  0.0000000000000000e+00  0.0000000000000000e+00  0.0000000000000000e+00  0.0000000000000000e+00  0.0000000000000000e+00  0.0000000000000000e+00  0.0000000000000000e+00  0.0000000000000000e+00  0.0000000000000000e+00  0.0000000000000000e+00  0.0000000000000000e+00  0.0000000000000000e+00  0.0000000000000000e+00  0.0000000000000000e+00  -2.0768079124336015e-02  -8.3106890403566558e-02  -4.2594434462058968e-02  -7.3033103995488787e-03  8.3205818312842659e-05  5.2371348821992948e-05  -2.0910531688747915e-05  -9.0961397556021773e-06  2.8959090019369514e-05  -3.9449990229205363e-05  4.4911479358406753e-05  -1.9834233175282949e-05  -2.4709121705895360e-06  3.6185788447259968e-05  -5.3752457178214126e-05  7.0491919828966196e-05  -6.0065196638753452e-05  1.9016179741945508e-05  4.6525229489886227e-05  -9.1282046106795070e-05  9.5305546496401636e-05  -7.3646129494588263e-05  3.1833439875642521e-05  5.1558444513306443e-05  -1.4518046267810711e-04  1.6752974269619326e-04  -1.2502539549487520e-04  9.0983266357609776e-05  -3.3937791732578556e-05  -6.5654854221676662e-05  6.7303152599041668e-05  1.6624591114215100e-05  -2.9386515939695145e-05  9.4556438038916196e-05  -1.9264423722380449e-04  8.7466768879762111e-05  -6.4943209799316000e-05  8.0392167209850863e-05  1.7470067418977222e-04  1.1083940808864693e-04  2.4953138199626832e-04  2.0060653207608017e-04  1.8789567458107702e-04  2.6547138695193109e-04  2.0317351772060094e-04  1.8473940592132632e-04  3.1238932562240056e-04  1.3485437110109374e-04  2.7833381380776566e-04  2.5650657066039908e-04  1.1833573171789785e-04  4.7232714665922581e-04  -1.2028529418124439e-04  6.7843373403571306e-04  -1.4149100494675000e-04  5.2836145712689426e-04  9.4816069452168939e-06  6.7606748530626125e-04  -4.0771221186043297e-04  1.0160057315212884e-03  -1.7285011915525072e-04  2.0223102416216606e-04  7.6916054225669881e-04  -1.9886480839366363e-04  4.4602816440066502e-04  6.5112768990764278e-04  -5.1127152193617179e-04  1.6511194464569562e-03  -1.6028033698942039e-03  3.0347061335976554e-03  -3.3340849435024656e-03  5.3762895331030923e-03  -6.1486785773458025e-03  7.8565992459122408e-03  -6.6223831876704104e-03  5.2964643073639441e-03  -9.6803642564642276e-04  -2.3500496409559956e-03  6.6129242088859086e-03  -6.0910629864314786e-03  3.0713993686579035e-03  7.2299652162875466e-03  -1.7750658091279146e-02  2.7488254830754642e-02  -2.9958099331082014e-02  1.9635780386100043e-02  6.5202220635210400e-03  -4.9229970570288231e-02  8.9484804804900370e-02  8.6711983724470990e-03  -2.0884409540078776e-02  -7.3100548051348632e-03  -7.9548253096660984e-05  6.5948235560315353e-05  7.2578368573571281e-06  -2.6263433086752108e-05  1.9353077130734436e-05  -5.7973542647204920e-06  -2.2490791839027212e-05  4.0856044965343423e-05  -4.8717162206713150e-05  3.8373253767206034e-05  -2.0616504886250738e-05  -9.0861167030909987e-06  5.0201685825945848e-05  -8.5948984199630144e-05  8.3172405027499721e-05  -3.6376963102946432e-05  -2.0338214894863074e-05  6.4866839492481700e-05  -1.0729542166266738e-04  1.2773004199927794e-04  -7.4308472850519557e-05  -2.6287221065147857e-05  8.7183272200463757e-05  -1.1741504062577789e-04  1.4980281677774268e-04  -9.9502609639780861e-05  -1.5930805997492369e-05  4.5572171657840689e-05  -5.6583633420621215e-05  8.3335445845733556e-05  3.2240846555808123e-05  -9.8485933311585734e-05  7.0412063500963388e-05  -1.9568228933208303e-04  -4.4954225787070986e-06  -1.1330083681077005e-04  -1.1694098575532450e-04  -2.9886223445012894e-05  -1.3213832758786554e-04  -8.3831190644628709e-05  -4.0302133749911721e-05  -1.4953446036424702e-04  -5.9228542960297074e-05  -5.5385011540296428e-05  -1.7926993281754410e-04  2.7045380647381480e-05  -2.1969376157936432e-04  1.7277322825914208e-05  -1.3323786941026291e-04  -2.0244380422034276e-04  1.5394155302029741e-04  -3.7985375690843283e-04  5.2434457284115196e-05  -1.2083094524408116e-04  -2.0607553018973765e-05  -5.0755545294349340e-04  6.2693338737135763e-04  -8.9478212388391322e-04  3.3240682597868154e-04  -5.5101885059745205e-05  -5.5779728342204089e-04  4.2585992262100439e-04  -5.9231405395845677e-04  1.8583456739316133e-04  -2.6777000289210265e-04  -1.9769960893667815e-04  1.3276290868814283e-04  -7.9677950685721729e-04  1.4299262283653021e-03  -3.4307251142545901e-03  5.2138172304918920e-03  -7.2810800312018793e-03  7.6290506082751413e-03  -6.9186754932054296e-03  3.2799036187162126e-03  1.3056753053128603e-03  -7.1491286779607434e