<?xml version="1.0"?>
<VTKFile type="UnstructuredGrid"  version="0.1"  >
<UnstructuredGrid>
<Piece  NumberOfPoints="21600" NumberOfCells="42542">
<Points>
<DataArray  type="Float64"  NumberOfComponents="3"  format="ascii">0 0 0  0.77 0 0  0.77 0.15 0  0 0.15 0  0.003221757322170014 0 0  0.006443514644340046 0 0  0.009665271966510193 0 0  0.01288702928868034 0 0  0.01610878661085048 0 0  0.01933054393302049 0 0  0.02255230125519027 0 0  0.02577405857735967 0 0  0.02899581589952872 0 0  0.03221757322169801 0 0  0.03543933054386744 0 0  0.03866108786603686 0 0  0.04188284518820627 0 0  0.0451046025103757 0 0  0.04832635983254521 0 0  0.05154811715471607 0 0  0.05476987447688695 0 0  0.05799163179905782 0 0  0.06121338912122846 0 0  0.06443514644339859 0 0  0.06765690376556875 0 0  0.0708786610877389 0 0  0.07410041840990904 0 0  0.0773221757320792 0 0  0.08054393305425039 0 0  0.08376569037642198 0 0  0.0869874476985936 0 0  0.09020920502076518 0 0  0.0934309623429339 0 0  0.0966527196651024 0 0  0.09987447698726967 0 0  0.1030962343094369 0 0  0.1063179916316041 0 0  0.1095397489537714 0 0  0.1127615062759386 0 0  0.1159832635981051 0 0  0.1192050209202709 0 0  0.1224267782424358 0 0  0.1256485355646001 0 0  0.1288702928867644 0 0  0.1320920502089288 0 0  0.1353138075310958 0 0  0.1385355648532632 0 0  0.1417573221754333 0 0  0.1449790794976035 0 0  0.1482008368197736 0 0  0.1514225941419428 0 0  0.1546443514641101 0 0  0.157866108786276 0 0  0.1610878661084403 0 0  0.1643096234306047 0 0  0.167531380752769 0 0  0.1707531380749333 0 0  0.1739748953970977 0 0  0.177196652719262 0 0  0.1804184100414264 0 0  0.1836401673635935 0 0  0.1868619246857611 0 0  0.1900836820079313 0 0  0.1933054393301014 0 0  0.1965271966522716 0 0  0.1997489539744406 0 0  0.2029707112966078 0 0  0.2061924686187736 0 0  0.209414225940938 0 0  0.2126359832631022 0 0  0.2158577405852666 0 0  0.219079497907431 0 0  0.2223012552295953 0 0  0.2255230125517597 0 0  0.2287447698739242 0 0  0.2319665271960914 0 0  0.2351882845182592 0 0  0.2384100418404293 0 0  0.2416317991625994 0 0  0.2448535564847696 0 0  0.2480753138069371 0 0  0.2512970711291014 0 0  0.2545188284512658 0 0  0.2577405857734302 0 0  0.2609623430955986 0 0  0.2641841004177688 0 0  0.2674058577399389 0 0  0.270627615062109 0 0  0.2738493723842792 0 0  0.2770711297064487 0 0  0.280292887028613 0 0  0.2835146443507774 0 0  0.2867364016729417 0 0  0.2899581589951061 0 0  0.2931799163172705 0 0  0.2964016736394348 0 0  0.2996234309615992 0 0  0.3028451882837672 0 0  0.3060669456059373 0 0  0.3092887029281075 0 0  0.3125104602502776 0 0  0.3157322175724478 0 0  0.3189539748946177 0 0  0.322175732216782 0 0  0.3253974895389464 0 0  0.3286192468611107 0 0  0.3318410041832751 0 0  0.3350627615054395 0 0  0.3382845188276038 0 0  0.3415062761497681 0 0  0.3447280334719325 0 0  0.3479497907940968 0 0  0.3511715481162612 0 0  0.3543933054384255 0 0  0.3576150627605947 0 0  0.3608368200827649 0 0  0.364058577404935 0 0  0.3672803347271051 0 0  0.3705020920492753 0 0  0.373723849371444 0 0  0.3769456066936084 0 0  0.3801673640157748 0 0  0.383389121337945 0 0  0.3866108786601209 0 0  0.3898326359823028 0 0  0.3930543933044846 0 0  0.3962761506266662 0 0  0.399497907948848 0 0  0.4027196652710298 0 0  0.4059414225932116 0 0  0.4091631799153934 0 0  0.4123849372375751 0 0  0.4156066945597569 0 0  0.4188284518819387 0 0  0.4220502092041222 0 0  0.4252719665263097 0 0  0.4284937238484974 0 0  0.4317154811706849 0 0  0.4349372384928725 0 0  0.4381589958150601 0 0  0.4413807531372476 0 0  0.4446025104594352 0 0  0.4478242677816181 0 0  0.4510460251037998 0 0  0.4542677824259815 0 0  0.4574895397481634 0 0  0.4607112970703451 0 0  0.4639330543925269 0 0  0.4671548117147087 0 0  0.4703765690368904 0 0  0.4735983263590722 0 0  0.4768200836812568 0 0  0.4800418410034444 0 0  0.483263598325632 0 0  0.4864853556478196 0 0  0.4897071129700028 0 0  0.4929288702921845 0 0  0.4961506276143663 0 0  0.4993723849365479 0 0  0.5025941422587239 0 0  0.5058158995809008 0 0  0.5090376569030826 0 0  0.5122594142252677 0 0  0.515481171547461 0 0  0.5187029288696494 0 0  0.5219246861918312 0 0  0.525146443514013 0 0  0.5283682008361947 0 0  0.5315899581583845 0 0  0.5348117154805778 0 0  0.5380334728027617 0 0  0.5412552301249435 0 0  0.5444769874471141 0 0  0.5476987447692853 0 0  0.550920502091467 0 0  0.5541422594136513 0 0  0.5573640167358447 0 0  0.560585774058034 0 0  0.5638075313802158 0 0  0.5670292887023975 0 0  0.5702510460245793 0 0  0.5734728033467682 0 0  0.5766945606689615 0 0  0.579916317991155 0 0  0.5831380753133483 0 0  0.5863598326355314 0 0  0.5895815899577131 0 0  0.5928033472798949 0 0  0.5960251046020785 0 0  0.5992468619242718 0 0  0.6024686192464619 0 0  0.6056903765686437 0 0  0.6089121338908206 0 0  0.6121338912129908 0 0  0.6153556485351673 0 0  0.618577405857349 0 0  0.6217991631795386 0 0  0.625020920501732 0 0  0.6282426778239159 0 0  0.6314644351460976 0 0  0.6346861924682795 0 0  0.6379079497904622 0 0  0.6411297071126555 0 0  0.6443514644348465 0 0  0.6475732217570283 0 0  0.650794979079206 0 0  0.6540167364013761 0 0  0.6572384937235518 0 0  0.6604602510457335 0 0  0.6636820083679225 0 0  0.6669037656901158 0 0  0.6701255230123004 0 0  0.6733472803344823 0 0  0.6765690376566641 0 0  0.6797907949788459 0 0  0.6830125523010393 0 0  0.686234309623231 0 0  0.6894560669454127 0 0  0.6926778242675914 0 0  0.6958995815897615 0 0  0.6991213389119363 0 0  0.7023430962341181 0 0  0.7055648535563062 0 0  0.7087866108784994 0 0  0.712008368200685 0 0  0.7152301255228668 0 0  0.7184518828450486 0 0  0.7216736401672305 0 0  0.724895397489423 0 0  0.7281171548116155 0 0  0.7313389121337973 0 0  0.7345606694559768 0 0  0.7377824267781468 0 0  0.7410041841003209 0 0  0.7442259414225026 0 0  0.7474476987446899 0 0  0.7506694560668832 0 0  0.7538912133890696 0 0  0.7571129707112513 0 0  0.760334728033433 0 0  0.7635564853556149 0 0  0.7667782426778067 0 0  0.77 0.001685393258423789 0  0.77 0.003370786516847669 0  0.77 0.005056179775271247 0  0.77 0.006741573033694517 0  0.77 0.008426966292117821 0  0.77 0.01011235955054176 0  0.77 0.01179775280896623 0  0.77 0.0134831460673904 0  0.77 0.01516853932581489 0  0.77 0.01685393258423891 0  0.77 0.01853932584266291 0  0.77 0.02022471910108589 0  0.77 0.02191011235950794 0  0.77 0.02359550561792999 0  0.77 0.02528089887635205 0  0.77 0.02696629213477411 0  0.77 0.02865168539319714 0  0.77 0.03033707865161956 0  0.77 0.03202247191004162 0  0.77 0.03370786516846367 0  0.77 0.03539325842688572 0  0.77 0.03707865168530778 0  0.77 0.03876404494372984 0  0.77 0.0404494382021519 0  0.77 0.04213483146057394 0  0.77 0.04382022471899601 0  0.77 0.04550561797741807 0  0.77 0.04719101123584013 0  0.77 0.04887640449426219 0  0.77 0.05056179775268425 0  0.77 0.0522471910111063 0  0.77 0.05393258426952837 0  0.77 0.05561797752795105 0  0.77 0.05730337078637505 0  0.77 0.05898876404479723 0  0.77 0.0606741573032193 0  0.77 0.06235955056164135 0  0.77 0.06404494382006341 0  0.77 0.06573033707848548 0  0.77 0.06741573033690752 0  0.77 0.06910112359532959 0  0.77 0.07078651685375165 0  0.77 0.0724719101121737 0  0.77 0.07415730337059653 0  0.77 0.07584269662902443 0  0.77 0.07752808988745429 0  0.77 0.07921348314588413 0  0.77 0.08089887640431678 0  0.77 0.08258426966274923 0  0.77 0.08426966292117907 0  0.77 0.08595505617960987 0  0.77 0.08764044943804362 0  0.77 0.08932584269647403 0  0.77 0.09101123595490389 0  0.77 0.09269662921333673 0  0.77 0.09438202247176901 0  0.77 0.09606741573019884 0  0.77 0.09775280898862983 0  0.77 0.09943820224706355 0  0.77 0.1011235955054938 0  0.77 0.1028089887639236 0  0.77 0.1044943820223567 0  0.77 0.1061797752807888 0  0.77 0.1078651685392186 0  0.77 0.1095505617976498 0  0.77 0.1112359550560835 0  0.77 0.1129213483145136 0  0.77 0.1146067415729456 0  0.77 0.1162921348313787 0  0.77 0.1179775280898085 0  0.77 0.1196629213482387 0  0.77 0.1213483146066724 0  0.77 0.1230337078651035 0  0.77 0.1247191011235322 0  0.77 0.1264044943819605 0  0.77 0.1280898876403903 0  0.77 0.1297752808988242 0  0.77 0.1314606741572554 0  0.77 0.1331460674156853 0  0.77 0.1348314606741154 0  0.77 0.1365168539325504 0  0.77 0.1382022471909802 0  0.77 0.13988764044941 0  0.77 0.1415730337078443 0  0.77 0.1432584269662752 0  0.77 0.144943820224705 0  0.77 0.1466292134831355 0  0.77 0.1483146067415701 0  0.7667782426778414 0.15 0  0.7635564853556813 0.15 0  0.7603347280335111 0.15 0  0.757112970711341 0.15 0  0.7538912133891708 0.15 0  0.7506694560670005 0.15 0  0.7474476987448303 0.15 0  0.7442259414226602 0.15 0  0.74100418410049 0.15 0  0.7377824267783197 0.15 0  0.7345606694561496 0.15 0  0.7313389121339794 0.15 0  0.7281171548118092 0.15 0  0.724895397489639 0.15 0  0.7216736401674688 0.15 0  0.7184518828452986 0.15 0  0.7152301255231284 0.15 0  0.7120083682009583 0.15 0  0.708786610878788 0.15 0  0.7055648535566178 0.15 0  0.7023430962344477 0.15 0  0.6991213389122775 0.15 0  0.6958995815901072 0.15 0  0.692677824267937 0.15 0  0.6894560669457669 0.15 0  0.6862343096235967 0.15 0  0.6830125523014264 0.15 0  0.6797907949792563 0.15 0  0.6765690376570861 0.15 0  0.6733472803349159 0.15 0  0.6701255230127456 0.15 0  0.6669037656905755 0.15 0  0.6636820083684053 0.15 0  0.6604602510462351 0.15 0  0.657238493724065 0.15 0  0.6540167364018947 0.15 0  0.6507949790797245 0.15 0  0.6475732217575543 0.15 0  0.644351464435384 0.15 0  0.6411297071132231 0.15 0  0.6379079497910645 0.15 0  0.634686192468906 0.15 0  0.6314644351467468 0.15 0  0.6282426778245765 0.15 0  0.6250209205024085 0.15 0  0.62179916318025 0.15 0  0.6185774058580914 0.15 0  0.6153556485359328 0.15 0  0.6121338912137689 0.15 0  0.6089121338915987 0.15 0  0.6056903765694354 0.15 0  0.6024686192472768 0.15 0  0.5992468619251182 0.15 0  0.5960251046029597 0.15 0  0.5928033472807912 0.15 0  0.589581589958621 0.15 0  0.5863598326364508 0.15 0  0.5831380753142792 0.15 0  0.5799163179920974 0.15 0  0.57669456
[...]
<PointData  Scalars="concentration"> 
<DataArray  type="Float64"  Name="concentration"  format="ascii">0.0000000000000000e+00  1.0000000000000009e+00  9.9999999999921008e-01  0.0000000000000000e+00  7.3755264127672387e-02  -1.0441758050297978e-02  -1.2200454838074136e-01  5.8341463842686558e-01  8.6021940291120791e-01  8.5790779069181611e-01  8.6339490130071206e-01  8.6356418910562061e-01  8.6338262296308232e-01  8.6299525371172658e-01  8.6328068764497301e-01  8.6318064981863885e-01  8.6354528465356284e-01  8.6373545455873257e-01  8.6398796927156929e-01  8.6440361438185209e-01  8.6457623626832070e-01  8.6509331950238266e-01  8.6527770297094841e-01  8.6580749117176037e-01  8.6607866269400735e-01  8.6656515076220375e-01  8.6695784320646629e-01  8.6743363262965734e-01  8.6787879836532533e-01  8.6842524830414447e-01  8.6892639560496276e-01  8.6946866650446519e-01  8.7011919825983441e-01  8.7069617409680500e-01  8.7131825288298670e-01  8.7212464790650202e-01  8.7276658295588250e-01  8.7346060619616617e-01  8.7449861811237850e-01  8.7515840456401461e-01  8.7590544580535235e-01  8.7730027325903814e-01  8.7788179628132301e-01  8.7858840126776550e-01  8.8064981409232079e-01  8.8087825618271454e-01  8.8131477171800998e-01  8.8480189416933264e-01  8.8398989108030712e-01  8.8341353668210421e-01  8.9056468527867294e-01  8.8684854919027756e-01  8.8204455516862690e-01  9.0136183406186077e-01  8.8522563908496832e-01  8.8890657569686016e-01  8.6088011543853249e-01  6.4011573401576938e-01  8.5502656625544637e-01  9.4959159655677516e-01  9.8644795330018265e-01  9.9943481385869293e-01  1.0031314915853646e+00  1.0034925426290275e+00  1.0028564989997388e+00  1.0020808528078777e+00  1.0014276468144454e+00  1.0009479695874166e+00  1.0006147229347391e+00  1.0003943397231696e+00  1.0002493623772988e+00  1.0001576664103944e+00  1.0000983067097613e+00  1.0000618400885826e+00  1.0000381560590397e+00  1.0000240228085746e+00  1.0000146616863992e+00  1.0000092921602315e+00  1.0000055878321641e+00  1.0000035929036406e+00  1.0000021108490997e+00  1.0000013942736317e+00  1.0000007878259887e+00  1.0000005458708479e+00  1.0000002884247159e+00  1.0000002172996001e+00  1.0000001018966405e+00  1.0000000891784424e+00  1.0000000331061931e+00  1.0000000389217458e+00  1.0000000078806619e+00  1.0000000193796508e+00  9.9999999837694997e-01  1.0000000120853838e+00  9.9999999458341404e-01  1.0000000093971233e+00  9.9999999328089606e-01  1.0000000079363416e+00  9.9999999354092017e-01  1.0000000063473011e+00  9.9999999486454805e-01  1.0000000044336725e+00  9.9999999665318762e-01  1.0000000025256706e+00  9.9999999836185516e-01  1.0000000009301409e+00  9.9999999974029130e-01  9.9999999971113518e-01  1.0000000007694831e+00  9.9999999886885438e-01  1.0000000013625876e+00  9.9999999859292543e-01  1.0000000012334274e+00  9.9999999918300131e-01  1.0000000001775569e+00  1.0000000006269565e+00  9.9999999850604160e-01  1.0000000022957776e+00  9.9999999710167420e-01  1.0000000031889502e+00  9.9999999690264085e-01  1.0000000026103819e+00  9.9999999822660057e-01  1.0000000006810792e+00  1.0000000005414091e+00  9.9999999823924013e-01  1.0000000028571032e+00  9.9999999625996294e-01  1.0000000043571813e+00  9.9999999530526162e-01  1.0000000047718121e+00  9.9999999536924289e-01  1.0000000043264166e+00  9.9999999608376022e-01  1.0000000034528018e+00  9.9999999702096787e-01  1.0000000025262086e+00  9.9999999788601091e-01  1.0000000017520361e+00  9.9999999855756638e-01  1.0000000011825647e+00  9.9999999903223835e-01  1.0000000007934708e+00  9.9999999934352557e-01  1.0000000005550873e+00  9.9999999951166063e-01  1.0000000004545913e+00  9.9999999954993357e-01  1.0000000004680056e+00  9.9999999950124885e-01  1.0000000005309668e+00  9.9999999944645257e-01  1.0000000005577883e+00  9.9999999946100482e-01  1.0000000004971816e+00  9.9999999956340291e-01  1.0000000003643581e+00  9.9999999971141551e-01  1.0000000002166634e+00  9.9999999984601196e-01  1.0000000001034473e+00  9.9999999993443833e-01  1.0000000000391176e+00  9.9999999997809141e-01  1.0000000000114877e+00  9.9999999999438782e-01  1.0000000000025477e+00  9.9999999999893618e-01  1.0000000000004088e+00  9.9999999999985878e-01  1.0000000000000453e+00  9.9999999999998934e-01  1.0000000000000033e+00  1.0000000000000024e+00  9.9999999999999911e-01  1.0000000000000009e+00  1.0000000000000031e+00  1.0000000000000018e+00  1.0000000000000011e+00  1.0000000000000024e+00  1.0000000000000000e+00  1.0000000000000002e+00  1.0000000000000016e+00  9.9999999999999856e-01  1.0000000000000060e+00  9.9999999999999978e-01  9.9999999999999933e-01  1.0000000000000064e+00  9.9999999999999745e-01  9.9999999999999833e-01  1.0000000000000004e+00  9.9999999999999933e-01  1.0000000000000011e+00  1.0000000000000009e+00  1.0000000000000013e+00  1.0000000000000007e+00  1.0000000000000027e+00  1.0000000000000011e+00  1.0000000000000002e+00  1.0000000000000024e+00  1.0000000000000029e+00  1.0000000000000004e+00  1.0000000000000009e+00  1.0000000000000027e+00  1.0000000000000020e+00  9.9999999999999933e-01  1.0000000000000029e+00  1.0000000000000011e+00  1.0000000000000002e+00  1.0000000000000009e+00  1.0000000000000004e+00  1.0000000000000007e+00  1.0000000000000016e+00  1.0000000000000004e+00  1.0000000000000011e+00  1.0000000000000018e+00  1.0000000000000018e+00  1.0000000000000018e+00  1.0000000000000009e+00  1.0000000000000004e+00  1.0000000000000024e+00  1.0000000000000011e+00  1.0000000000000011e+00  1.0000000000000007e+00  1.0000000000000016e+00  1.0000000000000040e+00  1.0000000000000007e+00  1.0000000000000007e+00  1.0000000000000029e+00  1.0000000000000000e+00  9.9999999999999978e-01  1.0000000000000018e+00  1.0000000000000020e+00  1.0000000000000016e+00  1.0000000000000038e+00  1.0000000000000007e+00  1.0000000000000013e+00  1.0000000000000016e+00  1.0000000000000011e+00  1.0000000000000020e+00  1.0000000000000013e+00  1.0000000000000007e+00  1.0000000000000004e+00  1.0000000000000007e+00  1.0000000000000007e+00  1.0000000000000002e+00  1.0000000000000011e+00  1.0000000000000002e+00  1.0000000000000004e+00  1.0000000000000007e+00  1.0000000000000002e+00  1.0000000000000007e+00  1.0000000000000007e+00  9.9999999999999989e-01  1.0000000000000007e+00  1.0000000000000007e+00  1.0000000000000004e+00  1.0000000000000004e+00  1.0000000000000002e+00  1.0000000000000007e+00  1.0000000000000007e+00  1.0000000000000007e+00  1.0000000000000004e+00  1.0000000000000004e+00  1.0000000000000007e+00  1.0000000000000000e+00  1.0000000000000018e+00  1.0000000000000009e+00  1.0000000000000009e+00  1.0000000000000004e+00  1.0000000000000009e+00  1.0000000000000000e+00  1.0000000000000007e+00  1.0000000000000007e+00  1.0000000000000004e+00  1.0000000000000000e+00  1.0000000000000011e+00  9.9999999999999978e-01  1.0000000000000013e+00  1.0000000000000004e+00  1.0000000000000007e+00  1.0000000000000004e+00  1.0000000000000007e+00  1.0000000000000004e+00  1.0000000000000004e+00  1.0000000000000002e+00  1.0000000000000022e+00  1.0000000000000007e+00  1.0000000000000009e+00  9.9999999999999922e-01  1.0000000000000007e+00  1.0000000000000009e+00  1.0000000000000004e+00  1.0000000000000004e+00  1.0000000000000007e+00  1.0000000000000004e+00  9.9999999999999956e-01  1.0000000000000102e+00  9.9999999999997624e-01  9.9999999999993694e-01  1.0000000000004861e+00  1.0000000000004952e+00  9.9999999999232936e-01  9.9999999996753708e-01  9.9999999993208211e-01  9.9999999990213850e-01  9.9999999988378407e-01  9.9999999986729282e-01  9.9999999983141374e-01  9.9999999977001985e-01  9.9999999972124265e-01  9.9999999970890474e-01  9.9999999970044973e-01  9.9999999968999631e-01  9.9999999968377595e-01  9.9999999962325425e-01  9.9999999951602037e-01  9.9999999947359652e-01  9.9999999948149942e-01  9.9999999941036044e-01  9.9999999927493410e-01  9.9999999920101312e-01  9.9999999920872995e-01  9.9999999923980532e-01  9.9999999928596761e-01  9.9999999935644757e-01  9.9999999943579676e-01  9.9999999955355356e-01  9.9999999975922216e-01  9.9999999998038214e-01  9.9999999999724121e-01  1.0000000000104281e+00  9.9999999999509448e-01  1.0000000000057121e+00  1.0000000000064535e+00  1.0000000000024201e+00  1.0000000000127578e+00  1.0000000000093656e+00  1.0000000000207745e+00  1.0000000000212601e+00  1.0000000000387519e+00  1.0000000000449942e+00  1.0000000000721745e+00  1.0000000000926799e+00  1.0000000001377765e+00  1.0000000001852145e+00  1.0000000002657967e+00  1.0000000003658294e+00  1.0000000005147791e+00  1.0000000007152159e+00  1.0000000009991186e+00  1.0000000013890962e+00  1.0000000019347453e+00  1.0000000026869507e+00  1.0000000037322414e+00  1.0000000051750288e+00  1.0000000071694048e+00  1.0000000099183108e+00  1.0000000137036729e+00  1.0000000189044662e+00  1.0000000260383572e+00  1.0000000357995846e+00  1.0000000491258225e+00  1.0000000672671190e+00  1.0000000918895287e+00  1.0000001251921156e+00  1.0000001700606704e+00  1.0000002302448996e+00  1.0000003105686719e+00  1.0000004171583303e+00  1.0000005576798539e+00  1.0000007415516559e+00  1.0000009800931537e+00  1.0000012865455317e+00  1.0000016758998151e+00  1.0000021644871715e+00  1.0000027693935025e+00  1.0000035080392471e+00  1.0000043989134837e+00  1.0000054658162743e+00  1.0000067506849761e+00  1.0000083452876247e+00  1.0000104616942604e+00  1.0000135787248634e+00  1.0000187317634177e+00  1.0000280645997472e+00  1.0000458464536224e+00  1.0000802918075336e+00  1.0001467255620804e+00  1.0002729300129156e+00  1.0005078939106757e+00  1.0009355997399367e+00  1.0016957252739178e+00  1.0030126403575297e+00  1.0052315354294381e+00  1.0088532356287847e+00  1.0145411606771053e+00  1.0230012254645862e+00  1.0341624187723177e+00  1.0432848919161988e+00  1.0340353469140524e+00  1.0005963576978318e+00  9.7929316509292574e-01  9.8279545072961527e-01  1.0392558243824384e+00  1.0278715162711780e+00  9.9223386591638663e-01  9.7992416611497479e-01  1.0118482606750472e+00  1.0263662218694629e+00  9.8461442644934583e-01  1.0702288832143421e+00  9.7615459350481537e-01  1.0182032430859083e+00  1.1641681200459404e+00  1.1021656896330430e+00  9.9444416637401289e-01  1.0046022039827134e+00  9.3639656269138538e-01  7.4379631503094301e-01  5.0869333679886208e-01  2.8439173128798484e-01  1.1934301586154963e-01  3.2827132395438996e-01  4.7973254701657220e-01  4.6090142625138653e-01  4.7716865176944590e-01  6.8220742428350389e-01  6.3720221407152045e-01  6.1753993746198776e-01  2.5603689246917849e-01  3.3194530392085325e-01  -9.5753357994118460e-01  -5.8772106843380776e+00  -9.2588429778427148e+00  -1.2502660804178570e+01  -1.1043439556274905e+01  -1.2951075454464402e+01  -1.3613924903076882e+01  -1.3158915231807656e+01  -1.5132396994692279e+01  -1.5283010502120295e+01  -1.3897578601919484e+01  -1.6406488768120301e+01  -1.4042082978026885e+01  -9.2879246203240768e+00  -1.5177377986334552e+01  -1.6521655135463025e+01  -9.3839467845819744e+00  -9.6947218450610482e+00  -9.1455439075289817e+00  -2.0340611190953392e-01  -2.7116537458699446e+00  -5.1021259269405546e+00  1.9295918644948657e+00  -6.2448983617414755e-01  -2.4853636616668671e+00  5.1328779481975551e-01  9.0618879326665513e-01  -7.1221156401723540e-01  6.0004397309205915e-01  1.0440649333290017e+00  5.1497235621714077e-01  4.9815646369245314e-01  8.4210272729995828e-01  7.2119205113206808e-01  2.6785725049722753e-01  4.2242689270077771e-01  9.2100559730951093e-01  4.7317391934850522e-01  2.7947072074943635e-01  1.2793476464444935e+00  5.8569635661839237e-01  -2.7195913066608124e-01  7.3158508769417441e-01  7.2168796059630813e-01  -1.5594203484785957e-02  7.2377667949874958e-01  1.1082914116633511e+00  -1.0362143358326924e-01  -8.4818573410735165e-01  -2.5609943905375798e-01  -1.8484139035109609e-01  -7.4034278612389892e-01  4.1057852430634295e-01  9.0405187294273659e-01  4.9241699864448651e-01  4.1712660115850914e-01  3.9488858237992291e-01  -2.5575062354367691e-02  7.5165226093217730e-01  -1.3654827316233886e-01  -5.7110030640217058e-01  5.5667511354368773e-02  5.4322969003610688e-01  1.6210491760007426e-01  7.6106781100171528e-01  -3.8310704203544715e-01  3.7149298364412826e-03  3.0893328859709551e-01  5.6163634289187553e-02  5.2566613441705712e-01  1.3460693817562064e+00  9.1754845080879499e-01  2.6601204966252965e+00  5.7346029603985871e+00  5.2303781723240146e+00  6.9702123433548726e+00  5.6241319093973781e+00  4.2553212810992820e+00  3.7845144466833878e+00  2.5142649121155158e+00  2.9675129539181890e+00  3.3120386601316776e+00  1.8045240059535976e+00  1.9232692855908511e+00  2.6046581794733568e+00  6.7924170712522558e-01  4.0799811837325184e-01  1.3574847967083261e+00  8.6993526348446948e-01  3.9531059071917972e-02  1.2409837887323731e+00  8.5728058406558261e-01  -3.9192241103711933e-01  5.7506201842838756e-01  6.2633906928538419e-01  -2.1672391713199171e-01  3.4107435690849602e-01  9.3659142142863183e-01  8.9828567432769610e-02  2.8320604185596537e-01  1.5498100549745251e+00  8.9151249276995692e-01  1.1993627275675325e+00  4.2205013177506812e-01  9.7652295244550524e-01  1.4071106583120898e+00  9.4146104377050166e-01  1.7952447880424746e-01  1.3254214810789200e+00  1.0057192047039969e+00  1.4303547672544266e+00  1.1188368525251038e+00  1.2291521137162538e+00  1.3149561271966210e+00  1.0833788419405075e+00  1.4844038502375598e+00  1.2770921261759964e+00  1.2594410666320013e+00  1.2813286087318172e+00  1.2378385148155548e+00  1.2809186101920023e+00  1.2801330808525646e+00  1.3458780941958897e+00  1.3181207578929754e+00  1.2594922598924749e+00  1.2280256844370363e+00  1.3312307419185601e+00  1.2590149957895582e+00  1.3241305295285395e+00  1.1884557485036111e+00  1.1994334035199439e+00  1.0333294310099446e+00  8.6377864409925043e-01  -7.5428850444689929e-02  -4.6037871125000331e-02  7.6979986674280937e-02  0.0000000000000000e+00  0.0000000000000000e+00  0.0000000000000000e+00  0.0000000000000000e+00  0.0000000000000000e+00  0.0000000000000000e+00  0.0000000000000000e+00  0.0000000000000000e+00  0.0000000000000000e+00  0.0000000000000000e+00  0.0000000000000000e+00  0.0000000000000000e+00  0.0000000000000000e+00  0.0000000000000000e+00  0.0000000000000000e+00  0.0000000000000000e+00  0.0000000000000000e+00  0.0000000000000000e+00  0.0000000000000000e+00  0.0000000000000000e+00  0.0000000000000000e+00  0.0000000000000000e+00  0.0000000000000000e+00  0.0000000000000000e+00  0.0000000000000000e+00  0.0000000000000000e+00  0.0000000000000000e+00  0.0000000000000000e+00  0.0000000000000000e+00  0.0000000000000000e+00  0.0000000000000000e+00  0.0000000000000000e+00  0.0000000000000000e+00  0.0000000000000000e+00  0.0000000000000000e+00  0.0000000000000000e+00  0.0000000000000000e+00  0.0000000000000000e+00  0.0000000000000000e+00  0.0000000000000000e+00  0.0000000000000000e+00  0.0000000000000000e+00  0.0000000000000000e+00  0.0000000000000000e+00  0.0000000000000000e+00  0.0000000000000000e+00  0.0000000000000000e+00  0.0000000000000000e+00  0.0000000000000000e+00  0.0000000000000000e+00  0.0000000000000000e+00  0.0000000000000000e+00  0.0000000000000000e+00  0.0000000000000000e+00  0.0000000000000000e+00  0.0000000000000000e+00  0.0000000000000000e+00  0.0000000000000000e+00  0.0000000000000000e+00  0.0000000000000000e+00  0.0000000000000000e+00  0.0000000000000000e+00  0.0000000000000000e+00  0.0000000000000000e+00  0.0000000000000000e+00  0.0000000000000000e+00  0.0000000000000000e+00  0.0000000000000000e+00  0.0000000000000000e+00  0.0000000000000000e+00  0.0000000000000000e+00  0.0000000000000000e+00  0.0000000000000000e+00  0.0000000000000000e+00  0.0000000000000000e+00  0.0000000000000000e+00  0.0000000000000000e+00  0.0000000000000000e+00  0.0000000000000000e+00  0.0000000000000000e+00  0.0000000000000000e+00  0.0000000000000000e+00  0.0000000000000000e+00  0.0000000000000000e+00  0.0000000000000000e+00  0.0000000000000000e+00  0.0000000000000000e+00  0.0000000000000000e+00  -2.0784477207563355e-02  -8.3112268505262113e-02  -4.2584008143859979e-02  -7.2914525833749685e-03  9.7251365104162419e-05  3.7136402759774403e-05  -1.8014829626568421e-06  -3.0184551097684442e-05  3.5396711297894470e-05  -4.2926437733618750e-05  3.5875195423943756e-05  -1.3939977816984700e-05  -1.1162659077310722e-05  3.9151793064740674e-05  -5.2120222925117299e-05  5.4712826074344956e-05  -4.2828789839206670e-05  1.3471294932684898e-05  3.2735693900581062e-05  -7.2451811352564616e-05  7.9552091615620174e-05  -5.6852011290202142e-05  2.0346259845588969e-05  3.8968634038932458e-05  -1.1755392980985062e-04  1.5328488943223392e-04  -1.1962525018703260e-04  8.1154474878191108e-05  -3.3152893765585857e-05  -6.7326867114200577e-05  7.7949909855751784e-05  1.5496240595939343e-05  -1.5502594395790385e-05  1.3918369565352277e-04  -2.5028319284385120e-04  2.4907829035841801e-05  -2.6529330918473689e-04  -2.5942289060573080e-04  -1.4017612418897231e-04  -3.7785614266325896e-04  -1.9974922154131114e-04  -2.4944238844834798e-04  -3.4838595235752020e-04  -1.7729009027861938e-04  -3.3075097691089966e-04  -2.7988320912250141e-04  -1.9692525974033910e-04  -4.2315413899475296e-04  -1.2008099026157695e-04  -3.6347946622261520e-04  -4.1681007153679595e-04  1.0524317563453617e-04  -8.6229499899721784e-04  2.1364497736809239e-04  -5.6665982396403021e-04  -2.5319392115011682e-04  -4.2841003290268985e-04  1.5536557035199927e-04  -1.1538222389292888e-03  5.3267430869233950e-04  -7.6539566406395756e-04  -5.3290983159902405e-04  2.9239292273057260e-04  -9.6528623489973528e-04  -1.8899351204141709e-04  1.0440928125147093e-04  -1.3900792901594143e-03  1.0333491690105066e-03  -2.1993663139020275e-03  2.1132108000304645e-03  -4.0522152906766430e-03  4.7085482778470682e-03  -7.0103964505250811e-03  7.0227474417519200e-03  -7.4344305571628893e-03  4.2669588578800131e-03  -1.5769677626931813e-03  -3.2280855808030271e-03  5.2017699697395519e-03  -6.9043568921118691e-03  2.1348425835151651e-03  5.9303432787897918e-03  -1.8820638066993675e-02  2.7166613172775429e-02  -3.1035477030556494e-02  2.0013598394079461e-02  6.3469280940666702e-03  -4.8750697589543639e-02  8.9489253745041325e-02  8.6426302934010640e-03  -2.0875864882883809e-02  -7.3091909105265406e-03  -6.7222079745648874e-05  6.1685320398440502e-05  6.6549888409462374e-06  -1.2067974063181378e-05  2.3142671310902339e-06  1.2111155886505979e-05  -3.2273790241680504e-05  4.4132572847749817e-05  -4.5679156808282539e-05  3.0828789013540135e-05  -7.1735639575848710e-06  -1.8128183372701423e-05  4.3527286666805696e-05  -6.4794268862094687e-05  6.5398661489775187e-05  -3.2611180742231101e-05  -1.6859457732418360e-05  5.5593989204338499e-05  -8.3221744710741772e-05  1.0039455229912884e-04  -6.9810456036103422e-05  -1.3626029188188934e-05  7.7936730581016440e-05  -1.0662006242602155e-04  1.4074189975886808e-04  -9.9885165380223252e-05  -2.0195901317051260e-05  4.4733612134130948e-05  -8.7690366735178666e-05  1.1747943994589444e-04  9.3411404749551140e-05  -1.4334727286795714e-05  2.7876544311948874e-04  -6.0745615445458623e-05  1.9647134463701401e-04  1.1791916727101802e-04  1.0857940218386682e-05  2.1521245528933772e-04  3.8062279925130949e-05  9.9434150266550881e-05  1.7576330182729312e-04  6.6506017872935724e-06  2.0203693151320826e-04  6.7752067938829975e-05  4.6737267401071856e-05  3.1287533336609569e-04  -1.7906623471532215e-04  3.4644051477768781e-04  1.2500532535079868e-04  -1.9335181194520310e-04  5.7274715979765381e-04  -1.9123398693060258e-04  1.2535530731183411e-04  2.9425908965368400e-04  1.4161962217993924e-04  -3.4869853503477943e-04  1.0024089112030143e-03  -7.4550304024310931e-04  5.8767111236037036e-04  2.9411275639995576e-04  -4.6370123430501740e-04  8.3227278611275812e-04  -3.1258867954800726e-04  2.9951115751261523e-04  1.7622960840791270e-04  1.0486793695115666e-04  3.0608806676517167e-04  -4.2191914619128134e-04  1.7813893582647817e-03  -3.1530630377094066e-03  5.6377336787550546e-03  -7.0289373442450273e-03  7.8487652379670963e-03  -6.1963710238298036e-03  3.5987172919480382e-03  1.5004352128309779