<?xml version="1.0"?>
<VTKFile type="UnstructuredGrid"  version="0.1"  >
<UnstructuredGrid>
<Piece  NumberOfPoints="21600" NumberOfCells="42542">
<Points>
<DataArray  type="Float64"  NumberOfComponents="3"  format="ascii">0 0 0  0.77 0 0  0.77 0.15 0  0 0.15 0  0.003221757322170014 0 0  0.006443514644340046 0 0  0.009665271966510193 0 0  0.01288702928868034 0 0  0.01610878661085048 0 0  0.01933054393302049 0 0  0.02255230125519027 0 0  0.02577405857735967 0 0  0.02899581589952872 0 0  0.03221757322169801 0 0  0.03543933054386744 0 0  0.03866108786603686 0 0  0.04188284518820627 0 0  0.0451046025103757 0 0  0.04832635983254521 0 0  0.05154811715471607 0 0  0.05476987447688695 0 0  0.05799163179905782 0 0  0.06121338912122846 0 0  0.06443514644339859 0 0  0.06765690376556875 0 0  0.0708786610877389 0 0  0.07410041840990904 0 0  0.0773221757320792 0 0  0.08054393305425039 0 0  0.08376569037642198 0 0  0.0869874476985936 0 0  0.09020920502076518 0 0  0.0934309623429339 0 0  0.0966527196651024 0 0  0.09987447698726967 0 0  0.1030962343094369 0 0  0.1063179916316041 0 0  0.1095397489537714 0 0  0.1127615062759386 0 0  0.1159832635981051 0 0  0.1192050209202709 0 0  0.1224267782424358 0 0  0.1256485355646001 0 0  0.1288702928867644 0 0  0.1320920502089288 0 0  0.1353138075310958 0 0  0.1385355648532632 0 0  0.1417573221754333 0 0  0.1449790794976035 0 0  0.1482008368197736 0 0  0.1514225941419428 0 0  0.1546443514641101 0 0  0.157866108786276 0 0  0.1610878661084403 0 0  0.1643096234306047 0 0  0.167531380752769 0 0  0.1707531380749333 0 0  0.1739748953970977 0 0  0.177196652719262 0 0  0.1804184100414264 0 0  0.1836401673635935 0 0  0.1868619246857611 0 0  0.1900836820079313 0 0  0.1933054393301014 0 0  0.1965271966522716 0 0  0.1997489539744406 0 0  0.2029707112966078 0 0  0.2061924686187736 0 0  0.209414225940938 0 0  0.2126359832631022 0 0  0.2158577405852666 0 0  0.219079497907431 0 0  0.2223012552295953 0 0  0.2255230125517597 0 0  0.2287447698739242 0 0  0.2319665271960914 0 0  0.2351882845182592 0 0  0.2384100418404293 0 0  0.2416317991625994 0 0  0.2448535564847696 0 0  0.2480753138069371 0 0  0.2512970711291014 0 0  0.2545188284512658 0 0  0.2577405857734302 0 0  0.2609623430955986 0 0  0.2641841004177688 0 0  0.2674058577399389 0 0  0.270627615062109 0 0  0.2738493723842792 0 0  0.2770711297064487 0 0  0.280292887028613 0 0  0.2835146443507774 0 0  0.2867364016729417 0 0  0.2899581589951061 0 0  0.2931799163172705 0 0  0.2964016736394348 0 0  0.2996234309615992 0 0  0.3028451882837672 0 0  0.3060669456059373 0 0  0.3092887029281075 0 0  0.3125104602502776 0 0  0.3157322175724478 0 0  0.3189539748946177 0 0  0.322175732216782 0 0  0.3253974895389464 0 0  0.3286192468611107 0 0  0.3318410041832751 0 0  0.3350627615054395 0 0  0.3382845188276038 0 0  0.3415062761497681 0 0  0.3447280334719325 0 0  0.3479497907940968 0 0  0.3511715481162612 0 0  0.3543933054384255 0 0  0.3576150627605947 0 0  0.3608368200827649 0 0  0.364058577404935 0 0  0.3672803347271051 0 0  0.3705020920492753 0 0  0.373723849371444 0 0  0.3769456066936084 0 0  0.3801673640157748 0 0  0.383389121337945 0 0  0.3866108786601209 0 0  0.3898326359823028 0 0  0.3930543933044846 0 0  0.3962761506266662 0 0  0.399497907948848 0 0  0.4027196652710298 0 0  0.4059414225932116 0 0  0.4091631799153934 0 0  0.4123849372375751 0 0  0.4156066945597569 0 0  0.4188284518819387 0 0  0.4220502092041222 0 0  0.4252719665263097 0 0  0.4284937238484974 0 0  0.4317154811706849 0 0  0.4349372384928725 0 0  0.4381589958150601 0 0  0.4413807531372476 0 0  0.4446025104594352 0 0  0.4478242677816181 0 0  0.4510460251037998 0 0  0.4542677824259815 0 0  0.4574895397481634 0 0  0.4607112970703451 0 0  0.4639330543925269 0 0  0.4671548117147087 0 0  0.4703765690368904 0 0  0.4735983263590722 0 0  0.4768200836812568 0 0  0.4800418410034444 0 0  0.483263598325632 0 0  0.4864853556478196 0 0  0.4897071129700028 0 0  0.4929288702921845 0 0  0.4961506276143663 0 0  0.4993723849365479 0 0  0.5025941422587239 0 0  0.5058158995809008 0 0  0.5090376569030826 0 0  0.5122594142252677 0 0  0.515481171547461 0 0  0.5187029288696494 0 0  0.5219246861918312 0 0  0.525146443514013 0 0  0.5283682008361947 0 0  0.5315899581583845 0 0  0.5348117154805778 0 0  0.5380334728027617 0 0  0.5412552301249435 0 0  0.5444769874471141 0 0  0.5476987447692853 0 0  0.550920502091467 0 0  0.5541422594136513 0 0  0.5573640167358447 0 0  0.560585774058034 0 0  0.5638075313802158 0 0  0.5670292887023975 0 0  0.5702510460245793 0 0  0.5734728033467682 0 0  0.5766945606689615 0 0  0.579916317991155 0 0  0.5831380753133483 0 0  0.5863598326355314 0 0  0.5895815899577131 0 0  0.5928033472798949 0 0  0.5960251046020785 0 0  0.5992468619242718 0 0  0.6024686192464619 0 0  0.6056903765686437 0 0  0.6089121338908206 0 0  0.6121338912129908 0 0  0.6153556485351673 0 0  0.618577405857349 0 0  0.6217991631795386 0 0  0.625020920501732 0 0  0.6282426778239159 0 0  0.6314644351460976 0 0  0.6346861924682795 0 0  0.6379079497904622 0 0  0.6411297071126555 0 0  0.6443514644348465 0 0  0.6475732217570283 0 0  0.650794979079206 0 0  0.6540167364013761 0 0  0.6572384937235518 0 0  0.6604602510457335 0 0  0.6636820083679225 0 0  0.6669037656901158 0 0  0.6701255230123004 0 0  0.6733472803344823 0 0  0.6765690376566641 0 0  0.6797907949788459 0 0  0.6830125523010393 0 0  0.686234309623231 0 0  0.6894560669454127 0 0  0.6926778242675914 0 0  0.6958995815897615 0 0  0.6991213389119363 0 0  0.7023430962341181 0 0  0.7055648535563062 0 0  0.7087866108784994 0 0  0.712008368200685 0 0  0.7152301255228668 0 0  0.7184518828450486 0 0  0.7216736401672305 0 0  0.724895397489423 0 0  0.7281171548116155 0 0  0.7313389121337973 0 0  0.7345606694559768 0 0  0.7377824267781468 0 0  0.7410041841003209 0 0  0.7442259414225026 0 0  0.7474476987446899 0 0  0.7506694560668832 0 0  0.7538912133890696 0 0  0.7571129707112513 0 0  0.760334728033433 0 0  0.7635564853556149 0 0  0.7667782426778067 0 0  0.77 0.001685393258423789 0  0.77 0.003370786516847669 0  0.77 0.005056179775271247 0  0.77 0.006741573033694517 0  0.77 0.008426966292117821 0  0.77 0.01011235955054176 0  0.77 0.01179775280896623 0  0.77 0.0134831460673904 0  0.77 0.01516853932581489 0  0.77 0.01685393258423891 0  0.77 0.01853932584266291 0  0.77 0.02022471910108589 0  0.77 0.02191011235950794 0  0.77 0.02359550561792999 0  0.77 0.02528089887635205 0  0.77 0.02696629213477411 0  0.77 0.02865168539319714 0  0.77 0.03033707865161956 0  0.77 0.03202247191004162 0  0.77 0.03370786516846367 0  0.77 0.03539325842688572 0  0.77 0.03707865168530778 0  0.77 0.03876404494372984 0  0.77 0.0404494382021519 0  0.77 0.04213483146057394 0  0.77 0.04382022471899601 0  0.77 0.04550561797741807 0  0.77 0.04719101123584013 0  0.77 0.04887640449426219 0  0.77 0.05056179775268425 0  0.77 0.0522471910111063 0  0.77 0.05393258426952837 0  0.77 0.05561797752795105 0  0.77 0.05730337078637505 0  0.77 0.05898876404479723 0  0.77 0.0606741573032193 0  0.77 0.06235955056164135 0  0.77 0.06404494382006341 0  0.77 0.06573033707848548 0  0.77 0.06741573033690752 0  0.77 0.06910112359532959 0  0.77 0.07078651685375165 0  0.77 0.0724719101121737 0  0.77 0.07415730337059653 0  0.77 0.07584269662902443 0  0.77 0.07752808988745429 0  0.77 0.07921348314588413 0  0.77 0.08089887640431678 0  0.77 0.08258426966274923 0  0.77 0.08426966292117907 0  0.77 0.08595505617960987 0  0.77 0.08764044943804362 0  0.77 0.08932584269647403 0  0.77 0.09101123595490389 0  0.77 0.09269662921333673 0  0.77 0.09438202247176901 0  0.77 0.09606741573019884 0  0.77 0.09775280898862983 0  0.77 0.09943820224706355 0  0.77 0.1011235955054938 0  0.77 0.1028089887639236 0  0.77 0.1044943820223567 0  0.77 0.1061797752807888 0  0.77 0.1078651685392186 0  0.77 0.1095505617976498 0  0.77 0.1112359550560835 0  0.77 0.1129213483145136 0  0.77 0.1146067415729456 0  0.77 0.1162921348313787 0  0.77 0.1179775280898085 0  0.77 0.1196629213482387 0  0.77 0.1213483146066724 0  0.77 0.1230337078651035 0  0.77 0.1247191011235322 0  0.77 0.1264044943819605 0  0.77 0.1280898876403903 0  0.77 0.1297752808988242 0  0.77 0.1314606741572554 0  0.77 0.1331460674156853 0  0.77 0.1348314606741154 0  0.77 0.1365168539325504 0  0.77 0.1382022471909802 0  0.77 0.13988764044941 0  0.77 0.1415730337078443 0  0.77 0.1432584269662752 0  0.77 0.144943820224705 0  0.77 0.1466292134831355 0  0.77 0.1483146067415701 0  0.7667782426778414 0.15 0  0.7635564853556813 0.15 0  0.7603347280335111 0.15 0  0.757112970711341 0.15 0  0.7538912133891708 0.15 0  0.7506694560670005 0.15 0  0.7474476987448303 0.15 0  0.7442259414226602 0.15 0  0.74100418410049 0.15 0  0.7377824267783197 0.15 0  0.7345606694561496 0.15 0  0.7313389121339794 0.15 0  0.7281171548118092 0.15 0  0.724895397489639 0.15 0  0.7216736401674688 0.15 0  0.7184518828452986 0.15 0  0.7152301255231284 0.15 0  0.7120083682009583 0.15 0  0.708786610878788 0.15 0  0.7055648535566178 0.15 0  0.7023430962344477 0.15 0  0.6991213389122775 0.15 0  0.6958995815901072 0.15 0  0.692677824267937 0.15 0  0.6894560669457669 0.15 0  0.6862343096235967 0.15 0  0.6830125523014264 0.15 0  0.6797907949792563 0.15 0  0.6765690376570861 0.15 0  0.6733472803349159 0.15 0  0.6701255230127456 0.15 0  0.6669037656905755 0.15 0  0.6636820083684053 0.15 0  0.6604602510462351 0.15 0  0.657238493724065 0.15 0  0.6540167364018947 0.15 0  0.6507949790797245 0.15 0  0.6475732217575543 0.15 0  0.644351464435384 0.15 0  0.6411297071132231 0.15 0  0.6379079497910645 0.15 0  0.634686192468906 0.15 0  0.6314644351467468 0.15 0  0.6282426778245765 0.15 0  0.6250209205024085 0.15 0  0.62179916318025 0.15 0  0.6185774058580914 0.15 0  0.6153556485359328 0.15 0  0.6121338912137689 0.15 0  0.6089121338915987 0.15 0  0.6056903765694354 0.15 0  0.6024686192472768 0.15 0  0.5992468619251182 0.15 0  0.5960251046029597 0.15 0  0.5928033472807912 0.15 0  0.589581589958621 0.15 0  0.5863598326364508 0.15 0  0.5831380753142792 0.15 0  0.5799163179920974 0.15 0  0.57669456
[...]
<PointData  Scalars="concentration"> 
<DataArray  type="Float64"  Name="concentration"  format="ascii">0.0000000000000000e+00  1.0000000000047522e+00  4.5412322072929145e-01  0.0000000000000000e+00  7.3976057160322115e-02  -1.0316894382324302e-02  -1.2190311832640645e-01  5.8160413331769856e-01  8.5892263608764485e-01  8.5685069675495207e-01  8.6221989978351576e-01  8.6230448051371633e-01  8.6174811067686552e-01  8.6138269220806796e-01  8.6117474691783535e-01  8.6106485113038012e-01  8.6101612463627186e-01  8.6100415200736269e-01  8.6101244622670203e-01  8.6102958532632046e-01  8.6105439743311030e-01  8.6107715640842564e-01  8.6110107807974057e-01  8.6112598609980351e-01  8.6114449265327420e-01  8.6116809866216482e-01  8.6118881496003152e-01  8.6120523715845776e-01  8.6123347766121761e-01  8.6124935818890103e-01  8.6127475170248247e-01  8.6130753517830339e-01  8.6132178297106199e-01  8.6137028368860669e-01  8.6139412475894239e-01  8.6142926868311620e-01  8.6149460915655840e-01  8.6150226962052434e-01  8.6159943598233901e-01  8.6162162957304034e-01  8.6168935667256097e-01  8.6179539760720614e-01  8.6178110693595944e-01  8.6199671586852844e-01  8.6191342568677909e-01  8.6219657128708149e-01  8.6210937008197486e-01  8.6239279065642371e-01  8.6236449458969155e-01  8.6260532426782643e-01  8.6266198346395906e-01  8.6285858753737898e-01  8.6298865517392453e-01  8.6316858603195956e-01  8.6334508015513600e-01  8.6353748795313146e-01  8.6374457873797705e-01  8.6396216452334784e-01  8.6420109207575702e-01  8.6444555758950259e-01  8.6472275641574359e-01  8.6499969176994229e-01  8.6531191236807725e-01  8.6564207371793267e-01  8.6597790314601863e-01  8.6637568340737636e-01  8.6675284166869537e-01  8.6719817114979103e-01  8.6765220482528105e-01  8.6814884903394707e-01  8.6866603576121049e-01  8.6925444675581098e-01  8.6984395364379063e-01  8.7049558683145156e-01  8.7121871063456036e-01  8.7194841239027410e-01  8.7274162576605518e-01  8.7365611295892909e-01  8.7453667157354997e-01  8.7550373000054627e-01  8.7666930314243141e-01  8.7770153100979542e-01  8.7888231374981696e-01  8.8036938143650378e-01  8.8154208183739091e-01  8.8295021521910433e-01  8.8490254919627120e-01  8.8610215307298834e-01  8.8775793076524900e-01  8.9042610825444968e-01  8.9132249724209933e-01  8.9324611233953277e-01  8.9716814078969309e-01  8.9679053998901093e-01  8.9912825343448610e-01  9.0553078240535390e-01  9.0089056428327674e-01  9.0466903095555418e-01  9.1575744553536220e-01  8.9778423236814553e-01  9.0377323934684750e-01  9.2821418228822472e-01  7.8181387476781949e-01  7.6775266045961765e-01  7.1301748694205469e-01  7.1415223251921367e-01  7.2710802807941222e-01  7.3507990249113608e-01  7.3926346808090893e-01  7.4117735062438650e-01  7.4186135419466992e-01  7.4201306942488399e-01  7.4204242922397678e-01  7.4217409632098785e-01  7.4251249704744360e-01  7.4309743545823426e-01  7.4393400893080397e-01  7.4500308135729632e-01  7.4627755824928410e-01  7.4772887715551928e-01  7.4931962542188291e-01  7.5101141293599583e-01  7.5278365203076869e-01  7.5458624110402739e-01  7.5638101302319716e-01  7.5817558544986419e-01  7.5987454417549072e-01  7.6146429135977023e-01  7.6300266142206852e-01  7.6426879290738958e-01  7.6534221323789386e-01  7.6639930702870285e-01  7.6681767966004810e-01  7.6710958412872565e-01  7.6759347946177792e-01  7.6652953093265441e-01  7.6606417328169463e-01  7.6626629889019937e-01  7.6252161911794447e-01  7.6254989217762359e-01  7.6355091425277344e-01  7.5443673690172186e-01  7.6011333399020309e-01  7.6407869219399915e-01  7.4230466566842157e-01  7.7119960244271057e-01  7.8084037925001071e-01  7.4677677097073225e-01  8.5661632683116684e-01  7.0223488255284283e-01  1.0089610948818832e+00  1.0355400783733262e+00  1.0269901131516672e+00  1.0161089455854455e+00  1.0087780362077767e+00  1.0045994442333190e+00  1.0023675316406198e+00  1.0012089798402604e+00  1.0006152797432948e+00  1.0003127223382975e+00  1.0001589041298216e+00  1.0000806588722124e+00  1.0000410289519628e+00  1.0000207125863718e+00  1.0000106200524472e+00  1.0000052519271967e+00  1.0000027538235132e+00  1.0000013451423222e+00  1.0000006298551640e+00  1.0000004780572820e+00  9.9999996600079688e-01  1.0000003190877647e+00  9.9999986107631844e-01  1.0000000519789978e+00  1.0000002136161945e+00  9.9999954983628070e-01  1.0000006213273762e+00  9.9999942023425969e-01  1.0000002887380750e+00  1.0000001844942199e+00  9.9999940155712075e-01  1.0000006171380640e+00  1.0000000144599817e+00  9.9999879408244008e-01  1.0000023417476556e+00  9.9999760500078505e-01  1.0000004759731931e+00  1.0000033198290137e+00  9.9999274295466944e-01  1.0000081744989584e+00  9.9999704565319925e-01  9.9999082996192945e-01  1.0000247959405801e+00  9.9996337155964188e-01  1.0000365327657899e+00  9.9997985192377614e-01  9.9999019641838516e-01  1.0000442884962084e+00  9.9992677881157332e-01  1.0000922657110873e+00  9.9989356925944572e-01  1.0001273290024932e+00  9.9983467705956908e-01  1.0002216912226700e+00  9.9971380402045007e-01  1.0003416337399940e+00  9.9962783804947652e-01  1.0003702179826814e+00  9.9966117968362500e-01  1.0002897315129216e+00  9.9975962366963966e-01  1.0002122262192730e+00  9.9976961328307878e-01  1.0003185291423777e+00  9.9952053152947307e-01  1.0006620957268337e+00  9.9925170155368748e-01  1.0006177931115527e+00  9.9971382739704362e-01  9.9996122011426636e-01  1.0001416247758381e+00  9.9994526881953361e-01  9.9998649732502554e-01  1.0000016528834443e+00  1.0000029652396074e+00  1.0000019428844500e+00  1.0000008626281065e+00  1.0000004573424972e+00  1.0000001389133581e+00  1.0000000875993504e+00  1.0000000153075190e+00  1.0000000139486036e+00  1.0000000009871985e+00  1.0000000012295540e+00  9.9999999983788213e-01  1.0000000002188947e+00  9.9999999956636265e-01  1.0000000002257705e+00  1.0000000001120879e+00  9.9999999981998933e-01  1.0000000002050871e+00  1.0000000001069524e+00  9.9999999977042275e-01  1.0000000007101422e+00  9.9999999634070114e-01  1.0000000194722811e+00  9.9999993004765431e-01  9.9999988633588477e-01  9.9999956060821993e-01  9.9999729692755013e-01  9.9999417688578185e-01  9.9999239867140799e-01  9.9999175269306728e-01  9.9999177133858574e-01  9.9999123627717379e-01  9.9998981131990783e-01  9.9999224154772703e-01  9.9999380514912017e-01  9.9999171455210822e-01  9.9999429133812778e-01  9.9999324806751766e-01  9.9999308594363512e-01  9.9999450091536402e-01  9.9999336709195896e-01  9.9998480884426688e-01  9.9997152168366932e-01  9.9998646810798664e-01  9.9999842876232892e-01  9.9999336499348090e-01  9.9999432064713378e-01  9.9999537211278933e-01  9.9999494982605419e-01  9.9999524136256634e-01  9.9997933667373051e-01  9.9998346221852907e-01  9.9997930102280486e-01  9.9998790394561399e-01  9.9989538080281715e-01  1.0000627234984150e+00  9.9990829270533532e-01  9.9908156427351458e-01  9.9467875588444676e-01  9.4149032868774030e-01  8.9938250159444533e-01  9.2094308576906292e-01  8.7964002357600923e-01  7.7593015014830269e-01  7.2206637042174315e-01  7.1541428235128868e-01  6.5338583708955356e-01  7.3997036284606910e-01  7.7932438209787647e-01  8.1407662447697349e-01  8.5481606690308998e-01  8.9355650168804091e-01  9.2634917782164339e-01  9.5737049065588720e-01  9.8263077652452335e-01  9.9582016064386747e-01  9.9946453425267467e-01  9.9984424606177058e-01  9.9990836128067162e-01  9.9997460330847709e-01  9.9999335137282286e-01  9.9999590204740463e-01  1.0000006266373733e+00  9.9999827713519185e-01  1.0000025447871810e+00  9.9999615349776705e-01  1.0000042574956396e+00  9.9998775550841845e-01  1.0000127163961667e+00  9.9996653225890753e-01  1.0000553388460369e+00  9.9986804002840157e-01  1.0002902156540241e+00  9.9927593483256516e-01  1.0018590628599295e+00  9.9492630771035029e-01  1.0143265273275159e+00  9.5859057562058525e-01  1.1221466035423293e+00  7.5205082780319843e-01  4.1940819697421555e-01  -1.3444612159979097e-01  4.5698897713710308e-02  -6.8609622196551950e-02  1.6264730169189290e-01  -1.5408786381024095e+00  2.0644934039307770e+00  4.0772938631913486e-01  1.1788635799907735e-01  1.2232039168641586e-01  4.9530078071536678e-02  1.1588730084466248e-01  1.3881807765601742e-01  1.4200460265809570e-01  2.0545968663726730e-01  1.6531436411834444e-01  1.0765968657849116e-01  1.5669922430705394e-01  1.5174219155302765e-01  8.1708984155753561e-02  2.1407939496647077e-01  4.5480988486405777e-02  2.2298949338750823e-01  9.0110528004763074e-02  1.6342131342959224e-01  1.9531905711766834e-01  1.1819436403467069e-01  2.1166019948197268e-01  1.7561917644558872e-01  1.6510072092907005e-01  2.1150919296609560e-01  1.8333573792739749e-01  1.8309669783819521e-01  2.2773875733730245e-01  1.4934651628233281e-01  1.8504819426744726e-01  8.5449990980867224e-02  1.6598353598750418e-01  4.5538525952235738e-02  2.0213592319876575e-01  2.0130750605751788e-01  5.5945432150986674e-01  1.0367933427778437e+00  3.0312932880189786e-01  -2.5514197338907335e-01  1.9580277672445612e-01  6.3655457530367987e-01  9.9669056512315868e-01  2.7920299703815882e-01  -2.6486214627495513e-01  4.9494437626641762e-02  3.2482234378421948e-01  3.5898947570357748e-01  6.9478090641574342e-01  -2.6422994487256873e-01  5.7302791124731539e-04  1.3443020747936874e-01  1.0173609515307290e-01  6.5557839062778400e-02  2.2257184883162318e-01  4.1181508470918687e-01  6.7943481848301290e-01  -2.7873460781874437e-01  -6.8004766176671776e-03  1.2295599065037766e-01  9.1119025660661185e-02  4.7601794650833737e-02  2.2383109024960815e-01  4.1415002679013307e-01  6.9047079592705674e-01  -1.6009193227559015e-01  3.5634521307147071e-01  7.3881749919824558e-01  -1.3785507062751989e-01  2.7091812824976058e-01  7.9787061618703947e-01  -1.6606229533927755e-01  2.8558211976763476e-01  7.5797232885270527e-01  -1.3319419614730446e-01  2.2495070678315326e-01  8.4319896199904409e-01  -1.4413997356109795e-01  4.0429918402472970e-01  1.1111520773303876e+00  5.3854795141767928e-02  -5.1284831295733202e-01  2.6589997953015382e-01  8.7608198070338505e-01  7.6561948626391663e-01  2.7157501034095130e-02  -1.4834437093657687e-01  5.6809734867912587e-01  1.0827530998025698e+00  -5.5822582069749382e-02  -4.0396280424911796e-01  3.5582164682325806e-01  8.5548090105961117e-01  8.3474488277019243e-01  1.1133012410346932e-01  -1.7020305846126529e-01  3.0629883621796605e-01  7.2216001777416139e-01  9.8575171860806476e-01  2.5273024832952007e-01  -2.3942684999482874e-01  3.1332690037892724e-01  6.4420287825224354e-01  9.6616774483246215e-01  3.0138763658246764e-01  -2.1203216588482846e-01  2.3327906236099058e-01  6.3567146590079893e-01  9.5251318827901188e-01  4.2923319220361889e-01  -3.3469648863012863e-03  6.4623212491191040e-01  1.4714832052889770e+00  1.6103196312285459e+00  1.6511347510686232e+00  1.6039576408754426e+00  1.6044225847604505e+00  1.5673361703453257e+00  1.5518451969263733e+00  1.5918155095191258e+00  1.5304475530498534e+00  1.5239256144026547e+00  1.5875808940007334e+00  1.4878463694077786e+00  1.5392180871491585e+00  1.5419769820988560e+00  1.5030814932018310e+00  1.4936108497160081e+00  1.5795971593006111e+00  1.4103524397933638e+00  1.5878778841264094e+00  1.4493472894988684e+00  1.4940121359711391e+00  1.5119349558084707e+00  1.4516883400501657e+00  1.4834610686815450e+00  1.4808462901799413e+00  1.4318741952012068e+00  1.4794323808061300e+00  1.4332609234429663e+00  1.4353630192602200e+00  1.4426348885621123e+00  1.4142250182803298e+00  1.4199720528761195e+00  1.4082688090410753e+00  1.4093787052401592e+00  1.3725232975106609e+00  1.4236785779099830e+00  1.3343029048146147e+00  1.4151849392066491e+00  1.3311208013192546e+00  1.3774227934637533e+00  1.3403654033237464e+00  1.3452695820892349e+00  1.3351165588696112e+00  1.3291822358644312e+00  1.3195329879380149e+00  1.3194712862729847e+00  1.3026961769954613e+00  1.3101386688090451e+00  1.2891243418021041e+00  1.2974648081535700e+00  1.2815009439949878e+00  1.2816045157159495e+00  1.2764410375801245e+00  1.2681963386175719e+00  1.2684547888452913e+00  1.2601655257153004e+00  1.2577800672196582e+00  1.2542487887335159e+00  1.2481323187954589e+00  1.2469891236124473e+00  1.2403837787973340e+00  1.2380910790273680e+00  1.2328948091401686e+00  1.2271787237677891e+00  1.2243535583041181e+00  1.2124018270454906e+00  1.2126932575365990e+00  1.1958856078525570e+00  1.2058176175035968e+00  1.1966468072060887e+00  1.1921362563071365e+00  1.2259550885388260e+00  1.2946471744702812e+00  1.1155246400864225e+00  1.6039947656375244e+00  1.1056653431819388e+00  1.4715855128637303e+00  9.6734373473620827e-01  3.1473372032383656e-01  1.0030503400368458e+00  1.1261330485928513e+00  5.5453733505556203e-03  1.2544066122838908e+00  1.0763090319955460e+00  3.2980005578380392e-02  1.1680866553885232e+00  9.1576828045854042e-01  -2.0773363102792600e-01  3.1816587317368294e-01  8.9637954440408074e-01  8.3816513422831876e-02  2.0583661215601179e-01  1.4641471433939846e+00  9.0115131203937671e-01  1.1648621544235445e+00  3.1229234201228490e-01  1.0414133171570077e+00  1.3619605134746018e+00  9.1283147770690209e-01  1.7926712376449180e-01  1.2956781605938370e+00  9.8241555340580000e-01  1.4016982588171136e+00  1.1006236483553080e+00  1.2134412646513741e+00  1.2928210883883562e+00  1.0721970315692717e+00  1.4537524933147341e+00  1.2602591979293338e+00  1.2519472558323013e+00  1.2628700378477375e+00  1.2265436037051884e+00  1.2747507859671419e+00  1.2617659366342773e+00  1.3415226958656201e+00  1.3056883459058273e+00  1.2546569144578010e+00  1.2226063524732560e+00  1.3234235103937027e+00  1.2535644266306467e+00  1.3197661391110214e+00  1.1846426912174182e+00  1.1989406158012308e+00  1.0334926833289737e+00  8.6410785962700287e-01  -7.3551440720793629e-02  -4.7598136743928897e-02  7.8305731313909860e-02  0.0000000000000000e+00  0.0000000000000000e+00  0.0000000000000000e+00  0.0000000000000000e+00  0.0000000000000000e+00  0.0000000000000000e+00  0.0000000000000000e+00  0.0000000000000000e+00  0.0000000000000000e+00  0.0000000000000000e+00  0.0000000000000000e+00  0.0000000000000000e+00  0.0000000000000000e+00  0.0000000000000000e+00  0.0000000000000000e+00  0.0000000000000000e+00  0.0000000000000000e+00  0.0000000000000000e+00  0.0000000000000000e+00  0.0000000000000000e+00  0.0000000000000000e+00  0.0000000000000000e+00  0.0000000000000000e+00  0.0000000000000000e+00  0.0000000000000000e+00  0.0000000000000000e+00  0.0000000000000000e+00  0.0000000000000000e+00  0.0000000000000000e+00  0.0000000000000000e+00  0.0000000000000000e+00  0.0000000000000000e+00  0.0000000000000000e+00  0.0000000000000000e+00  0.0000000000000000e+00  0.0000000000000000e+00  0.0000000000000000e+00  0.0000000000000000e+00  0.0000000000000000e+00  0.0000000000000000e+00  0.0000000000000000e+00  0.0000000000000000e+00  0.0000000000000000e+00  0.0000000000000000e+00  0.0000000000000000e+00  0.0000000000000000e+00  0.0000000000000000e+00  0.0000000000000000e+00  0.0000000000000000e+00  0.0000000000000000e+00  0.0000000000000000e+00  0.0000000000000000e+00  0.0000000000000000e+00  0.0000000000000000e+00  0.0000000000000000e+00  0.0000000000000000e+00  0.0000000000000000e+00  0.0000000000000000e+00  0.0000000000000000e+00  0.0000000000000000e+00  0.0000000000000000e+00  0.0000000000000000e+00  0.0000000000000000e+00  0.0000000000000000e+00  0.0000000000000000e+00  0.0000000000000000e+00  0.0000000000000000e+00  0.0000000000000000e+00  0.0000000000000000e+00  0.0000000000000000e+00  0.0000000000000000e+00  0.0000000000000000e+00  0.0000000000000000e+00  0.0000000000000000e+00  0.0000000000000000e+00  0.0000000000000000e+00  0.0000000000000000e+00  0.0000000000000000e+00  0.0000000000000000e+00  0.0000000000000000e+00  0.0000000000000000e+00  0.0000000000000000e+00  0.0000000000000000e+00  0.0000000000000000e+00  0.0000000000000000e+00  0.0000000000000000e+00  0.0000000000000000e+00  0.0000000000000000e+00  -2.0916768188265801e-02  -8.3298878761768877e-02  -4.2327611286143624e-02  -7.1077602432477001e-03  1.3032096082323829e-04  3.0935679999585883e-05  -9.5822222031573115e-06  3.3437451304370104e-06  -9.3449712489079650e-08  -5.1261135704781915e-08  -2.6823139615279992e-07  4.8044396857268398e-07  -8.0541591008995676e-07  1.3920108780421308e-06  -2.0587168878558199e-06  2.8362674623815356e-06  -3.8901244941868677e-06  4.8919309793288914e-06  -5.8560005920011282e-06  7.0763517621120360e-06  -8.1557011946598061e-06  9.2980925290842174e-06  -1.0739270501253715e-05  1.1818066051113376e-05  -1.3001838578960706e-05  1.3915389074176870e-05  -1.4336677053394534e-05  1.4986335307999587e-05  -1.5172232441655716e-05  1.5902477989445324e-05  -1.6447461142114827e-05  1.7107129815362281e-05  -1.7104043272654439e-05  1.6122281570622201e-05  -1.3713802063697639e-05  9.8670842914200087e-06  -4.7620311919962603e-06  -1.3114482698914172e-06  7.9900044930318720e-06  -1.4780516134905586e-05  2.0905457992195788e-05  -2.5151038754417078e-05  2.5906537297353557e-05  -2.1638023682230485e-05  1.1778660471649141e-05  2.9052140512603720e-06  -2.0922294482615082e-05  4.1228483255304031e-05  -6.4182477743062697e-05  9.1934137222046122e-05  -1.2750680229031924e-04  1.7248711684837779e-04  -2.2530783756941265e-04  2.8143305772614032e-04  -3.3366310168675103e-04  3.7179831198769209e-04  -3.8346809083603139e-04  3.5622940710273391e-04  -2.8213997721811463e-04  1.6713663599657335e-04  -3.7201145185929128e-05  -6.7519903224010926e-05  1.0434795752597269e-04  -4.1957288797578257e-05  -1.3073316154502693e-04  4.1653852285176648e-04  -8.1828423528406194e-04  1.3418056643911603e-03  -2.0090543282711847e-03  2.8323720427517276e-03  -3.8238260635669284e-03  4.9025610624733222e-03  -5.8618573843917674e-03  6.2971272242293404e-03  -5.7489015003414886e-03  3.8792030748598517e-03  -7.8942940312124951e-04  -2.8227682192696235e-03  5.5716413115697661e-03  -5.6938225737487146e-03  1.6827489384224972e-03  6.6677705429564792e-03  -1.7522733041398175e-02  2.6907439864995112e-02  -2.9557481602884388e-02  1.9871772276383180e-02  7.1953909746545214e-03  -4.9157420611124408e-02  8.9450065319069419e-02  8.2602080711147944e-03  -2.0835981288781995e-02  -7.0657943177789978e-03  -3.5880983101122138e-05  6.8900316267174729e-05  -1.6920752388101549e-05  2.5347033091366125e-06  3.0811329454237368e-07  -1.6231509771319208e-08  -1.7287412865164090e-07  2.2105312002286684e-07  -3.4430484288452270e-07  3.8692729268995927e-07  -3.0435172203978339e-07  2.2903917699789496e-07  4.1214375768253991e-08  -5.2577837722864800e-07  9.4339151908182898e-07  -1.5046738420833393e-06  2.1505446742145073e-06  -2.6510114324398308e-06  3.4339483559005528e-06  -4.2696565464268662e-06  5.1849415890140608e-06  -6.3322508351496097e-06  7.1563324499715051e-06  -7.9685638713347230e-06  8.3673172130144868e-06  -8.7085305271850954e-06  9.0872853970215736e-06  -9.8191957394711594e-06  1.1007212772904401e-05  -1.2502316667209582e-05  1.3906008958515543e-05  -1.4729385056669014e-05  1.4627592683618271e-05  -1.3416986101296098e-05  1.1008998591444488e-05  -7.3069087472964454e-06  2.1634423051579682e-06  4.4941783202731701e-06  -1.2312305095727743e-05  2.0090227907009904e-05  -2.5939956026868426e-05  2.8176394506786325e-05  -2.6262822627940630e-05  2.1066956956248437e-05  -1.4341694350377326e-05  7.4534777820106412e-06  2.0427843492085574e-07  -1.1575145444703302e-05  3.0451919250940068e-05  -5.9959208081604843e-05  1.0203917814861984e-04  -1.5667744761528577e-04  2.2068336546141119e-04  -2.8601612966343423e-04  3.3715383989147947e-04  -3.5255902837261785e-04  3.1437805800222626e-04  -2.1897967866864090e-04  8.2396224717180494e-05  6.2515598899011107e-05  -1.8186710748304346e-04  2.5111651750845076e-04  -2.5502754016755252e-04  1.8963004734043608e-04  -4.4767754157161803e-05  -1.9406482852902856e-04  5.8218167851598849e-04  -1.2108534597930502e-03  2.1923242109910890e-03  -3.5439935547528618e-03  5.0875889165574156e-03  -6.3743726888086235e-03  6.7724351773641375e-03  -5.6451616535203473e-03  2.6817007603327100e-03  1.7489127450326925e-03  -6.3141808