<?xml version="1.0"?>
<VTKFile type="UnstructuredGrid"  version="0.1"  >
<UnstructuredGrid>
<Piece  NumberOfPoints="21600" NumberOfCells="42542">
<Points>
<DataArray  type="Float64"  NumberOfComponents="3"  format="ascii">0 0 0  0.77 0 0  0.77 0.15 0  0 0.15 0  0.003221757322170014 0 0  0.006443514644340046 0 0  0.009665271966510193 0 0  0.01288702928868034 0 0  0.01610878661085048 0 0  0.01933054393302049 0 0  0.02255230125519027 0 0  0.02577405857735967 0 0  0.02899581589952872 0 0  0.03221757322169801 0 0  0.03543933054386744 0 0  0.03866108786603686 0 0  0.04188284518820627 0 0  0.0451046025103757 0 0  0.04832635983254521 0 0  0.05154811715471607 0 0  0.05476987447688695 0 0  0.05799163179905782 0 0  0.06121338912122846 0 0  0.06443514644339859 0 0  0.06765690376556875 0 0  0.0708786610877389 0 0  0.07410041840990904 0 0  0.0773221757320792 0 0  0.08054393305425039 0 0  0.08376569037642198 0 0  0.0869874476985936 0 0  0.09020920502076518 0 0  0.0934309623429339 0 0  0.0966527196651024 0 0  0.09987447698726967 0 0  0.1030962343094369 0 0  0.1063179916316041 0 0  0.1095397489537714 0 0  0.1127615062759386 0 0  0.1159832635981051 0 0  0.1192050209202709 0 0  0.1224267782424358 0 0  0.1256485355646001 0 0  0.1288702928867644 0 0  0.1320920502089288 0 0  0.1353138075310958 0 0  0.1385355648532632 0 0  0.1417573221754333 0 0  0.1449790794976035 0 0  0.1482008368197736 0 0  0.1514225941419428 0 0  0.1546443514641101 0 0  0.157866108786276 0 0  0.1610878661084403 0 0  0.1643096234306047 0 0  0.167531380752769 0 0  0.1707531380749333 0 0  0.1739748953970977 0 0  0.177196652719262 0 0  0.1804184100414264 0 0  0.1836401673635935 0 0  0.1868619246857611 0 0  0.1900836820079313 0 0  0.1933054393301014 0 0  0.1965271966522716 0 0  0.1997489539744406 0 0  0.2029707112966078 0 0  0.2061924686187736 0 0  0.209414225940938 0 0  0.2126359832631022 0 0  0.2158577405852666 0 0  0.219079497907431 0 0  0.2223012552295953 0 0  0.2255230125517597 0 0  0.2287447698739242 0 0  0.2319665271960914 0 0  0.2351882845182592 0 0  0.2384100418404293 0 0  0.2416317991625994 0 0  0.2448535564847696 0 0  0.2480753138069371 0 0  0.2512970711291014 0 0  0.2545188284512658 0 0  0.2577405857734302 0 0  0.2609623430955986 0 0  0.2641841004177688 0 0  0.2674058577399389 0 0  0.270627615062109 0 0  0.2738493723842792 0 0  0.2770711297064487 0 0  0.280292887028613 0 0  0.2835146443507774 0 0  0.2867364016729417 0 0  0.2899581589951061 0 0  0.2931799163172705 0 0  0.2964016736394348 0 0  0.2996234309615992 0 0  0.3028451882837672 0 0  0.3060669456059373 0 0  0.3092887029281075 0 0  0.3125104602502776 0 0  0.3157322175724478 0 0  0.3189539748946177 0 0  0.322175732216782 0 0  0.3253974895389464 0 0  0.3286192468611107 0 0  0.3318410041832751 0 0  0.3350627615054395 0 0  0.3382845188276038 0 0  0.3415062761497681 0 0  0.3447280334719325 0 0  0.3479497907940968 0 0  0.3511715481162612 0 0  0.3543933054384255 0 0  0.3576150627605947 0 0  0.3608368200827649 0 0  0.364058577404935 0 0  0.3672803347271051 0 0  0.3705020920492753 0 0  0.373723849371444 0 0  0.3769456066936084 0 0  0.3801673640157748 0 0  0.383389121337945 0 0  0.3866108786601209 0 0  0.3898326359823028 0 0  0.3930543933044846 0 0  0.3962761506266662 0 0  0.399497907948848 0 0  0.4027196652710298 0 0  0.4059414225932116 0 0  0.4091631799153934 0 0  0.4123849372375751 0 0  0.4156066945597569 0 0  0.4188284518819387 0 0  0.4220502092041222 0 0  0.4252719665263097 0 0  0.4284937238484974 0 0  0.4317154811706849 0 0  0.4349372384928725 0 0  0.4381589958150601 0 0  0.4413807531372476 0 0  0.4446025104594352 0 0  0.4478242677816181 0 0  0.4510460251037998 0 0  0.4542677824259815 0 0  0.4574895397481634 0 0  0.4607112970703451 0 0  0.4639330543925269 0 0  0.4671548117147087 0 0  0.4703765690368904 0 0  0.4735983263590722 0 0  0.4768200836812568 0 0  0.4800418410034444 0 0  0.483263598325632 0 0  0.4864853556478196 0 0  0.4897071129700028 0 0  0.4929288702921845 0 0  0.4961506276143663 0 0  0.4993723849365479 0 0  0.5025941422587239 0 0  0.5058158995809008 0 0  0.5090376569030826 0 0  0.5122594142252677 0 0  0.515481171547461 0 0  0.5187029288696494 0 0  0.5219246861918312 0 0  0.525146443514013 0 0  0.5283682008361947 0 0  0.5315899581583845 0 0  0.5348117154805778 0 0  0.5380334728027617 0 0  0.5412552301249435 0 0  0.5444769874471141 0 0  0.5476987447692853 0 0  0.550920502091467 0 0  0.5541422594136513 0 0  0.5573640167358447 0 0  0.560585774058034 0 0  0.5638075313802158 0 0  0.5670292887023975 0 0  0.5702510460245793 0 0  0.5734728033467682 0 0  0.5766945606689615 0 0  0.579916317991155 0 0  0.5831380753133483 0 0  0.5863598326355314 0 0  0.5895815899577131 0 0  0.5928033472798949 0 0  0.5960251046020785 0 0  0.5992468619242718 0 0  0.6024686192464619 0 0  0.6056903765686437 0 0  0.6089121338908206 0 0  0.6121338912129908 0 0  0.6153556485351673 0 0  0.618577405857349 0 0  0.6217991631795386 0 0  0.625020920501732 0 0  0.6282426778239159 0 0  0.6314644351460976 0 0  0.6346861924682795 0 0  0.6379079497904622 0 0  0.6411297071126555 0 0  0.6443514644348465 0 0  0.6475732217570283 0 0  0.650794979079206 0 0  0.6540167364013761 0 0  0.6572384937235518 0 0  0.6604602510457335 0 0  0.6636820083679225 0 0  0.6669037656901158 0 0  0.6701255230123004 0 0  0.6733472803344823 0 0  0.6765690376566641 0 0  0.6797907949788459 0 0  0.6830125523010393 0 0  0.686234309623231 0 0  0.6894560669454127 0 0  0.6926778242675914 0 0  0.6958995815897615 0 0  0.6991213389119363 0 0  0.7023430962341181 0 0  0.7055648535563062 0 0  0.7087866108784994 0 0  0.712008368200685 0 0  0.7152301255228668 0 0  0.7184518828450486 0 0  0.7216736401672305 0 0  0.724895397489423 0 0  0.7281171548116155 0 0  0.7313389121337973 0 0  0.7345606694559768 0 0  0.7377824267781468 0 0  0.7410041841003209 0 0  0.7442259414225026 0 0  0.7474476987446899 0 0  0.7506694560668832 0 0  0.7538912133890696 0 0  0.7571129707112513 0 0  0.760334728033433 0 0  0.7635564853556149 0 0  0.7667782426778067 0 0  0.77 0.001685393258423789 0  0.77 0.003370786516847669 0  0.77 0.005056179775271247 0  0.77 0.006741573033694517 0  0.77 0.008426966292117821 0  0.77 0.01011235955054176 0  0.77 0.01179775280896623 0  0.77 0.0134831460673904 0  0.77 0.01516853932581489 0  0.77 0.01685393258423891 0  0.77 0.01853932584266291 0  0.77 0.02022471910108589 0  0.77 0.02191011235950794 0  0.77 0.02359550561792999 0  0.77 0.02528089887635205 0  0.77 0.02696629213477411 0  0.77 0.02865168539319714 0  0.77 0.03033707865161956 0  0.77 0.03202247191004162 0  0.77 0.03370786516846367 0  0.77 0.03539325842688572 0  0.77 0.03707865168530778 0  0.77 0.03876404494372984 0  0.77 0.0404494382021519 0  0.77 0.04213483146057394 0  0.77 0.04382022471899601 0  0.77 0.04550561797741807 0  0.77 0.04719101123584013 0  0.77 0.04887640449426219 0  0.77 0.05056179775268425 0  0.77 0.0522471910111063 0  0.77 0.05393258426952837 0  0.77 0.05561797752795105 0  0.77 0.05730337078637505 0  0.77 0.05898876404479723 0  0.77 0.0606741573032193 0  0.77 0.06235955056164135 0  0.77 0.06404494382006341 0  0.77 0.06573033707848548 0  0.77 0.06741573033690752 0  0.77 0.06910112359532959 0  0.77 0.07078651685375165 0  0.77 0.0724719101121737 0  0.77 0.07415730337059653 0  0.77 0.07584269662902443 0  0.77 0.07752808988745429 0  0.77 0.07921348314588413 0  0.77 0.08089887640431678 0  0.77 0.08258426966274923 0  0.77 0.08426966292117907 0  0.77 0.08595505617960987 0  0.77 0.08764044943804362 0  0.77 0.08932584269647403 0  0.77 0.09101123595490389 0  0.77 0.09269662921333673 0  0.77 0.09438202247176901 0  0.77 0.09606741573019884 0  0.77 0.09775280898862983 0  0.77 0.09943820224706355 0  0.77 0.1011235955054938 0  0.77 0.1028089887639236 0  0.77 0.1044943820223567 0  0.77 0.1061797752807888 0  0.77 0.1078651685392186 0  0.77 0.1095505617976498 0  0.77 0.1112359550560835 0  0.77 0.1129213483145136 0  0.77 0.1146067415729456 0  0.77 0.1162921348313787 0  0.77 0.1179775280898085 0  0.77 0.1196629213482387 0  0.77 0.1213483146066724 0  0.77 0.1230337078651035 0  0.77 0.1247191011235322 0  0.77 0.1264044943819605 0  0.77 0.1280898876403903 0  0.77 0.1297752808988242 0  0.77 0.1314606741572554 0  0.77 0.1331460674156853 0  0.77 0.1348314606741154 0  0.77 0.1365168539325504 0  0.77 0.1382022471909802 0  0.77 0.13988764044941 0  0.77 0.1415730337078443 0  0.77 0.1432584269662752 0  0.77 0.144943820224705 0  0.77 0.1466292134831355 0  0.77 0.1483146067415701 0  0.7667782426778414 0.15 0  0.7635564853556813 0.15 0  0.7603347280335111 0.15 0  0.757112970711341 0.15 0  0.7538912133891708 0.15 0  0.7506694560670005 0.15 0  0.7474476987448303 0.15 0  0.7442259414226602 0.15 0  0.74100418410049 0.15 0  0.7377824267783197 0.15 0  0.7345606694561496 0.15 0  0.7313389121339794 0.15 0  0.7281171548118092 0.15 0  0.724895397489639 0.15 0  0.7216736401674688 0.15 0  0.7184518828452986 0.15 0  0.7152301255231284 0.15 0  0.7120083682009583 0.15 0  0.708786610878788 0.15 0  0.7055648535566178 0.15 0  0.7023430962344477 0.15 0  0.6991213389122775 0.15 0  0.6958995815901072 0.15 0  0.692677824267937 0.15 0  0.6894560669457669 0.15 0  0.6862343096235967 0.15 0  0.6830125523014264 0.15 0  0.6797907949792563 0.15 0  0.6765690376570861 0.15 0  0.6733472803349159 0.15 0  0.6701255230127456 0.15 0  0.6669037656905755 0.15 0  0.6636820083684053 0.15 0  0.6604602510462351 0.15 0  0.657238493724065 0.15 0  0.6540167364018947 0.15 0  0.6507949790797245 0.15 0  0.6475732217575543 0.15 0  0.644351464435384 0.15 0  0.6411297071132231 0.15 0  0.6379079497910645 0.15 0  0.634686192468906 0.15 0  0.6314644351467468 0.15 0  0.6282426778245765 0.15 0  0.6250209205024085 0.15 0  0.62179916318025 0.15 0  0.6185774058580914 0.15 0  0.6153556485359328 0.15 0  0.6121338912137689 0.15 0  0.6089121338915987 0.15 0  0.6056903765694354 0.15 0  0.6024686192472768 0.15 0  0.5992468619251182 0.15 0  0.5960251046029597 0.15 0  0.5928033472807912 0.15 0  0.589581589958621 0.15 0  0.5863598326364508 0.15 0  0.5831380753142792 0.15 0  0.5799163179920974 0.15 0  0.57669456
[...]
<PointData  Scalars="concentration"> 
<DataArray  type="Float64"  Name="concentration"  format="ascii">0.0000000000000000e+00  1.0000000000000013e+00  2.1218951450377735e-01  0.0000000000000000e+00  7.3958799556665997e-02  -1.0328237504834050e-02  -1.2190804851133927e-01  5.8173081800586879e-01  8.5901951436691437e-01  8.5692468298442270e-01  8.6230363276890076e-01  8.6239983428703426e-01  8.6185788464661506e-01  8.6150914448022919e-01  8.6131700020958024e-01  8.6122522852709815e-01  8.6119604219810442e-01  8.6120162037991854e-01  8.6123243717847653e-01  8.6127089172919036e-01  8.6131623756952869e-01  8.6136728504423687e-01  8.6141289647462782e-01  8.6146513642124145e-01  8.6151710067212861e-01  8.6156232197267868e-01  8.6162370230034790e-01  8.6167273371762998e-01  8.6172877940999948e-01  8.6180259140148863e-01  8.6184845105553165e-01  8.6193762716642386e-01  8.6200886811636268e-01  8.6207318870791994e-01  8.6220519725021116e-01  8.6224580574990528e-01  8.6239873262372868e-01  8.6249963472510194e-01  8.6257805351272177e-01  8.6282337004163345e-01  8.6279504646394600e-01  8.6316179371027013e-01  8.6310793076286918e-01  8.6349496761665934e-01  8.6351644895727497e-01  8.6385920795343918e-01  8.6399309026267490e-01  8.6428446103714085e-01  8.6453984319808452e-01  8.6477710049724499e-01  8.6516021612866501e-01  8.6536710511024029e-01  8.6583536438784403e-01  8.6608454527995726e-01  8.6658062523377755e-01  8.6691744161157136e-01  8.6743514029207325e-01  8.6786829636075324e-01  8.6841358395255230e-01  8.6894516421321955e-01  8.6956229678718888e-01  8.7013532647737268e-01  8.7089120913637819e-01  8.7153243648237932e-01  8.7233138417946132e-01  8.7317776038260864e-01  8.7402069578635777e-01  8.7492746954906186e-01  8.7603855542532172e-01  8.7700061566933729e-01  8.7809939434863027e-01  8.7953347648295110e-01  8.8059485671181692e-01  8.8191845344797737e-01  8.8380969677707466e-01  8.8486795597506163e-01  8.8643001680278044e-01  8.8905915802039370e-01  8.8975672793883864e-01  8.9160005566732292e-01  8.9553413867058440e-01  8.9484356949949606e-01  8.9716776204247373e-01  9.0365693532940827e-01  8.9845676417881559e-01  9.0245655659305613e-01  9.1357620040784204e-01  8.9460931816256295e-01  9.0148356297409560e-01  9.2471666359780547e-01  7.7714818356537363e-01  7.6075402501438294e-01  7.0438825442037611e-01  7.0477081215023252e-01  7.1800748290389782e-01  7.2645877151342808e-01  7.3089702740315365e-01  7.3276949694377669e-01  7.3316986393947980e-01  7.3280393309060277e-01  7.3216336826312556e-01  7.3155667513579603e-01  7.3099443094548222e-01  7.3063392606631439e-01  7.3057119381273217e-01  7.3047903291370875e-01  7.3065570701263760e-01  7.3118388456375305e-01  7.3123043719262659e-01  7.3177470715419624e-01  7.3278090995193879e-01  7.3226297268590723e-01  7.3326317915090111e-01  7.3488142141669577e-01  7.3250843750141459e-01  7.3515602343424336e-01  7.3802443924033745e-01  7.3101105310212167e-01  7.3985371820961698e-01  7.4556596323298041e-01  7.2655757025076451e-01  7.5800520208928013e-01  7.6910802107016063e-01  7.4255792437849488e-01  8.4843659265748028e-01  6.8525669210025908e-01  1.0115700806702630e+00  1.0403229502172076e+00  1.0305023543328073e+00  1.0180972524595422e+00  1.0097646818334622e+00  1.0050483019623107e+00  1.0025565955794702e+00  1.0012814650230162e+00  1.0006389665627280e+00  1.0003177071342548e+00  1.0001576922850510e+00  1.0000781555026270e+00  1.0000386780310058e+00  1.0000191066070978e+00  1.0000094200519591e+00  1.0000046317424358e+00  1.0000022726294422e+00  1.0000011100177124e+00  1.0000005419366877e+00  1.0000002624213562e+00  1.0000001271215340e+00  1.0000000616658029e+00  1.0000000286909365e+00  1.0000000146980736e+00  1.0000000064947072e+00  1.0000000024307263e+00  1.0000000034684591e+00  9.9999999738087997e-01  1.0000000048295985e+00  9.9999999484210111e-01  1.0000000057086964e+00  9.9999999454156063e-01  1.0000000049461921e+00  9.9999999601859202e-01  1.0000000025909901e+00  9.9999999945533691e-01  9.9999999764997927e-01  1.0000000062052159e+00  9.9999998912977772e-01  1.0000000158895777e+00  9.9999997944701591e-01  1.0000000240719762e+00  9.9999997419697662e-01  1.0000000254389914e+00  9.9999997690736064e-01  1.0000000192482148e+00  9.9999998539144197e-01  1.0000000099018367e+00  9.9999999428558373e-01  1.0000000023930407e+00  9.9999999997323930e-01  9.9999999849739307e-01  1.0000000024184232e+00  9.9999999708810783e-01  1.0000000030015597e+00  9.9999999753276203e-01  1.0000000009967709e+00  1.0000000013020922e+00  9.9999999700105158e-01  1.0000000003525171e+00  1.0000000130050644e+00  9.9999995529882879e-01  1.0000001000056937e+00  9.9999982317649705e-01  1.0000002620707311e+00  9.9999966691773567e-01  1.0000003657951955e+00  9.9999965324518580e-01  1.0000002815873672e+00  9.9999980690065515e-01  1.0000001090733255e+00  9.9999995186415191e-01  1.0000000137527005e+00  1.0000000009400480e+00  9.9999999597448408e-01  9.9999999991963484e-01  1.0000000089285237e+00  9.9999998212187469e-01  1.0000000183537097e+00  1.0000000000384239e+00  9.9999995490196647e-01  1.0000001178207263e+00  9.9999978945462753e-01  1.0000003085031282e+00  9.9999960581284908e-01  1.0000004526418151e+00  9.9999952449199236e-01  1.0000004624669447e+00  9.9999957998554223e-01  1.0000003585533173e+00  9.9999971083039907e-01  1.0000002211743249e+00  9.9999983912679336e-01  1.0000001114563297e+00  9.9999992640669511e-01  1.0000000462910883e+00  9.9999997229662085e-01  1.0000000157442495e+00  9.9999999152250907e-01  1.0000000043141142e+00  9.9999999793026495e-01  1.0000000009339358e+00  9.9999999960448660e-01  1.0000000001568956e+00  9.9999999994181088e-01  1.0000000000201399e+00  9.9999999999351330e-01  1.0000000000019384e+00  9.9999999999946843e-01  1.0000000000001348e+00  9.9999999999997102e-01  1.0000000000000069e+00  1.0000000000000002e+00  1.0000000000000016e+00  1.0000000000000013e+00  1.0000000000000020e+00  1.0000000000000004e+00  1.0000000000000007e+00  1.0000000000000004e+00  1.0000000000000007e+00  1.0000000000000000e+00  1.0000000000000002e+00  1.0000000000000004e+00  1.0000000000000002e+00  1.0000000000000011e+00  1.0000000000000002e+00  1.0000000000000007e+00  1.0000000000000002e+00  1.0000000000000007e+00  1.0000000000000004e+00  1.0000000000000011e+00  9.9999999999999778e-01  1.0000000000000120e+00  9.9999999999996181e-01  1.0000000000001246e+00  9.9999999999962963e-01  1.0000000000010318e+00  9.9999999999667721e-01  1.0000000000077518e+00  9.9999999997703470e-01  1.0000000000545570e+00  9.9999999985080701e-01  1.0000000003541298e+00  9.9999999911854154e-01  1.0000000021288895e+00  9.9999999488417557e-01  1.0000000117063397e+00  9.9999997413712494e-01  1.0000000682529875e+00  9.9999970700525165e-01  1.0000015221960916e+00  9.9999350679209043e-01  1.0000189423190387e+00  9.9996884385350426e-01  1.0000648249958604e+00  9.9899233553055111e-01  1.0093903910948898e+00  9.5331377199159395e-01  6.0928364070675212e-01  6.7488987725199601e-01  4.8312542164269079e-01  7.8673491925157746e-01  4.7156425429593007e-01  5.4591603752626872e-01  9.7927382537201135e-01  9.5347783210290071e-01  4.5189213265892825e-01  3.7309054719129170e-01  3.2477787163825900e-01  2.8743591329557333e-01  2.5768520753435137e-01  2.3083284980466651e-01  2.1767360400397504e-01  2.0378074511709340e-01  1.8367054513581801e-01  1.6568879443866480e-01  1.5614121989436783e-01  1.4066693658489546e-01  1.2866439159643392e-01  1.1958480694566388e-01  1.1051263075090410e-01  9.5973460569357849e-02  8.8928894349905654e-02  7.9777012346176748e-02  6.5318615560365917e-02  5.3076076043980264e-02  3.7779564852635901e-02  1.7476587524741315e-02  3.4936981084171324e-03  -5.9939559781138638e-03  -9.5915564126357027e-03  -5.3415352446836411e-03  2.0766736158211174e-03  4.8393063095075444e-03  1.0671020400090045e-03  -1.9022377467801876e-03  -2.1479442449699915e-03  1.9007061223524978e-03  3.3515301760595438e-03  -6.1279531304326553e-04  -6.6572827565181500e-02  -1.3759840620641425e-01  -7.9979370586854792e-01  1.3021884204156566e+00  2.0657422377769369e-01  1.8780889899199907e-01  4.4012537559826226e-01  5.8781906581825161e-01  -2.5358837238417742e-01  2.8843159762603932e-01  7.1372374002330585e-01  -3.0247376168771895e-01  3.5189997665003242e-01  1.0891347696154412e+00  -4.1129386222003472e-01  -1.0122223287007990e+00  -1.6077764641445155e-01  1.9789882151386573e-01  -2.1492508534174964e-01  -1.9032466682625376e-01  1.6572409134368086e-02  -9.1301128292046868e-02  -1.5529929445505103e-01  -5.9181580441458751e-03  -9.2304962447218204e-03  -5.7925790178352116e-02  4.6903926484695831e-02  6.1970904094928149e-02  1.0288869492540081e-02  7.9718275450821177e-02  1.2644559849822185e-01  1.1126347977502972e-01  1.5521572120711821e-01  1.7953769028353558e-01  1.5632526086196655e-01  1.9002097972663978e-01  2.0453842597313696e-01  2.1775402008925687e-01  1.9085333758892553e-01  2.3471149038179698e-01  1.4401614944331642e-01  1.8468163662319845e-01  1.5079825266289001e-01  1.6101648149635250e-01  1.7149305175465088e-01  1.7811843538917657e-01  2.0450023022602590e-01  2.3971688937612023e-01  2.7653058491715682e-01  4.4879117861925277e-01  6.5521995158946289e-01  1.0263959505912275e+00  6.1011312762012569e-02  -2.5586760379085033e-01  3.9604025093260703e-01  8.0547501965621027e-01  9.4328991583536059e-01  2.5909420774630426e-01  -5.6011179356900163e-02  5.5718961589290195e-01  1.1620068321444146e+00  2.7610616888392436e-01  -1.2856541642103034e-01  5.2506293797431647e-01  1.1847084932960734e+00  3.1654488136285192e-01  -1.6448654217916711e-01  5.4636863430433358e-01  1.1404458109304494e+00  3.0340343840232969e-01  -2.2407525342853923e-01  1.7636492528397196e-01  6.2673573835740592e-01  9.7522939865468028e-01  3.8459542791058893e-01  -2.4084992200454872e-01  1.7940724198538921e-01  5.6554723277515462e-01  1.0593736301743890e+00  2.8766275653360235e-01  -1.8593111472162388e-01  1.1680153139832618e-01  6.5023115548058374e-01  9.5825099372892808e-01  3.4115948072402491e-01  -2.7215590415603380e-01  2.0824393613156117e-01  5.7597611571561136e-01  1.0362153422225870e+00  2.6308389506231666e-01  -2.4202713698339054e-01  1.7586813622770833e-01  6.4167042426898779e-01  9.5604539095731189e-01  3.0055197443396953e-01  -3.0446622342118257e-01  2.3576754913163131e-01  6.0915067864330119e-01  1.0012874929950166e+00  2.8535953790254642e-01  -1.6976049657952436e-01  5.3256850196208538e-01  1.0846899080934114e+00  2.1294957145332441e-01  -3.6020255535009910e-01  2.5312698416066054e-01  6.6527322121359489e-01  9.3374174611131000e-01  1.6432788666774337e-01  -3.0408402622032404e-01  2.3254401018934534e-01  6.5958234371230984e-01  9.5015974187245011e-01  7.0981256178808141e-02  -3.2978783585816934e-01  2.7142076752319744e-01  7.0709385626609911e-01  9.0181660626318494e-01  9.2154620079583166e-02  -2.1390396736945563e-01  4.6797168517805793e-01  7.1987015911265562e-01  -1.6544538840131573e-01  3.2140855648881622e-01  8.1163880242313913e-01  -1.0257082699665396e-01  2.2381580524314665e-01  9.2217038761494130e-01  3.2778009167317412e-01  9.2284092951375718e-01  1.9783020411923049e+00  2.5916987386761083e+00  2.2919648919483553e+00  2.3507721554902217e+00  2.2764894815317698e+00  1.9910930439177454e+00  2.0754174634284430e+00  2.0154319380860550e+00  1.7622134607924631e+00  1.8424597834789154e+00  1.8075508066515795e+00  1.6341598305060514e+00  1.6685299396972859e+00  1.6825525758542761e+00  1.5535015235259342e+00  1.5478109184818909e+00  1.6360945094736912e+00  1.4401471631089764e+00  1.5543780950582200e+00  1.5112371247784941e+00  1.4359963454199849e+00  1.5144860865574177e+00  1.4213052670836686e+00  1.4628034710810129e+00  1.4284656299275016e+00  1.4058146479797660e+00  1.4369742799159633e+00  1.3865164976110755e+00  1.3668649935373622e+00  1.4510576527247490e+00  1.2799139397623187e+00  1.4390890388048865e+00  1.3233749306002824e+00  1.3340435838519402e+00  1.3661600974796966e+00  1.3095130269166502e+00  1.3309475471715249e+00  1.2941573181672312e+00  1.3635575130366875e+00  1.2016717872701754e+00  1.4127798622728469e+00  1.1814397483080139e+00  1.3480009900917571e+00  1.2468130174655319e+00  1.2761919023788257e+00  1.2510692666510794e+00  1.2826814059819218e+00  1.2102805026353982e+00  1.2781827024651897e+00  1.2101447644185832e+00  1.2286667550729680e+00  1.2230743438207028e+00  1.2019090520469926e+00  1.2236840043021466e+00  1.1971254900180348e+00  1.2430701373810105e+00  1.3152354291765098e+00  1.1259352069473549e+00  1.6311134599640893e+00  1.1141293331786288e+00  1.4895579085998314e+00  9.6836765557308124e-01  3.1987704694717845e-01  1.0002395109759625e+00  1.1307188508471044e+00  6.9234008843301557e-03  1.2573889515840655e+00  1.0779276832582814e+00  3.0541421641215646e-02  1.1709816391869239e+00  9.1280651347255493e-01  -2.1107185808063231e-01  3.2186112246205800e-01  8.9622948401480873e-01  8.2413645119922843e-02  2.1074386843284415e-01  1.4679245548478952e+00  8.9750299569039604e-01  1.1690881704824803e+00  3.1576260287202712e-01  1.0399595346902621e+00  1.3649779261421418e+00  9.1319488175506813e-01  1.8002398844797107e-01  1.2973684440969819e+00  9.8261633516235602e-01  1.4045677576493172e+00  1.1010412963011782e+00  1.2146772030702357e+00  1.2941418754998961e+00  1.0729476244111131e+00  1.4556556510005407e+00  1.2612707241213661e+00  1.2524983493373483e+00  1.2640581032308347e+00  1.2269646873821030e+00  1.2756893209361317e+00  1.2623796666414033e+00  1.3422411999933952e+00  1.3062509522101442e+00  1.2550800422362651e+00  1.2229228396610878e+00  1.3239649056142389e+00  1.2538943472112865e+00  1.3200705153892509e+00  1.1849033947797145e+00  1.1989554427386746e+00  1.0335197342229847e+00  8.6403133960900791e-01  -7.3594686119381192e-02  -4.7566376533748352e-02  7.8291078275561490e-02  0.0000000000000000e+00  0.0000000000000000e+00  0.0000000000000000e+00  0.0000000000000000e+00  0.0000000000000000e+00  0.0000000000000000e+00  0.0000000000000000e+00  0.0000000000000000e+00  0.0000000000000000e+00  0.0000000000000000e+00  0.0000000000000000e+00  0.0000000000000000e+00  0.0000000000000000e+00  0.0000000000000000e+00  0.0000000000000000e+00  0.0000000000000000e+00  0.0000000000000000e+00  0.0000000000000000e+00  0.0000000000000000e+00  0.0000000000000000e+00  0.0000000000000000e+00  0.0000000000000000e+00  0.0000000000000000e+00  0.0000000000000000e+00  0.0000000000000000e+00  0.0000000000000000e+00  0.0000000000000000e+00  0.0000000000000000e+00  0.0000000000000000e+00  0.0000000000000000e+00  0.0000000000000000e+00  0.0000000000000000e+00  0.0000000000000000e+00  0.0000000000000000e+00  0.0000000000000000e+00  0.0000000000000000e+00  0.0000000000000000e+00  0.0000000000000000e+00  0.0000000000000000e+00  0.0000000000000000e+00  0.0000000000000000e+00  0.0000000000000000e+00  0.0000000000000000e+00  0.0000000000000000e+00  0.0000000000000000e+00  0.0000000000000000e+00  0.0000000000000000e+00  0.0000000000000000e+00  0.0000000000000000e+00  0.0000000000000000e+00  0.0000000000000000e+00  0.0000000000000000e+00  0.0000000000000000e+00  0.0000000000000000e+00  0.0000000000000000e+00  0.0000000000000000e+00  0.0000000000000000e+00  0.0000000000000000e+00  0.0000000000000000e+00  0.0000000000000000e+00  0.0000000000000000e+00  0.0000000000000000e+00  0.0000000000000000e+00  0.0000000000000000e+00  0.0000000000000000e+00  0.0000000000000000e+00  0.0000000000000000e+00  0.0000000000000000e+00  0.0000000000000000e+00  0.0000000000000000e+00  0.0000000000000000e+00  0.0000000000000000e+00  0.0000000000000000e+00  0.0000000000000000e+00  0.0000000000000000e+00  0.0000000000000000e+00  0.0000000000000000e+00  0.0000000000000000e+00  0.0000000000000000e+00  0.0000000000000000e+00  0.0000000000000000e+00  0.0000000000000000e+00  0.0000000000000000e+00  0.0000000000000000e+00  0.0000000000000000e+00  0.0000000000000000e+00  0.0000000000000000e+00  0.0000000000000000e+00  -2.0905571068103267e-02  -8.3286081187630340e-02  -4.2344814762146882e-02  -7.1227574719087165e-03  1.2883247537667886e-04  3.1382364432235995e-05  -9.4039084564036138e-06  3.1215587127079807e-06  -3.7281346486333455e-08  -6.7472268552093047e-08  -2.9777400392543068e-07  6.1983815986679943e-07  -7.6065920105958887e-07  1.0762850232455072e-06  -1.8059943722612617e-06  2.5485558050006413e-06  -3.5797530541774028e-06  5.1221865618256434e-06  -6.3252669863434055e-06  7.5090468366423361e-06  -8.9476682359904924e-06  9.8066132791880742e-06  -1.1197609598153433e-05  1.2687414593140178e-05  -1.3772975657719481e-05  1.5340530757108920e-05  -1.5821602458902573e-05  1.6561435273735169e-05  -1.6472509468168296e-05  1.6648065116764232e-05  -1.7098801317275773e-05  1.7858560019267864e-05  -1.8489321619844691e-05  1.7967302249657519e-05  -1.6019393325568150e-05  1.2263499062370345e-05  -6.8322637915934578e-06  1.2553016623162201e-07  6.9282686809999954e-06  -1.3997643196756308e-05  2.0947361105091851e-05  -2.6595649615289196e-05  2.8552259934233263e-05  -2.5123033691883894e-05  1.5627788882863769e-05  -5.0616239290994200e-09  -1.9769155974101758e-05  4.0660534782526619e-05  -6.3283816754415752e-05  9.1128001640658406e-05  -1.2611358454916880e-04  1.7041893109930674e-04  -2.2457940209271105e-04  2.8167241608949089e-04  -3.3562061179569902e-04  3.8001722391561084e-04  -3.9607001552650662e-04  3.7225355404566413e-04  -2.9983310836628475e-04  1.7506316972473211e-04  -4.5349082933964948e-05  -7.4078309415216313e-05  1.0607293137919040e-04  -5.9643915096638275e-05  -1.2106627718901716e-04  3.9883479589071231e-04  -8.1816370914665015e-04  1.3365214070305484e-03  -2.0094475040275282e-03  2.8189232012856050e-03  -3.8273006883612617e-03  4.9209007434849695e-03  -5.9150440479712203e-03  6.3546120368186184e-03  -5.8203508445104930e-03  3.9397824090099814e-03  -8.4250544735001501e-04  -2.8254836001477177e-03  5.6107812436910097e-03  -5.7576731483777498e-03  1.7143982453622852e-03  6.6476194980909769e-03  -1.7541879996794442e-02  2.6945716886341321e-02  -2.9615406578781239e-02  1.9879577193598150e-02  7.1893704618077817e-03  -4.9152160441216355e-02  8.9453351913493448e-02  8.2877071718619414e-03  -2.0838734438641249e-02  -7.0825040220420521e-03  -3.9573440292592589e-05  6.9723074997865689e-05  -1.7009670288526339e-05  2.7042409367374719e-06  1.1648570930478529e-07  1.2706485850954015e-07  -3.1861630824191868e-07  1.9561199686239628e-07  -1.1341760911705260e-07  2.8565713307787484e-07  -3.3628156704792572e-07  3.0602944266389191e-07  -3.8609194979869920e-07  -1.3331842599259004e-08  7.3323878164167351e-07  -1.3326580506972234e-06  2.2968085050795838e-06  -3.0086527403513173e-06  3.5399265871796796e-06  -4.4580863141577640e-06  5.1803545277544644e-06  -6.4447162399611313e-06  7.5659356937550888e-06  -8.7470684119404577e-06  9.5522242588724968e-06  -9.8053345276237893e-06  9.8258477020744784e-06  -1.0036614592075471e-05  1.1024594724197052e-05  -1.2621038199464096e-05  1.4419827335513295e-05  -1.5852751408945231e-05  1.6312064496273484e-05  -1.5206872185986597e-05  1.2606555930735868e-05  -8.9722332093900569e-06  4.1253255410980783e-06  2.6836983208141974e-06  -1.1217698386307874e-05  2.0038426571152567e-05  -2.7436841983930572e-05  3.1160249637380672e-05  -2.9265674977161385e-05  2.3049584901685861e-05  -1.5782757504980409e-05  8.4328200423797414e-06  -4.9089545561927326e-07  -9.7761461222263362e-06  2.7836517689120348e-05  -5.6860985898783939e-05  9.6661891472210466e-05  -1.5128679351094013e-04  2.1778767235920777e-04  -2.8690563123915427e-04  3.4697826161966881e-04  -3.6368266702811828e-04  3.3020199193831352e-04  -2.2852723886906354e-04  9.3093112908587425e-05  6.0923325070199470e-05  -1.8353442557015641e-04  2.6441233862610448e-04  -2.6772987608161212e-04  2.0222653304686122e-04  -5.0706679178333012e-05  -1.7898002136546644e-04  5.5786972963303770e-04  -1.1767478148062775e-03  2.1709656450793792e-03  -3.5373918874911192e-03  5.1044737691108072e-03  -6.4098741169742231e-03  6.8383626647630386e-03  -5.7175074340678565e-03  2.7348196996607541e-03  1.74609130972809