<?xml version="1.0"?>
<VTKFile type="UnstructuredGrid"  version="0.1"  >
<UnstructuredGrid>
<Piece  NumberOfPoints="21600" NumberOfCells="42542">
<Points>
<DataArray  type="Float64"  NumberOfComponents="3"  format="ascii">0 0 0  0.77 0 0  0.77 0.15 0  0 0.15 0  0.003221757322170014 0 0  0.006443514644340046 0 0  0.009665271966510193 0 0  0.01288702928868034 0 0  0.01610878661085048 0 0  0.01933054393302049 0 0  0.02255230125519027 0 0  0.02577405857735967 0 0  0.02899581589952872 0 0  0.03221757322169801 0 0  0.03543933054386744 0 0  0.03866108786603686 0 0  0.04188284518820627 0 0  0.0451046025103757 0 0  0.04832635983254521 0 0  0.05154811715471607 0 0  0.05476987447688695 0 0  0.05799163179905782 0 0  0.06121338912122846 0 0  0.06443514644339859 0 0  0.06765690376556875 0 0  0.0708786610877389 0 0  0.07410041840990904 0 0  0.0773221757320792 0 0  0.08054393305425039 0 0  0.08376569037642198 0 0  0.0869874476985936 0 0  0.09020920502076518 0 0  0.0934309623429339 0 0  0.0966527196651024 0 0  0.09987447698726967 0 0  0.1030962343094369 0 0  0.1063179916316041 0 0  0.1095397489537714 0 0  0.1127615062759386 0 0  0.1159832635981051 0 0  0.1192050209202709 0 0  0.1224267782424358 0 0  0.1256485355646001 0 0  0.1288702928867644 0 0  0.1320920502089288 0 0  0.1353138075310958 0 0  0.1385355648532632 0 0  0.1417573221754333 0 0  0.1449790794976035 0 0  0.1482008368197736 0 0  0.1514225941419428 0 0  0.1546443514641101 0 0  0.157866108786276 0 0  0.1610878661084403 0 0  0.1643096234306047 0 0  0.167531380752769 0 0  0.1707531380749333 0 0  0.1739748953970977 0 0  0.177196652719262 0 0  0.1804184100414264 0 0  0.1836401673635935 0 0  0.1868619246857611 0 0  0.1900836820079313 0 0  0.1933054393301014 0 0  0.1965271966522716 0 0  0.1997489539744406 0 0  0.2029707112966078 0 0  0.2061924686187736 0 0  0.209414225940938 0 0  0.2126359832631022 0 0  0.2158577405852666 0 0  0.219079497907431 0 0  0.2223012552295953 0 0  0.2255230125517597 0 0  0.2287447698739242 0 0  0.2319665271960914 0 0  0.2351882845182592 0 0  0.2384100418404293 0 0  0.2416317991625994 0 0  0.2448535564847696 0 0  0.2480753138069371 0 0  0.2512970711291014 0 0  0.2545188284512658 0 0  0.2577405857734302 0 0  0.2609623430955986 0 0  0.2641841004177688 0 0  0.2674058577399389 0 0  0.270627615062109 0 0  0.2738493723842792 0 0  0.2770711297064487 0 0  0.280292887028613 0 0  0.2835146443507774 0 0  0.2867364016729417 0 0  0.2899581589951061 0 0  0.2931799163172705 0 0  0.2964016736394348 0 0  0.2996234309615992 0 0  0.3028451882837672 0 0  0.3060669456059373 0 0  0.3092887029281075 0 0  0.3125104602502776 0 0  0.3157322175724478 0 0  0.3189539748946177 0 0  0.322175732216782 0 0  0.3253974895389464 0 0  0.3286192468611107 0 0  0.3318410041832751 0 0  0.3350627615054395 0 0  0.3382845188276038 0 0  0.3415062761497681 0 0  0.3447280334719325 0 0  0.3479497907940968 0 0  0.3511715481162612 0 0  0.3543933054384255 0 0  0.3576150627605947 0 0  0.3608368200827649 0 0  0.364058577404935 0 0  0.3672803347271051 0 0  0.3705020920492753 0 0  0.373723849371444 0 0  0.3769456066936084 0 0  0.3801673640157748 0 0  0.383389121337945 0 0  0.3866108786601209 0 0  0.3898326359823028 0 0  0.3930543933044846 0 0  0.3962761506266662 0 0  0.399497907948848 0 0  0.4027196652710298 0 0  0.4059414225932116 0 0  0.4091631799153934 0 0  0.4123849372375751 0 0  0.4156066945597569 0 0  0.4188284518819387 0 0  0.4220502092041222 0 0  0.4252719665263097 0 0  0.4284937238484974 0 0  0.4317154811706849 0 0  0.4349372384928725 0 0  0.4381589958150601 0 0  0.4413807531372476 0 0  0.4446025104594352 0 0  0.4478242677816181 0 0  0.4510460251037998 0 0  0.4542677824259815 0 0  0.4574895397481634 0 0  0.4607112970703451 0 0  0.4639330543925269 0 0  0.4671548117147087 0 0  0.4703765690368904 0 0  0.4735983263590722 0 0  0.4768200836812568 0 0  0.4800418410034444 0 0  0.483263598325632 0 0  0.4864853556478196 0 0  0.4897071129700028 0 0  0.4929288702921845 0 0  0.4961506276143663 0 0  0.4993723849365479 0 0  0.5025941422587239 0 0  0.5058158995809008 0 0  0.5090376569030826 0 0  0.5122594142252677 0 0  0.515481171547461 0 0  0.5187029288696494 0 0  0.5219246861918312 0 0  0.525146443514013 0 0  0.5283682008361947 0 0  0.5315899581583845 0 0  0.5348117154805778 0 0  0.5380334728027617 0 0  0.5412552301249435 0 0  0.5444769874471141 0 0  0.5476987447692853 0 0  0.550920502091467 0 0  0.5541422594136513 0 0  0.5573640167358447 0 0  0.560585774058034 0 0  0.5638075313802158 0 0  0.5670292887023975 0 0  0.5702510460245793 0 0  0.5734728033467682 0 0  0.5766945606689615 0 0  0.579916317991155 0 0  0.5831380753133483 0 0  0.5863598326355314 0 0  0.5895815899577131 0 0  0.5928033472798949 0 0  0.5960251046020785 0 0  0.5992468619242718 0 0  0.6024686192464619 0 0  0.6056903765686437 0 0  0.6089121338908206 0 0  0.6121338912129908 0 0  0.6153556485351673 0 0  0.618577405857349 0 0  0.6217991631795386 0 0  0.625020920501732 0 0  0.6282426778239159 0 0  0.6314644351460976 0 0  0.6346861924682795 0 0  0.6379079497904622 0 0  0.6411297071126555 0 0  0.6443514644348465 0 0  0.6475732217570283 0 0  0.650794979079206 0 0  0.6540167364013761 0 0  0.6572384937235518 0 0  0.6604602510457335 0 0  0.6636820083679225 0 0  0.6669037656901158 0 0  0.6701255230123004 0 0  0.6733472803344823 0 0  0.6765690376566641 0 0  0.6797907949788459 0 0  0.6830125523010393 0 0  0.686234309623231 0 0  0.6894560669454127 0 0  0.6926778242675914 0 0  0.6958995815897615 0 0  0.6991213389119363 0 0  0.7023430962341181 0 0  0.7055648535563062 0 0  0.7087866108784994 0 0  0.712008368200685 0 0  0.7152301255228668 0 0  0.7184518828450486 0 0  0.7216736401672305 0 0  0.724895397489423 0 0  0.7281171548116155 0 0  0.7313389121337973 0 0  0.7345606694559768 0 0  0.7377824267781468 0 0  0.7410041841003209 0 0  0.7442259414225026 0 0  0.7474476987446899 0 0  0.7506694560668832 0 0  0.7538912133890696 0 0  0.7571129707112513 0 0  0.760334728033433 0 0  0.7635564853556149 0 0  0.7667782426778067 0 0  0.77 0.001685393258423789 0  0.77 0.003370786516847669 0  0.77 0.005056179775271247 0  0.77 0.006741573033694517 0  0.77 0.008426966292117821 0  0.77 0.01011235955054176 0  0.77 0.01179775280896623 0  0.77 0.0134831460673904 0  0.77 0.01516853932581489 0  0.77 0.01685393258423891 0  0.77 0.01853932584266291 0  0.77 0.02022471910108589 0  0.77 0.02191011235950794 0  0.77 0.02359550561792999 0  0.77 0.02528089887635205 0  0.77 0.02696629213477411 0  0.77 0.02865168539319714 0  0.77 0.03033707865161956 0  0.77 0.03202247191004162 0  0.77 0.03370786516846367 0  0.77 0.03539325842688572 0  0.77 0.03707865168530778 0  0.77 0.03876404494372984 0  0.77 0.0404494382021519 0  0.77 0.04213483146057394 0  0.77 0.04382022471899601 0  0.77 0.04550561797741807 0  0.77 0.04719101123584013 0  0.77 0.04887640449426219 0  0.77 0.05056179775268425 0  0.77 0.0522471910111063 0  0.77 0.05393258426952837 0  0.77 0.05561797752795105 0  0.77 0.05730337078637505 0  0.77 0.05898876404479723 0  0.77 0.0606741573032193 0  0.77 0.06235955056164135 0  0.77 0.06404494382006341 0  0.77 0.06573033707848548 0  0.77 0.06741573033690752 0  0.77 0.06910112359532959 0  0.77 0.07078651685375165 0  0.77 0.0724719101121737 0  0.77 0.07415730337059653 0  0.77 0.07584269662902443 0  0.77 0.07752808988745429 0  0.77 0.07921348314588413 0  0.77 0.08089887640431678 0  0.77 0.08258426966274923 0  0.77 0.08426966292117907 0  0.77 0.08595505617960987 0  0.77 0.08764044943804362 0  0.77 0.08932584269647403 0  0.77 0.09101123595490389 0  0.77 0.09269662921333673 0  0.77 0.09438202247176901 0  0.77 0.09606741573019884 0  0.77 0.09775280898862983 0  0.77 0.09943820224706355 0  0.77 0.1011235955054938 0  0.77 0.1028089887639236 0  0.77 0.1044943820223567 0  0.77 0.1061797752807888 0  0.77 0.1078651685392186 0  0.77 0.1095505617976498 0  0.77 0.1112359550560835 0  0.77 0.1129213483145136 0  0.77 0.1146067415729456 0  0.77 0.1162921348313787 0  0.77 0.1179775280898085 0  0.77 0.1196629213482387 0  0.77 0.1213483146066724 0  0.77 0.1230337078651035 0  0.77 0.1247191011235322 0  0.77 0.1264044943819605 0  0.77 0.1280898876403903 0  0.77 0.1297752808988242 0  0.77 0.1314606741572554 0  0.77 0.1331460674156853 0  0.77 0.1348314606741154 0  0.77 0.1365168539325504 0  0.77 0.1382022471909802 0  0.77 0.13988764044941 0  0.77 0.1415730337078443 0  0.77 0.1432584269662752 0  0.77 0.144943820224705 0  0.77 0.1466292134831355 0  0.77 0.1483146067415701 0  0.7667782426778414 0.15 0  0.7635564853556813 0.15 0  0.7603347280335111 0.15 0  0.757112970711341 0.15 0  0.7538912133891708 0.15 0  0.7506694560670005 0.15 0  0.7474476987448303 0.15 0  0.7442259414226602 0.15 0  0.74100418410049 0.15 0  0.7377824267783197 0.15 0  0.7345606694561496 0.15 0  0.7313389121339794 0.15 0  0.7281171548118092 0.15 0  0.724895397489639 0.15 0  0.7216736401674688 0.15 0  0.7184518828452986 0.15 0  0.7152301255231284 0.15 0  0.7120083682009583 0.15 0  0.708786610878788 0.15 0  0.7055648535566178 0.15 0  0.7023430962344477 0.15 0  0.6991213389122775 0.15 0  0.6958995815901072 0.15 0  0.692677824267937 0.15 0  0.6894560669457669 0.15 0  0.6862343096235967 0.15 0  0.6830125523014264 0.15 0  0.6797907949792563 0.15 0  0.6765690376570861 0.15 0  0.6733472803349159 0.15 0  0.6701255230127456 0.15 0  0.6669037656905755 0.15 0  0.6636820083684053 0.15 0  0.6604602510462351 0.15 0  0.657238493724065 0.15 0  0.6540167364018947 0.15 0  0.6507949790797245 0.15 0  0.6475732217575543 0.15 0  0.644351464435384 0.15 0  0.6411297071132231 0.15 0  0.6379079497910645 0.15 0  0.634686192468906 0.15 0  0.6314644351467468 0.15 0  0.6282426778245765 0.15 0  0.6250209205024085 0.15 0  0.62179916318025 0.15 0  0.6185774058580914 0.15 0  0.6153556485359328 0.15 0  0.6121338912137689 0.15 0  0.6089121338915987 0.15 0  0.6056903765694354 0.15 0  0.6024686192472768 0.15 0  0.5992468619251182 0.15 0  0.5960251046029597 0.15 0  0.5928033472807912 0.15 0  0.589581589958621 0.15 0  0.5863598326364508 0.15 0  0.5831380753142792 0.15 0  0.5799163179920974 0.15 0  0.57669456
[...]
<PointData  Scalars="pressure"> 
<DataArray  type="Float64"  Name="pressure"  format="ascii">1.7211537077709982e+04  2.0821347348013028e+00  -1.6766001979377561e+00  1.7215715567565952e+04  1.7185674665452079e+04  1.7166034443972436e+04  1.7148696440219741e+04  1.2475236143798105e+04  1.2458496338767296e+04  1.2443350567681558e+04  1.2428343271477201e+04  1.2413449169658490e+04  1.2398643843018528e+04  1.2383907286029065e+04  1.2369227542252851e+04  1.2354597208069703e+04  1.2340011617301212e+04  1.2325467914410139e+04  1.2310964517885266e+04  1.2296500789795919e+04  1.2282076823678432e+04  1.2267693303868140e+04  1.2253351409936324e+04  1.2239052750741464e+04  1.2224799318608339e+04  1.2210593457617639e+04  1.2196437842067840e+04  1.2182335462455339e+04  1.2168289617133272e+04  1.2154303908333939e+04  1.2140382241583073e+04  1.2126528827757014e+04  1.2112748187177522e+04  1.2099045155223559e+04  1.2085424888983989e+04  1.2071892874484041e+04  1.2058454933999676e+04  1.2045117232927858e+04  1.2031886285608014e+04  1.2018768959387944e+04  1.2005772476093955e+04  1.1992904409893026e+04  1.1980172680317977e+04  1.1967585538954640e+04  1.1955151547944981e+04  1.1942879548024035e+04  1.1930778613240756e+04  1.1918857988763421e+04  1.1907127007144440e+04  1.1895594976965214e+04  1.1884271035632575e+04  1.1873163954781043e+04  1.1862281881386849e+04  1.1851631988699777e+04  1.1841219995295876e+04  1.1831049481567476e+04  1.1821120877229063e+04  1.1811429880223728e+04  1.1801964821452506e+04  1.1792701914674974e+04  1.1783595913058874e+04  1.1774560332171475e+04  1.1765418519579875e+04  1.1755631653136727e+04  1.1742733697891974e+04  1.1718482886628854e+04  1.1677691341418085e+04  1.1637053020475169e+04  1.1596270765599091e+04  1.1555916014400620e+04  1.1516554313997880e+04  1.1479187270752842e+04  1.1445086426078589e+04  1.1401667250001619e+04  1.1340274553881285e+04  1.1286101660559749e+04  1.1234587744585411e+04  1.1184454897404445e+04  1.1135206188531190e+04  1.1086583070889947e+04  1.1038433875167351e+04  1.0990662322125378e+04  1.0943203499667798e+04  1.0896011482866254e+04  1.0849052399560582e+04  1.0802300282155589e+04  1.0755734453966292e+04  1.0709337812947637e+04  1.0663095667129124e+04  1.0616994923720471e+04  1.0571023512901975e+04  1.0525169971773090e+04  1.0479423140107119e+04  1.0433771935655182e+04  1.0388205187073412e+04  1.0342711509451310e+04  1.0297279212204030e+04  1.0251896232497174e+04  1.0206550089823848e+04  1.0161227859091638e+04  1.0115916160745857e+04  1.0070601167140459e+04  1.0025268624637209e+04  9.9799038908295734e+03  9.9344919859231231e+03  9.8890176567464750e+03  9.8434654512100733e+03  9.7978198003843645e+03  9.7520651048290674e+03  9.7061858214599270e+03  9.6601665471472988e+03  9.6139920954321060e+03  9.5676475632121328e+03  9.5211183849575100e+03  9.4743903728946461e+03  9.4274497425715635e+03  9.3802831241977929e+03  9.3328775610606681e+03  9.2852204970846724e+03  9.2372997561766751e+03  9.1891035163583219e+03  9.1406202818220227e+03  9.0918388559723717e+03  9.0427483182542146e+03  8.9933380071624979e+03  8.9435975113145505e+03  8.8935166698858593e+03  8.8430855831057270e+03  8.7922946329107654e+03  8.7411345132939114e+03  8.6895962693846832e+03  8.6376713438704646e+03  8.5853516290290045e+03  8.5326295223967081e+03  8.4794979839470052e+03  8.4259505925984649e+03  8.3719815999077873e+03  8.3175859789217411e+03  8.2627594663555628e+03  8.2074985965187807e+03  8.1518007257107429e+03  8.0956640461408342e+03  8.0390875887768134e+03  7.9820712148718567e+03  7.9246155962549537e+03  7.8667221847715255e+03  7.8083931715262333e+03  7.7496314367953673e+03  7.6904404916381354e+03  7.6308244123413861e+03  7.5707877688819681e+03  7.5103355485876027e+03  7.4494730761278452e+03  7.3882059308774678e+03  7.3265398625768648e+03  7.2644807060771509e+03  7.2020342958102829e+03  7.1392063804808722e+03  7.0760025383398197e+03  7.0124280932834872e+03  6.9484880319281692e+03  6.8841869217460717e+03  6.8195288303133939e+03  6.7545172457199515e+03  6.6891549982210217e+03  6.6234441832693228e+03  6.5573860861565090e+03  6.4909811086037344e+03  6.4242286977732911e+03  6.3571272783245304e+03  6.2896741882957085e+03  6.2218656197617138e+03  6.1536965653878497e+03  6.0851607721582332e+03  6.0162507037140585e+03  5.9469575128647839e+03  5.8772710259393780e+03  5.8071797407154199e+03  5.7366708396787844e+03  5.6657302203350564e+03  5.5943425441885938e+03  5.5224913058249022e+03  5.4501589232715451e+03  5.3773268504579528e+03  5.3039757121531138e+03  5.2300854612285439e+03  5.1556355574811087e+03  5.0806051665778159e+03  5.0049733769615304e+03  4.9287194318255451e+03  4.8518229725510146e+03  4.7742642893432585e+03  4.6960245742515381e+03  4.6170861713393688e+03  4.5374328185323429e+03  4.4570498756387460e+03  4.3759245332209748e+03  4.2940459974122059e+03  4.2114056463968809e+03  4.1279971550887694e+03  4.0438165855064512e+03  3.9588624414035571e+03  3.8731356868169973e+03  3.7866397292835622e+03  3.6993803694853714e+03  3.6113657199829909e+03  3.5226060964287940e+03  3.4331138852043287e+03  3.3429033917901288e+03  3.2519906743397773e+03  3.1603933669249200e+03  3.0681304967504097e+03  2.9752222993446294e+03  2.8816900353426472e+03  2.7875558120185929e+03  2.6928424122326683e+03  2.5975731329563282e+03  2.5017716350420369e+03  2.4054618054467378e+03  2.3086676326942766e+03  2.2114130959859954e+03  2.1137220680558166e+03  2.0156182315955632e+03  1.9171250088698669e+03  1.8182655039801973e+03  1.7190624571254486e+03  1.6195382101465241e+03  1.5197146826199669e+03  1.4196133577978646e+03  1.3192552777847034e+03  1.2186610475154912e+03  1.1178508474299435e+03  1.0168444553424828e+03  9.1566127919001758e+02  8.1432040488486962e+02  7.1284066931984478e+02  6.1124078112662187e+02  5.0953955279107123e+02  4.0775665767309420e+02  3.0591505488972524e+02  2.0403158052457616e+02  1.0211012094283278e+02  4.3301230673942254e-01  2.1943584995896073e-02  4.0572369197563263e-03  1.8450762136946602e-03  2.2455261915739215e-04  -8.4297733459119401e-04  -1.5951169514659858e-03  -2.1892846370968034e-03  -2.6998752469672175e-03  -3.1629318208048749e-03  -3.5969750660403473e-03  -4.0119932820531883e-03  -4.4135807256071259e-03  -4.8049553686145101e-03  -5.1879917587371975e-03  -5.5637735836533237e-03  -5.9329014059011573e-03  -6.2956703918566640e-03  -6.6521763813089125e-03  -7.0023810986374882e-03  -7.3461533448300883e-03  -7.6832956765400424e-03  -8.0135620988188716e-03  -8.3366700710998404e-03  -8.6523088469944911e-03  -8.9601454118889822e-03  -9.2598288268730469e-03  -9.5509935059186774e-03  -9.8332617752156150e-03  -1.0106245950827833e-02  -1.0369550095503482e-02  -1.0622771566426548e-02  -1.0865502432445271e-02  -1.1097330816181590e-02  -1.1317842200664955e-02  -1.1526620727923658e-02  -1.1723250510280380e-02  -1.1907316967588427e-02  -1.2078408199594069e-02  -1.2236116399096794e-02  -1.2380039308865588e-02  -1.2509781722560278e-02  -1.2624957028412083e-02  -1.2725188792324461e-02  -1.2810112375921020e-02  -1.2879376584022538e-02  -1.2932645333551202e-02  -1.2969599336311068e-02  -1.2989937786121441e-02  -1.2993380039706962e-02  -1.2979667279532934e-02  -1.2948564146753511e-02  -1.2899860330266282e-02  -1.2833372096042923e-02  -1.2748943741609861e-02  -1.2646448957377975e-02  -1.2525792074294346e-02  -1.2386909175823024e-02  -1.2229769048742784e-02  -1.2054373942955105e-02  -1.1860760103767420e-02  -1.1648998034529687e-02  -1.1419192435358706e-02  -1.1171481748829638e-02  -1.0906037224196963e-02  -1.0623061383169121e-02  -1.0322785731046013e-02  -1.0005467501340371e-02  -9.6713851491231941e-03  -9.3208322021116133e-03  -8.9541089409174244e-03  -8.5715111998370223e-03  -8.1733153628497628e-03  -7.7597584114905754e-03  -7.3310117814059548e-03  -6.8871481148633333e-03  -6.4281015596048601e-03  -5.9536269361659729e-03  -5.4632748053085843e-03  -4.9564223710222175e-03  -4.4324067934867215e-03  -3.8905087510079936e-03  -3.3258474848041879e-03  -2.6563564203894801e-03  -6.0101162388889154e-04  1.6816912450753289e-02  1.3346834688758660e-01  7.5510517929361171e-02  1.0965101525777268e+02  2.2095661590761475e+02  3.3165150981826326e+02  4.4238502700426943e+02  5.5320243854145758e+02  6.6412873077745985e+02  7.7519181768257272e+02  8.8641913894323397e+02  9.9783849180805089e+02  1.1094786279866626e+03  1.2213696178326916e+03  1.3335431497431734e+03  1.4460328123218874e+03  1.5588743793131675e+03  1.6721061083893048e+03  1.7857690606725207e+03  1.8999074457034824e+03  2.0145689951378870e+03  2.1298053670543391e+03  2.2456725808732758e+03  2.3622314799601959e+03  2.4795482142452870e+03  2.5976947274528643e+03  2.7167492209048746e+03  2.8367965452576736e+03  2.9579284378651996e+03  3.0802434682817079e+03  3.2038464635854016e+03  3.3288470349596510e+03  3.4553565772505058e+03  3.5834826962322313e+03  3.7133193179004561e+03  3.8449295416216701e+03  3.9783161834625030e+03  4.1133707565362338e+03  4.2497812266905266e+03  4.3868460586911424e+03  4.5230355768300324e+03  4.6549150623781097e+03  4.7752174466730994e+03  4.8725192652050828e+03  4.9390067636298982e+03  4.9824682408916979e+03  5.0180703718684235e+03  5.0512295869910104e+03  5.0831870862291389e+03  5.1155774852780296e+03  5.1527309800224493e+03  5.1953774181649951e+03  5.2354388630586946e+03  5.2684142536180025e+03  5.3040043329007049e+03  5.3415607480727585e+03  5.3808839347467483e+03  5.4217369220492938e+03  5.4637584644775625e+03  5.5060663264509058e+03  5.5479310709685687e+03  5.5932407124974070e+03  5.6433635987547414e+03  5.6978891167687480e+03  5.7591090062531202e+03  5.8218122479631502e+03  5.8860034526696472e+03  5.9524352124931538e+03  6.0217489447158478e+03  6.0945375252511694e+03  6.1711634483204725e+03  6.2503240326561336e+03  6.3271345242073630e+03  6.3999421653080808e+03  6.4767451583206348e+03  6.5573893663594381e+03  6.6322351998597615e+03  6.6958243107423295e+03  6.7646758941599701e+03  6.8389259557056203e+03  9.4843744877425488e+03  9.5774285676477557e+03  9.6743318197508015e+03  9.7699605914475251e+03  9.8625829767025716e+03  9.9511291509861676e+03  1.0038346188906795e+04  1.0131378556563426e+04  7.4725380895818525e+03  7.5588196097279533e+03  1.0459092323918951e+04  1.0539480313217309e+04  1.0625451657331498e+04  1.0713088792707989e+04  1.0801242319149193e+04  1.0889409973260828e+04  1.0977183056906566e+04  1.1064050104103648e+04  1.1148896777751494e+04  1.1226946408100504e+04  8.2408801394328748e+03  8.3030867116146328e+03  1.1468098432753228e+04  1.1528894204066462e+04  8.4555614567427328e+03  8.5197409998855128e+03  1.1751647345572073e+04  1.1799063089590811e+04  8.6377874853394769e+03  1.1915883924005100e+04  8.7333407033574731e+03  1.2054487261375554e+04  1.2116213721680730e+04  8.8697898657047263e+03  1.2237445138784473e+04  1.2296189572867917e+04  8.9996772974016931e+03  1.2407617915738543e+04  1.2454270379697875e+04  9.1132387290088118e+03  9.1564522985355488e+03  1.2619416406166782e+04  9.2342425810315981e+03  1.2731956657718205e+04  1.2783106831943571e+04  1.2833738688568486e+04  9.3927177555116450e+03  1.2949567538301839e+04  1.2998178733728326e+04  9.5124157976134484e+03  1.3113832584414959e+04  1.3162108639240178e+04  9.6299117413200565e+03  9.6741672227815834e+03  1.3334323791616787e+04  1.3385874986829651e+04  1.3439223717506602e+04  1.3489628117996654e+04  9.8684479518676162e+03  9.9124005422335958e+03  1.3660283755427499e+04  1.3707915196464695e+04  1.0027167502812401e+04  1.0071159902786238e+04  1.3879133893586368e+04  1.3930878691223012e+04  1.3985119619367051e+04  1.4039343680555814e+04  1.4090894615873460e+04  1.0309332999912534e+04  1.4209346222643040e+04  1.4261920386762111e+04  1.4314009596713076e+04  1.0472429468811679e+04  1.4434270745870475e+04  1.4488649661300475e+04  1.4547109663743462e+04  1.4609728730674182e+04  1.4661845427092032e+04  1.0711027987992993e+04  1.0749430185872152e+04  1.0785866652655943e+04  1.0822313514491565e+04  1.0858660426806448e+04  1.0894756102468133e+04  1.0930496864760737e+04  1.0965785941340580e+04  1.1000528719553786e+04  1.1034654812382512e+04  1.1068174226305875e+04  1.1101215339688477e+04  1.1133900295799642e+04  1.1166255359803063e+04  1.1198656001050489e+04  1.1232714386089849e+04  1.1274728572610678e+04  1.1324642755865960e+04  1.1350577604238748e+04  1.1378727898834813e+04  1.1404704094901612e+04  1.1429081977273136e+04  1.1452684621449946e+04  1.1475831363303854e+04  1.1498956877940180e+04  1.1521716166231983e+04  1.1546172750487138e+04  1.1575190746377000e+04  1.1592941077794176e+04  1.1619852651069146e+04  1.1654985148962111e+04  1.1677562600624020e+04  1.6057032888130783e+04  1.1729924350345706e+04  1.1754761810600978e+04  1.6157140407318675e+04  1.1788267481114786e+04  1.1810556737805808e+04  1.6233993967046012e+04  1.1844232661275189e+04  1.1864202250975208e+04  1.6305577087100561e+04  1.6320582229703872e+04  1.1904722778474690e+04  1.6366265266529683e+04  1.6393531751140916e+04  1.1956275761984109e+04  1.1977299545254853e+04  1.1994093654616476e+04  1.6486985959008889e+04  1.2029629952224703e+04  1.2049006851353472e+04  1.2065120761368622e+04  1.6581612679280232e+04  1.2091964698471094e+04  1.2112075917910055e+04  1.2128724757138385e+04  1.2144616873192772e+04  1.2158472561138131e+04  1.2169948096559225e+04  1.2187116487436433e+04  1.2202964463554648e+04  1.2219774571347738e+04  1.2237919263546150e+04  1.2256076027079676e+04  1.2273726104977302e+04  1.2290842029938096e+04  1.2307335113880517e+04  1.2323784432387572e+04  1.2341471134431107e+04  1.2359638093260193e+04  1.2377551107632667e+04  1.2394681391094278e+04  1.2410890155562143e+04  1.2427324897989014e+04  1.2442820943985636e+04  1.2454299078455340e+04  1.2468158710596050e+04  1.2483845997190449e+04  1.7155506882773356e+04  1.7173056410152330e+04  1.7192764751222290e+04  1.7213352777353673e+04  1.7212246159310274e+04  1.7211481391103163e+04  1.7210766190394337e+04  1.7210038871463890e+04  1.7209293594576837e+04  1.7208535386357773e+04  1.7207770855573330e+04  1.7207006322990928e+04  1.7206247418532621e+04  1.7205499014649435e+04  1.7204765252346326e+04  1.7204049594137989e+04  1.7203354884397624e+04  1.7202683411270678e+04  1.7202036968034008e+04  1.7201416912594777e+04  1.7200824224043503e+04  1.7200259555391229e+04  1.7199723281893563e+04  1.7199215544643797e+04  1.7198736289363365e+04  1.7198285300508654e+04  1.7197862230948977e+04  1.7197466627555790e+04  1.7197097953088753e+04  1.7196755604780348e+04  1.7196438930014439e+04  1.7196147239474856e+04  1.7195879818111851e+04  1.7195635934241462e+04  1.7195414847059135e+04  1.7195215812815117e+04  1.7195038089867943e+04  1.7194880942802683e+04  1.7194743645774852e+04  1.7194625485217101e+04  1.7194525762026002e+04  1.7194443793327970e+04  1.7194378913908677e+04  1.7194330477377076e+04  1.7194297857124555e+04  1.7194280447130368e+04  1.7194277662656998e+04  1.7194288940872924e+04  1.7194313741435195e+04  1.7194351547060302e+04  1.7194401864108549e+04  1.7194464223205465e+04  1.7194538179921448e+04  1.7194623315531186e+04  1.7194719237873407e+04  1.7194825582332589e+04  1.7194942012965650e+04  1.7195068223798276e+04  1.7195203940318774e+04  1.7195348921200632e+04  1.7195502960289967e+04  1.7195665888899261e+04  1.7195837578456260e+04  1.7196017943564580e+04  1.7196206945543283e+04  1.7196404596523229e+04  1.7196610964192307e+04  1.7196826177295763e+04  1.7197050432014548e+04  1.7197283999360374e+04  1.7197527233740257e+04  1.7197780582850784e+04  1.7198044599055273e+04  1.7198319952361046e+04  1.7198607445024612e+04  1.7198908027624220e+04  1.7199222816076486e+04  1.7199553108404107e+04  1.7199900398863960e+04  1.7200266384963670e+04  1.7200652959404204e+04  1.7201062173500795e+04  1.7201496151168427e+04  1.7201956926132418e+04  1.7202446181550164e+04  1.7202964917519592e+04  1.7203513185116048e+04  1.7204090342600957e+04  1.7204699785511995e+04  1.7205400464291470e+04  1.7206690504480972e+04  1.7186043011847541e+04  1.7185487687665620e+04  1.7184859690380174e+04  1.7184252132782934e+04  1.7183672104931495e+04  1.7183122028932528e+04  1.7182603320087805e+04  1.7182115602659731e+04  1.7181657262813846e+04  1.7181226098625652e+04  1.7180819739077044e+04  1.7180435872056776e+04  1.7180072355728789e+04  1.7179727264329351e+04  1.7179398898670872e+04  1.7179085778624569e+04  1.7178786627236819e+04  1.7178500351752413e+04  1.7178226024324747e+04  1.7177962863791068e+04  1.7177710219116041e+04  1.7177467554688596e+04  1.7177234437441515e+04  1.7177010525659462e+04  1.7176795559300324e+04  1.7176589351646529e+04  1.7176391782111292e+04  1.7176202790040938e+04  1.7176022369372884e+04  1.7175850564027347e+04  1.7175687463928280e+04  1.7175533201563940e+04  1.7175387949011434e+04  1.7175251915360379e+04  1.7175125344481050e+04  1.7175008513090081e+04  1.7174901729073641e+04  1.7174805330033589e+04  1.7174719682026411e+04  1.7174645178468290e+04  1.7174582239182590e+04  1.7174531309567552e+04  1.7174492859863778e+04  1.7174467384501273e+04  1.7174455401505984e+04  1.7174457451945054e+04  1.7174474099388579e+04  1.7174505929363535e+04  1.7174553548772656e+04  1.7174617585247241e+04  1.7174698686397907e+04  1.7174797518921452e+04  1.7174914767514576e+04  1.7175051133536403e+04  1.7175207333351143e+04  1.7175384096269707e+04  1.7175582161994163e+04  1.7175802277451741e+04  1.7176045192884743e+04  1.7176311657039816e+04  1.7176602411273470e+04  1.7176918182361354e+04  1.7177259673766363e+04  1.7177627555085379e+04  1.7178022449358359e+04  1.7178444917887049e+04  1.7178895442177021e+04  1.7179374402590212e+04  1.7179882053279645e+04  1.7180418492982080e+04  1.7180983631276118e+04  1.7181577149984343e+04  1.7182198459521074e+04  1.7182846650175317e+04  1.7183520438580301e+04  1.7184218109952686e+04  1.7184937457051958e+04  1.7185675717110524e+04  1.7186429507994078e+04  1.7187194764186785e+04  1.7187966671539791e+04  1.7188739597775184e+04  1.7189507014362192e+04  1.7190261367091840e+04  1.7190993395417845e+04  1.7191687334075632e+04  1.7192295503948320e+04  1.7192655133428154e+04  1.7166000483834046e+04  1.7165526384653400e+04  1.7164941892495008e+04  1.7164316605445951e+04  1.7163717145202303e+04  1.7163159895103479e+04  1.7162644022470722e+04  1.7162164908904782e+04  1.7161717786483841e+04  1.7161298532955021e+04  1.7160903724856475e+04  1.7160530531202079e+04  1.7160176598050242e+04  1.7159839954964282e+04  1.7159518943996201e+04  1.7159212166010129e+04  1.7158918439453297e+04  1.7158636768005130e+04  1.7158366314675051e+04  1.7158106380711051e+04  1.7157856388195796e+04  1.7157615865537591e+04  1.7157384435278269e+04  1.7157161803783954e+04  1.7156947752484022e+04  1.7156742130394574e+04  1.7156544847715653e+04  1.7156355870331310e+04  1.7156175215072890e+04  1.7156002945630426e+04  1.7155839169016868e+04  1.7155684032505796e+04  1.7155537720976186e+04  1.7155400454608567e+04  1.7155272486885406e+04  1.7155154102855879e+04  1.7155045617630898e+04  1.7154947375079024e+04  1.7154859746697806e+04  1.7154783130637956e+04  1.7154717950860191e+04  1.7154664656406349e+04  1.7154623720767268e+04  1.7154595641330681e+04  1.7154580938892334e+04  1.7154580157212869e+04  1.7154593862602156e+04  1.7154622643510615e+04  1.7154667110105009e+04  1.7154727893802628e+04  1.7154805646733937e+04  1.7154901041098343e+04  1.7155014768371671e+04  1.7155147538315934e+04  1.7155300077732885e+04  1.7155473128891437e+04  1.7155667447545620e+04  1.7155883800443764e+04  1.7156122962210546e+04  1.7156385711461044e+04  1.7156672825980007e+04  1.7156985076768422e+04  1.7157323220724851e+04  1.7157687991688359e+04  1.7158080089525054e+04  1.7158500166891052e+04  1.7158948813251522e+04  1.7159426535682534e+04  1.7159933735931125e+04  1.7160470683167285e+04  1.7161037481837666e+04  1.7161634034039085e+04  1.7162259995891087e+04  1.7162914727532880e+04  1.7163597236646870e+04  1.7164306115882791e+04  1.7165039475286860e+04  1.7165794871803231e+04  1.7166569238652199e+04  1.7167358815933047e+04  1.7168159073545012e+04  1.7168964579046238e+04  1.