<?xml version="1.0"?>
<VTKFile type="UnstructuredGrid"  version="0.1"  >
<UnstructuredGrid>
<Piece  NumberOfPoints="21600" NumberOfCells="42542">
<Points>
<DataArray  type="Float64"  NumberOfComponents="3"  format="ascii">0 0 0  0.77 0 0  0.77 0.15 0  0 0.15 0  0.003221757322170014 0 0  0.006443514644340046 0 0  0.009665271966510193 0 0  0.01288702928868034 0 0  0.01610878661085048 0 0  0.01933054393302049 0 0  0.02255230125519027 0 0  0.02577405857735967 0 0  0.02899581589952872 0 0  0.03221757322169801 0 0  0.03543933054386744 0 0  0.03866108786603686 0 0  0.04188284518820627 0 0  0.0451046025103757 0 0  0.04832635983254521 0 0  0.05154811715471607 0 0  0.05476987447688695 0 0  0.05799163179905782 0 0  0.06121338912122846 0 0  0.06443514644339859 0 0  0.06765690376556875 0 0  0.0708786610877389 0 0  0.07410041840990904 0 0  0.0773221757320792 0 0  0.08054393305425039 0 0  0.08376569037642198 0 0  0.0869874476985936 0 0  0.09020920502076518 0 0  0.0934309623429339 0 0  0.0966527196651024 0 0  0.09987447698726967 0 0  0.1030962343094369 0 0  0.1063179916316041 0 0  0.1095397489537714 0 0  0.1127615062759386 0 0  0.1159832635981051 0 0  0.1192050209202709 0 0  0.1224267782424358 0 0  0.1256485355646001 0 0  0.1288702928867644 0 0  0.1320920502089288 0 0  0.1353138075310958 0 0  0.1385355648532632 0 0  0.1417573221754333 0 0  0.1449790794976035 0 0  0.1482008368197736 0 0  0.1514225941419428 0 0  0.1546443514641101 0 0  0.157866108786276 0 0  0.1610878661084403 0 0  0.1643096234306047 0 0  0.167531380752769 0 0  0.1707531380749333 0 0  0.1739748953970977 0 0  0.177196652719262 0 0  0.1804184100414264 0 0  0.1836401673635935 0 0  0.1868619246857611 0 0  0.1900836820079313 0 0  0.1933054393301014 0 0  0.1965271966522716 0 0  0.1997489539744406 0 0  0.2029707112966078 0 0  0.2061924686187736 0 0  0.209414225940938 0 0  0.2126359832631022 0 0  0.2158577405852666 0 0  0.219079497907431 0 0  0.2223012552295953 0 0  0.2255230125517597 0 0  0.2287447698739242 0 0  0.2319665271960914 0 0  0.2351882845182592 0 0  0.2384100418404293 0 0  0.2416317991625994 0 0  0.2448535564847696 0 0  0.2480753138069371 0 0  0.2512970711291014 0 0  0.2545188284512658 0 0  0.2577405857734302 0 0  0.2609623430955986 0 0  0.2641841004177688 0 0  0.2674058577399389 0 0  0.270627615062109 0 0  0.2738493723842792 0 0  0.2770711297064487 0 0  0.280292887028613 0 0  0.2835146443507774 0 0  0.2867364016729417 0 0  0.2899581589951061 0 0  0.2931799163172705 0 0  0.2964016736394348 0 0  0.2996234309615992 0 0  0.3028451882837672 0 0  0.3060669456059373 0 0  0.3092887029281075 0 0  0.3125104602502776 0 0  0.3157322175724478 0 0  0.3189539748946177 0 0  0.322175732216782 0 0  0.3253974895389464 0 0  0.3286192468611107 0 0  0.3318410041832751 0 0  0.3350627615054395 0 0  0.3382845188276038 0 0  0.3415062761497681 0 0  0.3447280334719325 0 0  0.3479497907940968 0 0  0.3511715481162612 0 0  0.3543933054384255 0 0  0.3576150627605947 0 0  0.3608368200827649 0 0  0.364058577404935 0 0  0.3672803347271051 0 0  0.3705020920492753 0 0  0.373723849371444 0 0  0.3769456066936084 0 0  0.3801673640157748 0 0  0.383389121337945 0 0  0.3866108786601209 0 0  0.3898326359823028 0 0  0.3930543933044846 0 0  0.3962761506266662 0 0  0.399497907948848 0 0  0.4027196652710298 0 0  0.4059414225932116 0 0  0.4091631799153934 0 0  0.4123849372375751 0 0  0.4156066945597569 0 0  0.4188284518819387 0 0  0.4220502092041222 0 0  0.4252719665263097 0 0  0.4284937238484974 0 0  0.4317154811706849 0 0  0.4349372384928725 0 0  0.4381589958150601 0 0  0.4413807531372476 0 0  0.4446025104594352 0 0  0.4478242677816181 0 0  0.4510460251037998 0 0  0.4542677824259815 0 0  0.4574895397481634 0 0  0.4607112970703451 0 0  0.4639330543925269 0 0  0.4671548117147087 0 0  0.4703765690368904 0 0  0.4735983263590722 0 0  0.4768200836812568 0 0  0.4800418410034444 0 0  0.483263598325632 0 0  0.4864853556478196 0 0  0.4897071129700028 0 0  0.4929288702921845 0 0  0.4961506276143663 0 0  0.4993723849365479 0 0  0.5025941422587239 0 0  0.5058158995809008 0 0  0.5090376569030826 0 0  0.5122594142252677 0 0  0.515481171547461 0 0  0.5187029288696494 0 0  0.5219246861918312 0 0  0.525146443514013 0 0  0.5283682008361947 0 0  0.5315899581583845 0 0  0.5348117154805778 0 0  0.5380334728027617 0 0  0.5412552301249435 0 0  0.5444769874471141 0 0  0.5476987447692853 0 0  0.550920502091467 0 0  0.5541422594136513 0 0  0.5573640167358447 0 0  0.560585774058034 0 0  0.5638075313802158 0 0  0.5670292887023975 0 0  0.5702510460245793 0 0  0.5734728033467682 0 0  0.5766945606689615 0 0  0.579916317991155 0 0  0.5831380753133483 0 0  0.5863598326355314 0 0  0.5895815899577131 0 0  0.5928033472798949 0 0  0.5960251046020785 0 0  0.5992468619242718 0 0  0.6024686192464619 0 0  0.6056903765686437 0 0  0.6089121338908206 0 0  0.6121338912129908 0 0  0.6153556485351673 0 0  0.618577405857349 0 0  0.6217991631795386 0 0  0.625020920501732 0 0  0.6282426778239159 0 0  0.6314644351460976 0 0  0.6346861924682795 0 0  0.6379079497904622 0 0  0.6411297071126555 0 0  0.6443514644348465 0 0  0.6475732217570283 0 0  0.650794979079206 0 0  0.6540167364013761 0 0  0.6572384937235518 0 0  0.6604602510457335 0 0  0.6636820083679225 0 0  0.6669037656901158 0 0  0.6701255230123004 0 0  0.6733472803344823 0 0  0.6765690376566641 0 0  0.6797907949788459 0 0  0.6830125523010393 0 0  0.686234309623231 0 0  0.6894560669454127 0 0  0.6926778242675914 0 0  0.6958995815897615 0 0  0.6991213389119363 0 0  0.7023430962341181 0 0  0.7055648535563062 0 0  0.7087866108784994 0 0  0.712008368200685 0 0  0.7152301255228668 0 0  0.7184518828450486 0 0  0.7216736401672305 0 0  0.724895397489423 0 0  0.7281171548116155 0 0  0.7313389121337973 0 0  0.7345606694559768 0 0  0.7377824267781468 0 0  0.7410041841003209 0 0  0.7442259414225026 0 0  0.7474476987446899 0 0  0.7506694560668832 0 0  0.7538912133890696 0 0  0.7571129707112513 0 0  0.760334728033433 0 0  0.7635564853556149 0 0  0.7667782426778067 0 0  0.77 0.001685393258423789 0  0.77 0.003370786516847669 0  0.77 0.005056179775271247 0  0.77 0.006741573033694517 0  0.77 0.008426966292117821 0  0.77 0.01011235955054176 0  0.77 0.01179775280896623 0  0.77 0.0134831460673904 0  0.77 0.01516853932581489 0  0.77 0.01685393258423891 0  0.77 0.01853932584266291 0  0.77 0.02022471910108589 0  0.77 0.02191011235950794 0  0.77 0.02359550561792999 0  0.77 0.02528089887635205 0  0.77 0.02696629213477411 0  0.77 0.02865168539319714 0  0.77 0.03033707865161956 0  0.77 0.03202247191004162 0  0.77 0.03370786516846367 0  0.77 0.03539325842688572 0  0.77 0.03707865168530778 0  0.77 0.03876404494372984 0  0.77 0.0404494382021519 0  0.77 0.04213483146057394 0  0.77 0.04382022471899601 0  0.77 0.04550561797741807 0  0.77 0.04719101123584013 0  0.77 0.04887640449426219 0  0.77 0.05056179775268425 0  0.77 0.0522471910111063 0  0.77 0.05393258426952837 0  0.77 0.05561797752795105 0  0.77 0.05730337078637505 0  0.77 0.05898876404479723 0  0.77 0.0606741573032193 0  0.77 0.06235955056164135 0  0.77 0.06404494382006341 0  0.77 0.06573033707848548 0  0.77 0.06741573033690752 0  0.77 0.06910112359532959 0  0.77 0.07078651685375165 0  0.77 0.0724719101121737 0  0.77 0.07415730337059653 0  0.77 0.07584269662902443 0  0.77 0.07752808988745429 0  0.77 0.07921348314588413 0  0.77 0.08089887640431678 0  0.77 0.08258426966274923 0  0.77 0.08426966292117907 0  0.77 0.08595505617960987 0  0.77 0.08764044943804362 0  0.77 0.08932584269647403 0  0.77 0.09101123595490389 0  0.77 0.09269662921333673 0  0.77 0.09438202247176901 0  0.77 0.09606741573019884 0  0.77 0.09775280898862983 0  0.77 0.09943820224706355 0  0.77 0.1011235955054938 0  0.77 0.1028089887639236 0  0.77 0.1044943820223567 0  0.77 0.1061797752807888 0  0.77 0.1078651685392186 0  0.77 0.1095505617976498 0  0.77 0.1112359550560835 0  0.77 0.1129213483145136 0  0.77 0.1146067415729456 0  0.77 0.1162921348313787 0  0.77 0.1179775280898085 0  0.77 0.1196629213482387 0  0.77 0.1213483146066724 0  0.77 0.1230337078651035 0  0.77 0.1247191011235322 0  0.77 0.1264044943819605 0  0.77 0.1280898876403903 0  0.77 0.1297752808988242 0  0.77 0.1314606741572554 0  0.77 0.1331460674156853 0  0.77 0.1348314606741154 0  0.77 0.1365168539325504 0  0.77 0.1382022471909802 0  0.77 0.13988764044941 0  0.77 0.1415730337078443 0  0.77 0.1432584269662752 0  0.77 0.144943820224705 0  0.77 0.1466292134831355 0  0.77 0.1483146067415701 0  0.7667782426778414 0.15 0  0.7635564853556813 0.15 0  0.7603347280335111 0.15 0  0.757112970711341 0.15 0  0.7538912133891708 0.15 0  0.7506694560670005 0.15 0  0.7474476987448303 0.15 0  0.7442259414226602 0.15 0  0.74100418410049 0.15 0  0.7377824267783197 0.15 0  0.7345606694561496 0.15 0  0.7313389121339794 0.15 0  0.7281171548118092 0.15 0  0.724895397489639 0.15 0  0.7216736401674688 0.15 0  0.7184518828452986 0.15 0  0.7152301255231284 0.15 0  0.7120083682009583 0.15 0  0.708786610878788 0.15 0  0.7055648535566178 0.15 0  0.7023430962344477 0.15 0  0.6991213389122775 0.15 0  0.6958995815901072 0.15 0  0.692677824267937 0.15 0  0.6894560669457669 0.15 0  0.6862343096235967 0.15 0  0.6830125523014264 0.15 0  0.6797907949792563 0.15 0  0.6765690376570861 0.15 0  0.6733472803349159 0.15 0  0.6701255230127456 0.15 0  0.6669037656905755 0.15 0  0.6636820083684053 0.15 0  0.6604602510462351 0.15 0  0.657238493724065 0.15 0  0.6540167364018947 0.15 0  0.6507949790797245 0.15 0  0.6475732217575543 0.15 0  0.644351464435384 0.15 0  0.6411297071132231 0.15 0  0.6379079497910645 0.15 0  0.634686192468906 0.15 0  0.6314644351467468 0.15 0  0.6282426778245765 0.15 0  0.6250209205024085 0.15 0  0.62179916318025 0.15 0  0.6185774058580914 0.15 0  0.6153556485359328 0.15 0  0.6121338912137689 0.15 0  0.6089121338915987 0.15 0  0.6056903765694354 0.15 0  0.6024686192472768 0.15 0  0.5992468619251182 0.15 0  0.5960251046029597 0.15 0  0.5928033472807912 0.15 0  0.589581589958621 0.15 0  0.5863598326364508 0.15 0  0.5831380753142792 0.15 0  0.5799163179920974 0.15 0  0.57669456
[...]
<PointData  Scalars="pressure"> 
<DataArray  type="Float64"  Name="pressure"  format="ascii">1.9205801399040840e+04  2.1297891276965739e+00  -1.6369436198596832e+00  1.9207488888122662e+04  1.9179940762610666e+04  1.9160307482790238e+04  1.9142980025444613e+04  1.3928014038728832e+04  1.3911294468050557e+04  1.3896172260657735e+04  1.3881193093572674e+04  1.3866331798711739e+04  1.3851564099229619e+04  1.3836870155215287e+04  1.3822238193381556e+04  1.3807661012512983e+04  1.3793134169115239e+04  1.3778655051248765e+04  1.3764222342403673e+04  1.3749835691459022e+04  1.3735495500902513e+04  1.3721202786420366e+04  1.3706959081502078e+04  1.3692766371547072e+04  1.3678627047958056e+04  1.3664543876168720e+04  1.3650519973625067e+04  1.3636558795016366e+04  1.3622664122856821e+04  1.3608840062032821e+04  1.3595091037261434e+04  1.3581421792613573e+04  1.3567837392381396e+04  1.3554343222632584e+04  1.3540944992814078e+04  1.3527648736745257e+04  1.3514460812285386e+04  1.3501387898868426e+04  1.3488436991969031e+04  1.3475615393391145e+04  1.3462930696046336e+04  1.3450390761598344e+04  1.3438003688973631e+04  1.3425777771241257e+04  1.3413721437697883e+04  1.3401843177068688e+04  1.3390151436406242e+04  1.3378654488283906e+04  1.3367360255783038e+04  1.3356276079733860e+04  1.3345408404116541e+04  1.3334762340389098e+04  1.3324341043531791e+04  1.3314144778423477e+04  1.3304169444334917e+04  1.3294404082739700e+04  1.3284826323235253e+04  1.3275393304624153e+04  1.3266022242556288e+04  1.3256541987911933e+04  1.3246417083314755e+04  1.3233150729937406e+04  1.3208357815498748e+04  1.3166856445463383e+04  1.3126129681707598e+04  1.3086786939462205e+04  1.3050535232751299e+04  1.3004058896095154e+04  1.2938089057891684e+04  1.2879644693487109e+04  1.2823905042929038e+04  1.2769541024114207e+04  1.2716044586332611e+04  1.2663153645932773e+04  1.2610714789043297e+04  1.2558630164176668e+04  1.2506833017727286e+04  1.2455275265625860e+04  1.2403920633217596e+04  1.2352740609314429e+04  1.2301711929654506e+04  1.2250814942211191e+04  1.2200032506971673e+04  1.2149349233669749e+04  1.2098750940989996e+04  1.2048224265275878e+04  1.1997756372614736e+04  1.1947334743786976e+04  1.1896947011369884e+04  1.1846580834678216e+04  1.1796223802549617e+04  1.1745863357017060e+04  1.1695486733112512e+04  1.1645080911683159e+04  1.1594632583340586e+04  1.1544128122592318e+04  1.1493553571876922e+04  1.1442894635663892e+04  1.1392136685002219e+04  1.1341264772918763e+04  1.1290263660899569e+04  1.1239117856361911e+04  1.1187811660584814e+04  1.1136329226065331e+04  1.1084654621766655e+04  1.1032771904285784e+04  1.0980665192643739e+04  1.0928318744236805e+04  1.0875717029499670e+04  1.0822844803024715e+04  1.0769687169233634e+04  1.0716229641171845e+04  1.0662458191543135e+04  1.0608359295668715e+04  1.0553919966590047e+04  1.0499127782995385e+04  1.0443970911002591e+04  1.0388438121060255e+04  1.0332518801326469e+04  1.0276202968858863e+04  1.0219481279815214e+04  1.0162345039643666e+04  1.0104786213960813e+04  1.0046797440498820e+04  9.9883720421784237e+03  9.9295040410521433e+03  9.8701881725824078e+03  9.8104198994890230e+03  9.7501954242273605e+03  9.6895116990539645e+03  9.6283664325998798e+03  9.5667580919042557e+03  9.5046858989558477e+03  9.4421498209404290e+03  9.3791505535857523e+03  9.3156894972200516e+03  9.2517687254000321e+03  9.1873909462044230e+03  9.1225594565178817e+03  9.0572780898307738e+03  8.9915511582468007e+03  8.9253833895136668e+03  8.8587798599692633e+03  8.7917459243256635e+03  8.7242871432017710e+03  8.6564092092630726e+03  8.5881178727470233e+03  8.5194188670505991e+03  8.4503178349436512e+03  8.3808202558571193e+03  8.3109313745888248e+03  8.2406561316779280e+03  8.1699990956303700e+03  8.0989643971339765e+03  8.0275556653879867e+03  7.9557759666880056e+03  7.8836277454501787e+03  7.8111127679302799e+03  7.7382320689835587e+03  7.6649859023209892e+03  7.5913736948359501e+03  7.5173940057001728e+03  7.4430444910459601e+03  7.3683218751615577e+03  7.2932219292194295e+03  7.2177394586197197e+03  7.1418683000686633e+03  7.0656013295043513e+03  6.9889304819318195e+03  6.9118467841338861e+03  6.8343404010714103e+03  6.7564006965855488e+03  6.6780163087632172e+03  6.5991752400202331e+03  6.5198649616206358e+03  6.4400725319716094e+03  6.3597847276391458e+03  6.2789881856325692e+03  6.1976695551084786e+03  6.1158156562849153e+03  6.0334136440323173e+03  5.9504511733442505e+03  5.8669165637055785e+03  5.7827989592704498e+03  5.6980884817565930e+03  5.6127763730530296e+03  5.5268551247256601e+03  5.4403185918922463e+03  5.3531620893009213e+03  5.2653824678874771e+03  5.1769781705783134e+03  5.0879492666284168e+03  4.9982974643269408e+03  4.9080261024307219e+03  4.8171401211862722e+03  4.7256460142584274e+03  4.6335517632702486e+03  4.5408667569803665e+03  4.4476016973561873e+03  4.3537684949523791e+03  4.2593801560741167e+03  4.1644506641883754e+03  4.0689948579676229e+03  3.9730283082090382e+03  3.8765671956779511e+03  3.7796281917037190e+03  3.6822283431052397e+03  3.5843849627604218e+03  3.4861155268776270e+03  3.3874375797674484e+03  3.2883686466790386e+03  3.1889261550442179e+03  3.0891273642772808e+03  2.9889893041132304e+03  2.8885287213201873e+03  2.7877620345082496e+03  2.6867052966680567e+03  2.5853741649990593e+03  2.4837838775473010e+03  2.3819492361423754e+03  2.2798845951080375e+03  2.1776038552296009e+03  2.0751204624686211e+03  1.9724474109438181e+03  1.8695972497297309e+03  1.7665820930654165e+03  1.6634136336231661e+03  1.5601031585507835e+03  1.4566615680929258e+03  1.3530993967282448e+03  1.2494268369534818e+03  1.1456537661854254e+03  1.0417897778606086e+03  9.3784421900351515e+02  8.3382623911343069e+02  7.2974486114407580e+02  6.2560909816005949e+02  5.2142818119064214e+02  4.1721232173817162e+02  3.1297517667836684e+02  2.0872420242735774e+02  1.0445370215834990e+02  4.4286468489567388e-01  2.2589477098365219e-02  4.5077626256209632e-03  2.4679569572999219e-03  1.0330282980180500e-03  1.6329597607167738e-04  -3.8435538874879776e-04  -7.7107358922946106e-04  -1.0730863692189707e-03  -1.3273928019296569e-03  -1.5530711467663856e-03  -1.7604755912411134e-03  -1.9554700507840271e-03  -2.1414926558171736e-03  -2.3206127030962784e-03  -2.4940962556522766e-03  -2.6627212632453099e-03  -2.8269596610265026e-03  -2.9870861301157237e-03  -3.1432450256902570e-03  -3.2954926953008400e-03  -3.4438249094123322e-03  -3.5881950543675857e-03  -3.7285264610814896e-03  -3.8647209329031843e-03  -3.9966647636787422e-03  -4.1242330703591410e-03  -4.2472929767308478e-03  -4.3657060034494460e-03  -4.4793299033922306e-03  -4.5880201053831110e-03  -4.6916308794554750e-03  -4.7900163022209785e-03  -4.8830310786637842e-03  -4.9705312600321488e-03  -5.0523748862732858e-03  -5.1284225743540718e-03  -5.1985380665450949e-03  -5.2625887501904145e-03  -5.3204461561173633e-03  -5.3719864410310108e-03  -5.4170908578541795e-03  -5.4556462156019796e-03  -5.4875453302239306e-03  -5.5126874664821121e-03  -5.5309787702929542e-03  -5.5423326900546094e-03  -5.5466703856798267e-03  -5.5439211220307148e-03  -5.5340226447693677e-03  -5.5169215338631908e-03  -5.4925735315787339e-03  -5.4609438389862331e-03  -5.4220073751498777e-03  -5.3757489919545346e-03  -5.3221636355225907e-03  -5.2612564438074697e-03  -5.1930427666165863e-03  -5.1175480923053573e-03  -5.0348078597036109e-03  -4.9448671282252927e-03  -4.8477800717109526e-03  -4.7436092500559865e-03  -4.6324245975209411e-03  -4.5143020467022735e-03  -4.3893216788046426e-03  -4.2575652508450136e-03  -4.1191128972436035e-03  -3.9740387284220137e-03  -3.8224049465269824e-03  -3.6642539624474639e-03  -3.4995978209423641e-03  -3.3284040295867472e-03  -3.1505766728414388e-03  -2.9659315955371667e-03  -2.7741647634494716e-03  -2.5748144387377730e-03  -2.3672223791198935e-03  -2.1505107293395532e-03  -1.9236137189534200e-03  -1.6854100898518031e-03  -1.4347122689455601e-03  -1.1662813304488644e-03  -7.9966508133252629e-04  9.1559623408595263e-04  1.7628183162001019e-02  1.3128136272214908e-01  7.4228102213951735e-02  1.0710483151550439e+02  2.1581242668095672e+02  3.2389758444539035e+02  4.3198143113593136e+02  5.4009471386816949e+02  6.4824802388759088e+02  7.5645434258914463e+02  8.6472561221657941e+02  9.7307343710594046e+02  1.0815095469622365e+03  1.1900460236149308e+03  1.2986954538854923e+03  1.4074710534976034e+03  1.5163867800376538e+03  1.6254574442870371e+03  1.7346988252784126e+03  1.8441277926211451e+03  1.9537624388429222e+03  2.0636222241895748e+03  2.1737281362837384e+03  2.2841028671580821e+03  2.3947710103968043e+03  2.5057592814117916e+03  2.6170967642288774e+03  2.7288151885478565e+03  2.8409492412446816e+03  2.9535369168687621e+03  3.0666199119908824e+03  3.1802440683731083e+03  3.2944598696856392e+03  3.4093229955930606e+03  3.5248949349833315e+03  3.6412436560978740e+03  3.7584443239619654e+03  3.8765800424775753e+03  3.9957425758243371e+03  4.1160329644690737e+03  4.2375618828349880e+03  4.3604494664388712e+03  4.4848241254643672e+03  4.6108194829322529e+03  4.7385678816840491e+03  4.8681876048488857e+03  4.9997584603666619e+03  5.1332754441159632e+03  5.2685600236865184e+03  5.4050875364489202e+03  5.5416554814017745e+03  5.6758294140429025e+03  5.8034110254872139e+03  5.9189729712095050e+03  6.0183983000033822e+03  6.1009949270662255e+03  6.1680817299869304e+03  6.2227908738672404e+03  6.2680004362814607e+03  6.3036672341470930e+03  6.3411080087609462e+03  6.3765944332287236e+03  6.4066010317874661e+03  6.4382156090897070e+03  6.4702730432907592e+03  6.5024546223444195e+03  6.5411231080647485e+03  6.5869810050740134e+03  6.6321960442579184e+03  6.6835243493836078e+03  6.7417553730129639e+03  6.8020479141745391e+03  6.8645636348634944e+03  6.9302883156284652e+03  6.9999766388288281e+03  7.0739094770235197e+03  7.1505941727515474e+03  7.2255603793299179e+03  7.2996132311085794e+03  7.3838179286144486e+03  7.4736596334029045e+03  7.5543544072333052e+03  7.6324994251369044e+03  7.7125486586910620e+03  7.7981962863005210e+03  7.8878505458012223e+03  7.9686781337134107e+03  8.0499224839486151e+03  8.1550271637639553e+03  1.1322868830216792e+04  1.1438051498751656e+04  1.1539347881234873e+04  8.4726658148352599e+03  8.5388113248904956e+03  8.6024972756452207e+03  8.6662812967354475e+03  8.7333667946182086e+03  1.2074195175213670e+04  1.2156134021613798e+04  1.2242005155916460e+04  1.2328272410531883e+04  1.2413866297396818e+04  1.2498185563133058e+04  1.2583600168437126e+04  1.2675204727917031e+04  9.3218106972121477e+03  9.4107969774982394e+03  1.3028236307384834e+04  9.5582051803544637e+03  1.3213079854086913e+04  9.7014549312982217e+03  9.7656135682029108e+03  1.3493947455829370e+04  1.3583911800995938e+04  9.9676208003553984e+03  1.3765338400915865e+04  1.3833028228194244e+04  1.0135183234969734e+04  1.3986958020631973e+04  1.4058800111714147e+04  1.0292697172269018e+04  1.4193178367216240e+04  1.4249913985648387e+04  1.4304990356808661e+04  1.0468355424275571e+04  1.4428807051377111e+04  1.0557849239608158e+04  1.4556131373245613e+04  1.4611328514142137e+04  1.0693606195888791e+04  1.4742470553017034e+04  1.4798986202648073e+04  1.4853695948022607e+04  1.0864876494012033e+04  1.0908757582108567e+04  1.0949903074837919e+04  1.0989843741162311e+04  1.1030858900591313e+04  1.5198097731315236e+04  1.5259354395922563e+04  1.1174927673244967e+04  1.5402831921483459e+04  1.1268787083110612e+04  1.1320857409862911e+04  1.1366464045361479e+04  1.1404890394329641e+04  1.1446450379267912e+04  1.1491072324519753e+04  1.5831394141461264e+04  1.5883300345935253e+04  1.1617482560471384e+04  1.6008043521713631e+04  1.6060563009148413e+04  1.1746903426964827e+04  1.6186737298926450e+04  1.6243493480876594e+04  1.6303058494271741e+04  1.6363476295435459e+04  1.6424197993551315e+04  1.6482599331585476e+04  1.2059127917676895e+04  1.6626331053884005e+04  1.6685280472909119e+04  1.6717759649725413e+04  1.2217974503188387e+04  1.2259185903902831e+04  1.2296542379833101e+04  1.2333907804497045e+04  1.2372546103707969e+04  1.2411649454933688e+04  1.2448505740598894e+04  1.2485629712106675e+04  1.2523274191733102e+04  1.2558429336997293e+04  1.2594336879178232e+04  1.2639673302638712e+04  1.2694655044133795e+04  1.2724808156368326e+04  1.2758807681747916e+04  1.2791113028097388e+04  1.2819858974654000e+04  1.2846780514901153e+04  1.2873183174652379e+04  1.2899641026894864e+04  1.2925676789461264e+04  1.2953604609814844e+04  1.2986666354528630e+04  1.3006733435007423e+04  1.3037092561273907e+04  1.3076690165261653e+04  1.3102195251252449e+04  1.8016236070030365e+04  1.3161427808029612e+04  1.3189183592592406e+04  1.8128311937602524e+04  1.3225690542781478e+04  1.3249517570922297e+04  1.8210608816314085e+04  1.3285145378197005e+04  1.3306127183902652e+04  1.8285848055765389e+04  1.8301485309264648e+04  1.3348351443581196e+04  1.8348859293297941e+04  1.8377040778595892e+04  1.3401615151080989e+04  1.3423235617688004e+04  1.3440442364262353e+04  1.8472986120536119e+04  1.3476792090716093e+04  1.3496571326874326e+04  1.3512981717204371e+04  1.8569509190124973e+04  1.3540281748624328e+04  1.3560697634935894e+04  1.3577577512719623e+04  1.3593674248837073e+04  1.3607696293629833e+04  1.3619293477242214e+04  1.3636633983444866e+04  1.3652627270417264e+04  1.3669578126452541e+04  1.3687863867620154e+04  1.3706151746523550e+04  1.3723919177307333e+04  1.3741139389504890e+04  1.3757723427209477e+04  1.3774253015107835e+04  1.3792017229881843e+04  1.3810256706400816e+04  1.3828234430707229e+04  1.3845420061776664e+04  1.3861674100057842e+04  1.3878148149466975e+04  1.3893676540337174e+04  1.3905173710997278e+04  1.3919052352440511e+04  1.3934756556166025e+04  1.9147262481919977e+04  1.9164821676226682e+04  1.9184536360578910e+04  1.9205126513451109e+04  1.9204021608684845e+04  1.9203259869994024e+04  1.9202549032312505e+04  1.9201827437472548e+04  1.9201089275027873e+04  1.9200339597864662e+04  1.9199585036420562e+04  1.9198831928223972e+04  1.9198085915077645e+04  1.9197351876527780e+04  1.9196633955989997e+04  1.9195935613814865e+04  1.9195259687765789e+04  1.9194608455084704e+04  1.9193983694025279e+04  1.9193386743542807e+04  1.9192818560049753e+04  1.9192279770361758e+04  1.9191770720231725e+04  1.9191291518151116e+04  1.9190842074343826e+04  1.9190422135070119e+04  1.9190031312494146e+04  1.9189669110454699e+04  1.9189334946524919e+04  1.9189028170762318e+04  1.9188748081545400e+04  1.9188493938873147e+04  1.9188264975475686e+04  1.9188060406051878e+04  1.9187879434915529e+04  1.9187721262298503e+04  1.9187585089527074e+04  1.9187470123259114e+04  1.9187375578942771e+04  1.9187300683634861e+04  1.9187244678295618e+04  1.9187206819659754e+04  1.9187186381768170e+04  1.9187182657231471e+04  1.9187194958286062e+04  1.9187222617693940e+04  1.9187264989530046e+04  1.9187321449894604e+04  1.9187391397582869e+04  1.9187474254740879e+04  1.9187569467532514e+04  1.9187676506840919e+04  1.9187794869026322e+04  1.9187924076760948e+04  1.9188063679962197e+04  1.9188213256845316e+04  1.9188372415118833e+04  1.9188540793347322e+04  1.9188718062509375e+04  1.9188903927781965e+04  1.9189098130587587e+04  1.9189300450945280e+04  1.9189510710174665e+04  1.9189728774009709e+04  1.9189954556189121e+04  1.9190188022601815e+04  1.9190429196079094e+04  1.9190678161940461e+04  1.9190935074415767e+04  1.9191200164082824e+04  1.9191473746473523e+04  1.9191756232009331e+04  1.9192048137419679e+04  1.9192350098761784e+04  1.9192662886070710e+04  1.9192987419481200e+04  1.9193324786301018e+04  1.9193676257847015e+04  1.9194043303660041e+04  1.9194427598637078e+04  1.9194831015134245e+04  1.9195255586617735e+04  1.9195703421986254e+04  1.9196176543277805e+04  1.9196676626006411e+04  1.9197204667627451e+04  1.9197760722653944e+04  1.9198344159768858e+04  1.9198958393101184e+04  1.9199662403363163e+04  1.9200954367779439e+04  1.9180308668905414e+04  1.9179751493049112e+04  1.9179120208582888e+04  1.9178507894139715e+04  1.9177921610499656e+04  1.9177363760405304e+04  1.9176835749460908e+04  1.9176337200242189e+04  1.9175866503253914e+04  1.9175421465498497e+04  1.9174999728531871e+04  1.9174598995854372e+04  1.9174217143878737e+04  1.9173852267458915e+04  1.9173502690209301e+04  1.9173166956856228e+04  1.9172843817257519e+04  1.9172532207350960e+04  1.9172231229803980e+04  1.9171940135737354e+04  1.9171658308122845e+04  1.9171385247037542e+04  1.9171120556742513e+04  1.9170863934450623e+04  1.9170615160607533e+04  1.9170374090501984e+04  1.9170140647029872e+04  1.9169914814453092e+04  1.9169696633012336e+04  1.9169486194271922e+04  1.9169283637091849e+04  1.9169089144137561e+04  1.9168902938851519e+04  1.9168725282821713e+04  1.9168556473492587e+04  1.9168396842171111e+04  1.9168246752288127e+04  1.9168106597880469e+04  1.9167976802263387e+04  1.9167857816866999e+04  1.9167750120212651e+04  1.9167654217007366e+04  1.9167570637335615e+04  1.9167499935928474e+04  1.9167442691489839e+04  1.9167399506059231e+04  1.9167371004388588e+04  1.9167357833309081e+04  1.9167360661060451e+04  1.9167380176551924e+04  1.9167417088518632e+04  1.9167472124531698e+04  1.9167546029812609e+04  1.9167639565793630e+04  1.9167753508355625e+04  1.9167888645661798e+04  1.9168045775491046e+04  1.9168225701957395e+04  1.9168429231481619e+04  1.9168657167857971e+04  1.9168910306232741e+04  1.9169189425781573e+04  1.9169495280839987e+04  1.9169828590206638e+04  1.9170190024302239e+04  1.9170580189830915e+04  1.9170999611557203e+04  1.9171448710785349e+04  1.9171927780112346e+04  1.9172436954030461e+04  1.9172976174987009e+04  1.9173545154580759e+04  1.9174143329698298e+04  1.9174769813582148e+04  1.9175423342085433e+04  1.9176102215701088e+04  1.9176804238321929e+04  1.9177526653989247e+04  1.9178266082896665e+04  1.9179018457249615e+04  1.9179778955918759e+04  1.9180541934866593e+04  1.9181300848927178e+04  1.9182048122192864e+04  1.9182774466974035e+04  1.9183464084819672e+04  1.9184069257278716e+04  1.9184427172389962e+04  1.9160273113130672e+04  1.9159797383116351e+04  1.9159209786594645e+04  1.9158579892990252e+04  1.9157974271652020e+04  1.9157409291820262e+04  1.9156884122666990e+04  1.9156394153686721e+04  1.9155934628010134e+04  1.9155501436785828e+04  1.9155091172072916e+04  1.9154701020448290e+04  1.9154328647532420e+04  1.9153972104411790e+04  1.9153629756584865e+04  1.9153300230247653e+04  1.9152982371027621e+04  1.9152675211596685e+04  1.9152377945733726e+04  1.9152089907198435e+04  1.9151810552292845e+04  1.9151539445317383e+04  1.9151276246343306e+04  1.9151020700867008e+04  1.9150772631011350e+04  1.9150531928010030e+04  1.9150298545764181e+04  1.9150072495299977e+04  1.9149853839987616e+04  1.9149642691406461e+04  1.9149439205760926e+04  1.9149243580767707e+04  1.9149056052947915e+04  1.9148876895268375e+04  1.9148706415084802e+04  1.9148544952347256e+04  1.9148392878033326e+04  1.9148250592780059e+04  1.9148118525688911e+04  1.9147997133281180e+04  1.9147886898583856e+04  1.9147788330327385e+04  1.9147701962237868e+04  1.9147628352407024e+04  1.9147568082723039e+04  1.9147521758344988e+04  1.9147490007202287e+04  1.9147473479498989e+04  1.9147472847200217e+04  1.9147488803474698e+04  1.9147522062063428e+04  1.9147573356539062e+04  1.9147643439414602e+04  1.9147733081051872e+04  1.9147843068311009e+04  1.9147974202871163e+04  1.9148127299138665e+04  1.9148303181643150e+04  1.9148502681803104e+04  1.9148726633919501e+04  1.9148975870230352e+04  1.9149251214827920e+04  1.9149553476205227e+04  1.9149883438158355e+04  1.9150241848725709e+04  1.9150629406796259e+04  1.9151046745965799e+04  1.9151494415166981e+04  1.9151972855547850e+04  1.9152482373031919e+04  1.9153023105969256e+04  1.9153594987296485e+04  1.9154197700685687e+04  1.9154830630308930e+04  1.9155492804123329e+04  1.9156182831055183e+04  1.9156898833194900e+04  1.9157638375080642e+04  1.9158398392891417e+04  1.9159175124919340e+04  1.9159964034440025e+04  1.9160759677614333e+04  1.91