<?xml version="1.0"?>
<VTKFile type="UnstructuredGrid"  version="0.1"  >
<UnstructuredGrid>
<Piece  NumberOfPoints="21600" NumberOfCells="42542">
<Points>
<DataArray  type="Float64"  NumberOfComponents="3"  format="ascii">0 0 0  0.77 0 0  0.77 0.15 0  0 0.15 0  0.003221757322170014 0 0  0.006443514644340046 0 0  0.009665271966510193 0 0  0.01288702928868034 0 0  0.01610878661085048 0 0  0.01933054393302049 0 0  0.02255230125519027 0 0  0.02577405857735967 0 0  0.02899581589952872 0 0  0.03221757322169801 0 0  0.03543933054386744 0 0  0.03866108786603686 0 0  0.04188284518820627 0 0  0.0451046025103757 0 0  0.04832635983254521 0 0  0.05154811715471607 0 0  0.05476987447688695 0 0  0.05799163179905782 0 0  0.06121338912122846 0 0  0.06443514644339859 0 0  0.06765690376556875 0 0  0.0708786610877389 0 0  0.07410041840990904 0 0  0.0773221757320792 0 0  0.08054393305425039 0 0  0.08376569037642198 0 0  0.0869874476985936 0 0  0.09020920502076518 0 0  0.0934309623429339 0 0  0.0966527196651024 0 0  0.09987447698726967 0 0  0.1030962343094369 0 0  0.1063179916316041 0 0  0.1095397489537714 0 0  0.1127615062759386 0 0  0.1159832635981051 0 0  0.1192050209202709 0 0  0.1224267782424358 0 0  0.1256485355646001 0 0  0.1288702928867644 0 0  0.1320920502089288 0 0  0.1353138075310958 0 0  0.1385355648532632 0 0  0.1417573221754333 0 0  0.1449790794976035 0 0  0.1482008368197736 0 0  0.1514225941419428 0 0  0.1546443514641101 0 0  0.157866108786276 0 0  0.1610878661084403 0 0  0.1643096234306047 0 0  0.167531380752769 0 0  0.1707531380749333 0 0  0.1739748953970977 0 0  0.177196652719262 0 0  0.1804184100414264 0 0  0.1836401673635935 0 0  0.1868619246857611 0 0  0.1900836820079313 0 0  0.1933054393301014 0 0  0.1965271966522716 0 0  0.1997489539744406 0 0  0.2029707112966078 0 0  0.2061924686187736 0 0  0.209414225940938 0 0  0.2126359832631022 0 0  0.2158577405852666 0 0  0.219079497907431 0 0  0.2223012552295953 0 0  0.2255230125517597 0 0  0.2287447698739242 0 0  0.2319665271960914 0 0  0.2351882845182592 0 0  0.2384100418404293 0 0  0.2416317991625994 0 0  0.2448535564847696 0 0  0.2480753138069371 0 0  0.2512970711291014 0 0  0.2545188284512658 0 0  0.2577405857734302 0 0  0.2609623430955986 0 0  0.2641841004177688 0 0  0.2674058577399389 0 0  0.270627615062109 0 0  0.2738493723842792 0 0  0.2770711297064487 0 0  0.280292887028613 0 0  0.2835146443507774 0 0  0.2867364016729417 0 0  0.2899581589951061 0 0  0.2931799163172705 0 0  0.2964016736394348 0 0  0.2996234309615992 0 0  0.3028451882837672 0 0  0.3060669456059373 0 0  0.3092887029281075 0 0  0.3125104602502776 0 0  0.3157322175724478 0 0  0.3189539748946177 0 0  0.322175732216782 0 0  0.3253974895389464 0 0  0.3286192468611107 0 0  0.3318410041832751 0 0  0.3350627615054395 0 0  0.3382845188276038 0 0  0.3415062761497681 0 0  0.3447280334719325 0 0  0.3479497907940968 0 0  0.3511715481162612 0 0  0.3543933054384255 0 0  0.3576150627605947 0 0  0.3608368200827649 0 0  0.364058577404935 0 0  0.3672803347271051 0 0  0.3705020920492753 0 0  0.373723849371444 0 0  0.3769456066936084 0 0  0.3801673640157748 0 0  0.383389121337945 0 0  0.3866108786601209 0 0  0.3898326359823028 0 0  0.3930543933044846 0 0  0.3962761506266662 0 0  0.399497907948848 0 0  0.4027196652710298 0 0  0.4059414225932116 0 0  0.4091631799153934 0 0  0.4123849372375751 0 0  0.4156066945597569 0 0  0.4188284518819387 0 0  0.4220502092041222 0 0  0.4252719665263097 0 0  0.4284937238484974 0 0  0.4317154811706849 0 0  0.4349372384928725 0 0  0.4381589958150601 0 0  0.4413807531372476 0 0  0.4446025104594352 0 0  0.4478242677816181 0 0  0.4510460251037998 0 0  0.4542677824259815 0 0  0.4574895397481634 0 0  0.4607112970703451 0 0  0.4639330543925269 0 0  0.4671548117147087 0 0  0.4703765690368904 0 0  0.4735983263590722 0 0  0.4768200836812568 0 0  0.4800418410034444 0 0  0.483263598325632 0 0  0.4864853556478196 0 0  0.4897071129700028 0 0  0.4929288702921845 0 0  0.4961506276143663 0 0  0.4993723849365479 0 0  0.5025941422587239 0 0  0.5058158995809008 0 0  0.5090376569030826 0 0  0.5122594142252677 0 0  0.515481171547461 0 0  0.5187029288696494 0 0  0.5219246861918312 0 0  0.525146443514013 0 0  0.5283682008361947 0 0  0.5315899581583845 0 0  0.5348117154805778 0 0  0.5380334728027617 0 0  0.5412552301249435 0 0  0.5444769874471141 0 0  0.5476987447692853 0 0  0.550920502091467 0 0  0.5541422594136513 0 0  0.5573640167358447 0 0  0.560585774058034 0 0  0.5638075313802158 0 0  0.5670292887023975 0 0  0.5702510460245793 0 0  0.5734728033467682 0 0  0.5766945606689615 0 0  0.579916317991155 0 0  0.5831380753133483 0 0  0.5863598326355314 0 0  0.5895815899577131 0 0  0.5928033472798949 0 0  0.5960251046020785 0 0  0.5992468619242718 0 0  0.6024686192464619 0 0  0.6056903765686437 0 0  0.6089121338908206 0 0  0.6121338912129908 0 0  0.6153556485351673 0 0  0.618577405857349 0 0  0.6217991631795386 0 0  0.625020920501732 0 0  0.6282426778239159 0 0  0.6314644351460976 0 0  0.6346861924682795 0 0  0.6379079497904622 0 0  0.6411297071126555 0 0  0.6443514644348465 0 0  0.6475732217570283 0 0  0.650794979079206 0 0  0.6540167364013761 0 0  0.6572384937235518 0 0  0.6604602510457335 0 0  0.6636820083679225 0 0  0.6669037656901158 0 0  0.6701255230123004 0 0  0.6733472803344823 0 0  0.6765690376566641 0 0  0.6797907949788459 0 0  0.6830125523010393 0 0  0.686234309623231 0 0  0.6894560669454127 0 0  0.6926778242675914 0 0  0.6958995815897615 0 0  0.6991213389119363 0 0  0.7023430962341181 0 0  0.7055648535563062 0 0  0.7087866108784994 0 0  0.712008368200685 0 0  0.7152301255228668 0 0  0.7184518828450486 0 0  0.7216736401672305 0 0  0.724895397489423 0 0  0.7281171548116155 0 0  0.7313389121337973 0 0  0.7345606694559768 0 0  0.7377824267781468 0 0  0.7410041841003209 0 0  0.7442259414225026 0 0  0.7474476987446899 0 0  0.7506694560668832 0 0  0.7538912133890696 0 0  0.7571129707112513 0 0  0.760334728033433 0 0  0.7635564853556149 0 0  0.7667782426778067 0 0  0.77 0.001685393258423789 0  0.77 0.003370786516847669 0  0.77 0.005056179775271247 0  0.77 0.006741573033694517 0  0.77 0.008426966292117821 0  0.77 0.01011235955054176 0  0.77 0.01179775280896623 0  0.77 0.0134831460673904 0  0.77 0.01516853932581489 0  0.77 0.01685393258423891 0  0.77 0.01853932584266291 0  0.77 0.02022471910108589 0  0.77 0.02191011235950794 0  0.77 0.02359550561792999 0  0.77 0.02528089887635205 0  0.77 0.02696629213477411 0  0.77 0.02865168539319714 0  0.77 0.03033707865161956 0  0.77 0.03202247191004162 0  0.77 0.03370786516846367 0  0.77 0.03539325842688572 0  0.77 0.03707865168530778 0  0.77 0.03876404494372984 0  0.77 0.0404494382021519 0  0.77 0.04213483146057394 0  0.77 0.04382022471899601 0  0.77 0.04550561797741807 0  0.77 0.04719101123584013 0  0.77 0.04887640449426219 0  0.77 0.05056179775268425 0  0.77 0.0522471910111063 0  0.77 0.05393258426952837 0  0.77 0.05561797752795105 0  0.77 0.05730337078637505 0  0.77 0.05898876404479723 0  0.77 0.0606741573032193 0  0.77 0.06235955056164135 0  0.77 0.06404494382006341 0  0.77 0.06573033707848548 0  0.77 0.06741573033690752 0  0.77 0.06910112359532959 0  0.77 0.07078651685375165 0  0.77 0.0724719101121737 0  0.77 0.07415730337059653 0  0.77 0.07584269662902443 0  0.77 0.07752808988745429 0  0.77 0.07921348314588413 0  0.77 0.08089887640431678 0  0.77 0.08258426966274923 0  0.77 0.08426966292117907 0  0.77 0.08595505617960987 0  0.77 0.08764044943804362 0  0.77 0.08932584269647403 0  0.77 0.09101123595490389 0  0.77 0.09269662921333673 0  0.77 0.09438202247176901 0  0.77 0.09606741573019884 0  0.77 0.09775280898862983 0  0.77 0.09943820224706355 0  0.77 0.1011235955054938 0  0.77 0.1028089887639236 0  0.77 0.1044943820223567 0  0.77 0.1061797752807888 0  0.77 0.1078651685392186 0  0.77 0.1095505617976498 0  0.77 0.1112359550560835 0  0.77 0.1129213483145136 0  0.77 0.1146067415729456 0  0.77 0.1162921348313787 0  0.77 0.1179775280898085 0  0.77 0.1196629213482387 0  0.77 0.1213483146066724 0  0.77 0.1230337078651035 0  0.77 0.1247191011235322 0  0.77 0.1264044943819605 0  0.77 0.1280898876403903 0  0.77 0.1297752808988242 0  0.77 0.1314606741572554 0  0.77 0.1331460674156853 0  0.77 0.1348314606741154 0  0.77 0.1365168539325504 0  0.77 0.1382022471909802 0  0.77 0.13988764044941 0  0.77 0.1415730337078443 0  0.77 0.1432584269662752 0  0.77 0.144943820224705 0  0.77 0.1466292134831355 0  0.77 0.1483146067415701 0  0.7667782426778414 0.15 0  0.7635564853556813 0.15 0  0.7603347280335111 0.15 0  0.757112970711341 0.15 0  0.7538912133891708 0.15 0  0.7506694560670005 0.15 0  0.7474476987448303 0.15 0  0.7442259414226602 0.15 0  0.74100418410049 0.15 0  0.7377824267783197 0.15 0  0.7345606694561496 0.15 0  0.7313389121339794 0.15 0  0.7281171548118092 0.15 0  0.724895397489639 0.15 0  0.7216736401674688 0.15 0  0.7184518828452986 0.15 0  0.7152301255231284 0.15 0  0.7120083682009583 0.15 0  0.708786610878788 0.15 0  0.7055648535566178 0.15 0  0.7023430962344477 0.15 0  0.6991213389122775 0.15 0  0.6958995815901072 0.15 0  0.692677824267937 0.15 0  0.6894560669457669 0.15 0  0.6862343096235967 0.15 0  0.6830125523014264 0.15 0  0.6797907949792563 0.15 0  0.6765690376570861 0.15 0  0.6733472803349159 0.15 0  0.6701255230127456 0.15 0  0.6669037656905755 0.15 0  0.6636820083684053 0.15 0  0.6604602510462351 0.15 0  0.657238493724065 0.15 0  0.6540167364018947 0.15 0  0.6507949790797245 0.15 0  0.6475732217575543 0.15 0  0.644351464435384 0.15 0  0.6411297071132231 0.15 0  0.6379079497910645 0.15 0  0.634686192468906 0.15 0  0.6314644351467468 0.15 0  0.6282426778245765 0.15 0  0.6250209205024085 0.15 0  0.62179916318025 0.15 0  0.6185774058580914 0.15 0  0.6153556485359328 0.15 0  0.6121338912137689 0.15 0  0.6089121338915987 0.15 0  0.6056903765694354 0.15 0  0.6024686192472768 0.15 0  0.5992468619251182 0.15 0  0.5960251046029597 0.15 0  0.5928033472807912 0.15 0  0.589581589958621 0.15 0  0.5863598326364508 0.15 0  0.5831380753142792 0.15 0  0.5799163179920974 0.15 0  0.57669456
[...]
<PointData  Scalars="pressure"> 
<DataArray  type="Float64"  Name="pressure"  format="ascii">2.0023166289554036e+04  2.1399488335387460e+00  -1.6287322274325335e+00  2.0024137518492003e+04  1.9997306143990510e+04  1.9977674786180691e+04  1.9960350248259358e+04  1.4523442582431691e+04  1.4506728605214188e+04  1.4491612905039185e+04  1.4476641497573190e+04  1.4461789240115464e+04  1.4447031889086664e+04  1.4432349642990141e+04  1.4417730770371285e+04  1.4403168115553432e+04  1.4388657284332367e+04  1.4374195717707753e+04  1.4359782155571944e+04  1.4345416306409488e+04  1.4331098635180912e+04  1.4316830222491772e+04  1.4302612668679385e+04  1.4288448027288556e+04  1.4274338758403388e+04  1.4260287695760910e+04  1.4246298023642277e+04  1.4232373260809800e+04  1.4218517249560131e+04  1.4204734148473406e+04  1.4191028427765386e+04  1.4177404866352179e+04  1.4163868549858598e+04  1.4150424868859041e+04  1.4137079516653112e+04  1.4123838485849263e+04  1.4110708062966491e+04  1.4097694820162193e+04  1.4084805603052659e+04  1.4072047513402209e+04  1.4059427885206476e+04  1.4046954252364116e+04  1.4034634305688931e+04  1.4022475836409501e+04  1.4010486662452660e+04  1.3998674532567375e+04  1.3987047001468760e+04  1.3975611266223450e+04  1.3964373949246326e+04  1.3953340804991103e+04  1.3942516312686550e+04  1.3931903090154405e+04  1.3921501010658480e+04  1.3911305795584412e+04  1.3901306616171880e+04  1.3891481672084048e+04  1.3881789300234090e+04  1.3872148834626450e+04  1.3862392511005883e+04  1.3851986418334294e+04  1.3838406364295510e+04  1.3813162531249262e+04  1.3771170761613555e+04  1.3730878019540143e+04  1.3693315479735424e+04  1.3644854491901271e+04  1.3575855962449517e+04  1.3514542237701033e+04  1.3455943047710884e+04  1.3398708729124553e+04  1.3342332456496721e+04  1.3286556134878167e+04  1.3231230317387859e+04  1.3176260487815865e+04  1.3121582523304698e+04  1.3067150342923907e+04  1.3012929152964181e+04  1.2958891499621070e+04  1.2905014835712571e+04  1.2851279953501247e+04  1.2797669938192957e+04  1.2744169447933511e+04  1.2690764205947700e+04  1.2637440634637358e+04  1.2584185586976990e+04  1.2530986145901677e+04  1.2477829471985529e+04  1.2424702685946619e+04  1.2371592776711641e+04  1.2318486528693091e+04  1.2265370464021380e+04  1.2212230797002550e+04  1.2159053399203542e+04  1.2105823774396995e+04  1.2052527043190074e+04  1.1999147937547916e+04  1.1945670805624075e+04  1.1892079627342255e+04  1.1838358041051502e+04  1.1784489381318943e+04  1.1730456727561939e+04  1.1676242962788390e+04  1.1621830841257877e+04  1.1567203063443822e+04  1.1512342356316658e+04  1.1457231556722225e+04  1.1401853695523021e+04  1.1346192080222354e+04  1.1290230373993156e+04  1.1233952669367309e+04  1.1177343555272395e+04  1.1120388176589460e+04  1.1063072285900818e+04  1.1005382287559827e+04  1.0947305274606615e+04  1.0888829059351174e+04  1.0829942198630075e+04  1.0770634014816460e+04  1.0710894613627688e+04  1.0650714899648206e+04  1.0590086590286837e+04  1.0529002228640897e+04  1.0467455195469203e+04  1.0405439720202070e+04  1.0342950890664353e+04  1.0279984660969116e+04  1.0216537856870546e+04  1.0152608177754566e+04  1.0088194194395313e+04  1.0023295341619916e+04  9.9579119050964782e+03  9.8920450015856404e+03  9.8256965521639140e+03  9.7588692481264934e+03  9.6915665094939377e+03  9.6237924362689100e+03  9.5555517528013352e+03  9.4868497458115235e+03  9.4176921967827839e+03  9.3480853095574294e+03  9.2780356340517756e+03  9.2075499870444637e+03  9.1366353709903997e+03  9.0652988917739694e+03  8.9935476762491999e+03  8.9213887903244085e+03  8.8488291582494021e+03  8.7758754836592816e+03  8.7025341728307994e+03  8.6288112605216284e+03  8.5547123386964722e+03  8.4802424884005195e+03  8.4054062150230911e+03  8.3302073872025376e+03  8.2546491796569408e+03  8.1787340202818214e+03  8.1024635419286451e+03  8.0258385393664112e+03  7.9488589320204073e+03  7.8715237331758690e+03  7.7938310264186657e+03  7.7157779501570321e+03  7.6373606911134639e+03  7.5585744876950512e+03  7.4794136441340661e+03  7.3998715562287525e+03  7.3199407494146917e+03  7.2396129297435782e+03  7.1588790481467740e+03  7.0777293781185772e+03  6.9961536066646149e+03  6.9141409380408195e+03  6.8316802094642535e+03  6.7487600176120604e+03  6.6653688543728313e+03  6.5814952499681440e+03  6.4971279212530080e+03  6.4122559227476986e+03  6.3268687977496675e+03  6.2409567267583243e+03  6.1545106704060554e+03  6.0675225041408248e+03  5.9799851420529048e+03  5.8918926474664822e+03  5.8032403282295327e+03  5.7140248150125281e+03  5.6242441213535521e+03  5.5338976846546848e+03  5.4429863878075967e+03  5.3515125616037312e+03  5.2594799685361231e+03  5.1668937690100465e+03  5.0737604713456303e+03  4.9800878672519093e+03  4.8858849546802267e+03  4.7911618501258472e+03  4.6959296925264962e+03  4.6002005409279136e+03  4.5039872680369353e+03  4.4073034516824300e+03  4.3101632660620253e+03  4.2125813744672942e+03  4.1145728249784652e+03  4.0161529504015316e+03  3.9173372734916775e+03  3.8181414182906929e+03  3.7185810281912695e+03  3.6186716911406165e+03  3.5184288722213705e+03  3.4178678536827242e+03  3.3170036823625314e+03  3.2158511243240873e+03  3.1144246264378835e+03  3.0127382845700267e+03  2.9108058179808922e+03  2.8086405495037452e+03  2.7062553910535653e+03  2.6036628340022362e+03  2.5008749439650433e+03  2.3979033595527121e+03  2.2947592946584837e+03  2.1914535438810158e+03  2.0879964907069589e+03  1.9843981181152042e+03  1.8806680213022210e+03  1.7768154222694989e+03  1.6728491860694305e+03  1.5687778385647684e+03  1.4646095856423321e+03  1.3603523339453407e+03  1.2560137133751707e+03  1.1516011019453933e+03  1.0471216541734207e+03  9.4258233538235288e+02  8.3798996686838530e+02  7.3335129283270510e+02  6.2867309283957229e+02  5.2396240569926090e+02  4.1922729031636976e+02  3.1447929636218009e+02  2.0972376510679413e+02  1.0495285191863256e+02  4.4496324335716636e-01  2.2729559672226653e-02  4.6076367096199687e-03  2.6069201381041110e-03  1.2138834716861173e-03  3.8858546536836639e-04  -1.1327038176650360e-04  -4.5363806118884329e-04  -7.0914837923984541e-04  -9.1701649411740031e-04  -1.0964514783267816e-03  -1.2578970364602558e-03  -1.4072855787446265e-03  -1.5481126131726530e-03  -1.6824987807463694e-03  -1.8117581852648194e-03  -1.9367150407819096e-03  -2.0578866556945903e-03  -2.1755927232399836e-03  -2.2900225731893207e-03  -2.4012776905764158e-03  -2.5093992687570685e-03  -2.6143864746837344e-03  -2.7162088144903067e-03  -2.8148146733983654e-03  -2.9101373262771951e-03  -3.0020992472206682e-03  -3.0906152571948523e-03  -3.1755948659438617e-03  -3.2569440491659564e-03  -3.3345666237970528e-03  -3.4083653354889986e-03  -3.4782427373884718e-03  -3.5441019164175322e-03  -3.6058471074542362e-03  -3.6633842239920211e-03  -3.7166213267366484e-03  -3.7654690449252801e-03  -3.8098409619175856e-03  -3.8496539728434375e-03  -3.8848286200957754e-03  -3.9152894107710350e-03  -3.9409651190172139e-03  -3.9617890744304031e-03  -3.9776994376791190e-03  -3.9886394637236354e-03  -3.9945577514624974e-03  -3.9954084794356238e-03  -3.9911516256847341e-03  -3.9817531697159516e-03  -3.9671852738737698e-03  -3.9474264408787645e-03  -3.9224616434240045e-03  -3.8922824204258703e-03  -3.8568869344923341e-03  -3.8162799819137830e-03  -3.7704729466496033e-03  -3.7194836850175067e-03  -3.6633363267354270e-03  -3.6020609718471750e-03  -3.5356932574926569e-03  -3.4642737614367885e-03  -3.3878471970899926e-03  -3.3064613401945879e-03  -3.2201656076209029e-03  -3.1290091793382967e-03  -3.0330385164236097e-03  -2.9322940734607048e-03  -2.8268059299404349e-03  -2.7165879630491087e-03  -2.6016300486277257e-03  -2.4818876011596471e-03  -2.3572675523141824e-03  -2.2276096559453932e-03  -2.0926619089544725e-03  -1.9520492015246776e-03  -1.8052358317852692e-03  -1.6514870718019516e-03  -1.4898463795228487e-03  -1.3191672046093186e-03  -1.1382451960348392e-03  -9.4580863903255606e-04  -7.3655943574265216e-04  -4.3040622696748516e-04  1.2166965948407599e-03  1.7785408486994038e-02  1.3082230766123726e-01  7.3960999467435076e-02  1.0657858946834421e+02  2.1474933207412931e+02  3.2229543037414425e+02  4.2983229669545221e+02  5.3738779677138587e+02  6.4496967931532561e+02  7.5258798554985435e+02  8.6025161737599296e+02  9.6796901511002920e+02  1.0757485969042182e+03  1.1835989612037465e+03  1.2915290138000009e+03  1.3995480638693900e+03  1.5076659065594279e+03  1.6158929009942792e+03  1.7242400485682110e+03  1.8327190745351920e+03  1.9413425150373757e+03  2.0501238113308073e+03  2.1590774128347894e+03  2.2682188906458064e+03  2.3775650632659635e+03  2.4871341364756067e+03  2.5969458595187521e+03  2.7070217000639855e+03  2.8173850407517543e+03  2.9280614005409425e+03  3.0390786845217685e+03  3.1504674663612500e+03  3.2622613080766773e+03  3.3744971223593975e+03  3.4872155831361574e+03  3.6004615903513286e+03  3.7142847948941949e+03  3.8287401888623635e+03  3.9438887644016731e+03  4.0597982402735565e+03  4.1765438475051014e+03  4.2942091512960678e+03  4.4128868611762437e+03  4.5326795371981461e+03  4.6537000225564516e+03  4.7760712971710436e+03  4.8999252064804759e+03  5.0253990899847095e+03  5.1526285548413243e+03  5.2817332040772071e+03  5.4127894412276110e+03  5.5457793960369891e+03  5.6804956672069729e+03  5.8163669313440978e+03  5.9521608640531276e+03  6.0855800335556432e+03  6.2130418055634882e+03  6.3304350384612699e+03  6.4352902196172327e+03  6.5267050093662092e+03  6.5965655480458372e+03  6.6368106688933685e+03  6.6657989416236642e+03  6.6952698984844246e+03  6.7264374209255102e+03  6.7585912350343015e+03  6.7904647560213753e+03  6.8217335741769875e+03  6.8587023173828184e+03  6.9035419354143014e+03  6.9518002284557215e+03  7.0055042396083927e+03  7.0606045928434542e+03  7.1175467557293696e+03  7.1773147129838771e+03  7.2406317001256830e+03  7.3078757641423590e+03  7.3783853912941613e+03  7.4504790920100595e+03  7.5282008253035892e+03  7.6184195904206335e+03  7.7095384515037786e+03  7.7930672874554039e+03  7.8659743607267455e+03  7.9396746752445479e+03  8.0258999420992905e+03  8.1268703469064149e+03  8.2339720968850943e+03  8.3350648508529030e+03  8.4221463727113369e+03  1.1674915779116400e+04  1.1780556795452359e+04  1.1885302114659076e+04  1.1989485595985667e+04  8.8348820295749229e+03  8.9268617494590471e+03  8.9842550659328626e+03  9.0454831166681088e+03  9.1127195599954321e+03  1.2598109882541308e+04  1.2685962462203219e+04  1.2779941335820571e+04  1.2874631689480499e+04  1.2971448520232216e+04  1.3080885287324380e+04  1.3198550792249287e+04  9.7107788120390196e+03  1.3459708258806892e+04  1.3551023367909054e+04  1.3656085966054748e+04  1.3772179850174967e+04  1.0121735916561482e+04  1.3994200311445085e+04  1.4088808743317955e+04  1.0337511378501706e+04  1.0411023104674681e+04  1.4373274832267796e+04  1.0535631690057491e+04  1.4547096682260730e+04  1.4616282042593330e+04  1.0705767643557934e+04  1.4775452722247812e+04  1.4830134241547483e+04  1.4882371327134948e+04  1.0887885006549694e+04  1.5007113390134618e+04  1.0984694068361096e+04  1.5154612355881440e+04  1.5221826185190519e+04  1.1140534551755371e+04  1.1191042583194279e+04  1.5422447789576332e+04  1.5477259610211691e+04  1.1313149760865468e+04  1.1347223739619612e+04  1.1395445903633228e+04  1.1437620786492756e+04  1.1480219200994996e+04  1.5817198835768937e+04  1.5880873710796917e+04  1.1629608904777664e+04  1.6028003295679709e+04  1.1723747937955251e+04  1.1774478088956415e+04  1.1823761468705707e+04  1.1873969682052813e+04  1.1920124245919844e+04  1.1959415310673234e+04  1.2003492824587976e+04  1.6531751883199555e+04  1.2088110588685815e+04  1.6654893366045770e+04  1.6708555831204238e+04  1.2220293583492632e+04  1.6835449378682308e+04  1.2312616091335882e+04  1.6968335102138491e+04  1.7030017724912930e+04  1.7093990422987757e+04  1.7154678051917184e+04  1.2548440447674326e+04  1.7291545892843435e+04  1.7352757987788747e+04  1.7419612446732306e+04  1.7475474838268503e+04  1.2764266031865620e+04  1.2807564093355597e+04  1.2846796356815747e+04  1.2887066276814950e+04  1.2928030717220205e+04  1.2966179775969755e+04  1.3004314038756942e+04  1.3043510735205014e+04  1.3081391334690632e+04  1.3120933573375039e+04  1.3170573990122512e+04  1.3230444340946739e+04  1.3263194039771701e+04  1.3300546375117887e+04  1.3337353431600341e+04  1.3371441624208135e+04  1.3401612549103593e+04  1.3429849951956550e+04  1.3457944766850533e+04  1.3485789329068442e+04  1.3517669233464949e+04  1.3559347256524556e+04  1.3585998208933010e+04  1.3619334731788738e+04  1.3661686153618515e+04  1.3688700968523335e+04  1.8822723431983432e+04  1.3750321995468370e+04  1.3778906774048444e+04  1.8938426037539237e+04  1.3816263443204129e+04  1.3840557891824727e+04  1.9022362980155867e+04  1.3876804803640194e+04  1.3898114316647197e+04  1.9098784328911897e+04  1.9114630109729525e+04  1.3940900708272760e+04  1.9162565907291930e+04  1.9191051034514745e+04  1.3994732788132133e+04  1.4016550752311334e+04  1.4033892679712528e+04  1.9287818011174837e+04  1.4070508941585525e+04  1.4090418938149380e+04  1.4106924874064533e+04  1.9384956442041595e+04  1.4134371341484699e+04  1.4154884267391219e+04  1.4171837220859190e+04  1.4187998442995748e+04  1.4202072670898040e+04  1.4213707707990552e+04  1.4231101712045591e+04  1.4247139924574718e+04  1.4264134146409000e+04  1.4282463215028234e+04  1.4300791259036472e+04  1.4318594531114961e+04  1.4335846504169986e+04  1.4352458158512518e+04  1.4369012038009398e+04  1.4386799646973172e+04  1.4405060972051240e+04  1.4423058157450389e+04  1.4440260404895460e+04  1.4456528008467145e+04  1.4473013815333361e+04  1.4488551868188968e+04  1.4500054707038225e+04  1.4513939011247754e+04  1.4529648248931888e+04  1.9963905844007964e+04  1.9981467912401728e+04  2.0001184482832377e+04  2.0021775266390174e+04  2.0020670870084883e+04  2.0019910031240506e+04  2.0019200489794141e+04  2.0018480595635931e+04  2.0017744546855767e+04  2.0016997403929461e+04  2.0016245803470843e+04  2.0015496087674906e+04  2.0014753901510234e+04  2.0014024126216533e+04  2.0013310905461585e+04  2.0012617698441063e+04  2.0011947340397019e+04  2.0011302104731720e+04  2.0010683764595960e+04  2.0010093652639658e+04  2.0009532717832059e+04  2.0009001578474439e+04  2.0008500570801803e+04  2.0008029792851434e+04  2.0007589143522677e+04  2.0007178356945264e+04  2.0006797032408966e+04  2.0006444660194247e+04  2.0006120643689406e+04  2.0005824318195875e+04  2.0005554966817559e+04  2.0005311833810989e+04  2.0005094135744457e+04  2.0004901070782311e+04  2.0004731826375890e+04  2.0004585585609537e+04  2.0004461532418514e+04  2.0004358855865987e+04  2.0004276753640213e+04  2.0004214434909820e+04  2.0004171122654439e+04  2.0004146055570222e+04  2.0004138489634610e+04  2.0004147699401914e+04  2.0004172979090137e+04  2.0004213643510357e+04  2.0004269028882441e+04  2.0004338493574607e+04  2.0004421418799258e+04  2.0004517209293561e+04  2.0004625294010184e+04  2.0004745126841375e+04  2.0004876187398091e+04  2.0005017981865269e+04  2.0005170043953902e+04  2.0005331935971968e+04  2.0005503250036512e+04  2.0005683609452386e+04  2.0005872670284723e+04  2.0006070123157166e+04  2.0006275695311462e+04  2.0006489152970240e+04  2.0006710304051736e+04  2.0006939001293355e+04  2.0007175145851001e+04  2.0007418691452651e+04  2.0007669649198007e+04  2.0007928093111015e+04  2.0008194166568126e+04  2.0008468089741655e+04  2.0008750168211271e+04  2.0009040802904605e+04  2.0009340501520885e+04  2.0009649891556364e+04  2.0009969734960534e+04  2.0010300944265775e+04  2.0010644599670348e+04  2.0011001965887630e+04  2.0011374506379609e+04  2.0011763890515595e+04  2.0012171985714598e+04  2.0012600821155218e+04  2.0013052502186780e+04  2.0013529048169396e+04  2.0014032133004537e+04  2.0014562753861748e+04  2.0015120966590603e+04  2.0015706143081927e+04  2.0016321702861933e+04  2.0017026635249957e+04  2.0018319132157056e+04  1.9997673929269222e+04  1.9997116241335658e+04  1.9996484047132028e+04  1.9995870415757887e+04  1.9995282399665637e+04  1.9994722395976754e+04  1.9994191807284293e+04  1.9993690255305701e+04  1.9993216131295547e+04  1.9992767244218907e+04  1.9992341238549921e+04  1.9991935821497667e+04  1.9991548873867301e+04  1.9991178495519129e+04  1.9990823015641563e+04  1.9990480985071386e+04  1.9990151160291833e+04  1.9989832484366045e+04  1.9989524067575647e+04  1.9989225169136251e+04  1.9988935180588400e+04  1.9988653611046346e+04  1.9988380074271583e+04  1.9988114277435841e+04  1.9987856011397165e+04  1.9987605142305019e+04  1.9987361604358881e+04  1.9987125393561011e+04  1.9986896562322665e+04  1.9986675214801588e+04  1.9986461502865986e+04  1.9986255622595490e+04  1.9986057811242921e+04  1.9985868344592207e+04  1.9985687534657660e+04  1.9985515727677466e+04  1.9985353302361440e+04  1.9985200668358419e+04  1.9985058264912972e+04  1.9984926559684987e+04  1.9984806047708098e+04  1.9984697250464942e+04  1.9984600715058816e+04  1.9984517013461329e+04  1.9984446741816166e+04  1.9984390519778091e+04  1.9984348989864964e+04  1.9984322816798423e+04  1.9984312686806104e+04  1.9984319306854075e+04  1.9984343403773808e+04  1.9984385723241448e+04  1.9984447028560233e+04  1.9984528099187799e+04  1.9984629728939566e+04  1.9984752723786842e+04  1.9984897899153184e+04  1.9985066076595434e+04  1.9985258079735650e+04  1.9985474729286478e+04  1.9985716836986878e+04  1.9985985198234775e+04  1.9986280583171239e+04  1.9986603725935343e+04  1.9986955311772592e+04  1.9987335961643606e+04  1.9987746213946135e+04  1.9988186502936824e+04  1.9988657133424331e+04  1.9989158251309400e+04  1.9989689809579922e+04  1.9990251529440655e+04  1.9990842856381256e+04  1.9991462911175393e+04  1.9992110436066745e+04  1.9992783736731355e+04  1.9993480620974362e+04  1.9994198335421177e+04  1.9994933501471831e+04  1.9995682051120806e+04  1.9996439161580518e+04  1.9997199185683960e+04  1.9997955573635427e+04  1.9998700743341538e+04  1.9999425399258078e+04  2.0000113733233247e+04  2.0000718015238730e+04  2.0001075421393525e+04  1.9977640303784578e+04  1.9977164123214417e+04  1.9976575668134676e+04  1.9975944500201731e+04  1.9975337173971566e+04  1.9974770054491240e+04  1.9974242311109796e+04  1.9973749335106793e+04  1.9973286372208178e+04  1.9972849316747503e+04  1.9972434764498958e+04  1.9972039906267390e+04  1.9971662412406538e+04  1.9971300339235655e+04  1.9970952057979921e+04  1.9970616201050787e+04  1.9970291620775188e+04  1.9969977357004180e+04  1.9969672611171711e+04  1.9969376725164944e+04  1.9969089163882447e+04  1.9968809500686988e+04  1.9968537405174517e+04  1.9968272632824872e+04  1.9968015016199075e+04  1.9967764457419369e+04  1.9967520921720778e+04  1.9967284431903216e+04  1.9967055063544234e+04  1.9966832940857232e+04  1.9966618233099507e+04  1.9966411151450975e+04  1.9966211946296764e+04  1.9966020904858015e+04  1.9965838349123758e+04  1.9965664634043816e+04  1.9965500145948594e+04  1.9965345301166421e+04  1.9965200544812807e+04  1.9965066349729219e+04  1.9964943215550960e+04  1.9964831667885861e+04  1.9964732257586340e+04  1.9964645560098015e+04  1.9964572174867993e+04  1.9964512724795575e+04  1.9964467855706898e+04  1.9964438235833190e+04  1.9964424555270001e+04  1.9964427525391395e+04  1.9964447878189079e+04  1.9964486365501147e+04  1.9964543758088887e+04  1.9964620844512199e+04  1.9964718429744920e+04  1.9964837333460007e+04  1.9964978387901006e+04  1.9965142435240170e+04  1.9965330324304603e+04  1.9965542906529114e+04  1.9965781030968406e+04  1.9966045538170245e+04  1.9966337252676301e+04  1.9966656973876656e+04  1.9967005464899357e+04  1.9967383439166530e+04  1.9967791544196112e+04  1.9968230342174633e+04  1.9968700286775584e+04  1.9969201695656418e+04  1.9969734718043284e+04  1.9970299296821839e+04  1.9970895124613922e+04  1.9971521593467583e+04  1.9972177738066144e+04  1.9972862172836238e+04  1.9973573024068741e+04  1.9974307859133860e+04  1.9975063615615902e+04  1.9975836531744153e+04  1.9976622069246474e+04  1.9977414781263022e+04  1.99