<?xml version="1.0"?>
<VTKFile type="UnstructuredGrid"  version="0.1"  >
<UnstructuredGrid>
<Piece  NumberOfPoints="21600" NumberOfCells="42542">
<Points>
<DataArray  type="Float64"  NumberOfComponents="3"  format="ascii">0 0 0  0.77 0 0  0.77 0.15 0  0 0.15 0  0.003221757322170014 0 0  0.006443514644340046 0 0  0.009665271966510193 0 0  0.01288702928868034 0 0  0.01610878661085048 0 0  0.01933054393302049 0 0  0.02255230125519027 0 0  0.02577405857735967 0 0  0.02899581589952872 0 0  0.03221757322169801 0 0  0.03543933054386744 0 0  0.03866108786603686 0 0  0.04188284518820627 0 0  0.0451046025103757 0 0  0.04832635983254521 0 0  0.05154811715471607 0 0  0.05476987447688695 0 0  0.05799163179905782 0 0  0.06121338912122846 0 0  0.06443514644339859 0 0  0.06765690376556875 0 0  0.0708786610877389 0 0  0.07410041840990904 0 0  0.0773221757320792 0 0  0.08054393305425039 0 0  0.08376569037642198 0 0  0.0869874476985936 0 0  0.09020920502076518 0 0  0.0934309623429339 0 0  0.0966527196651024 0 0  0.09987447698726967 0 0  0.1030962343094369 0 0  0.1063179916316041 0 0  0.1095397489537714 0 0  0.1127615062759386 0 0  0.1159832635981051 0 0  0.1192050209202709 0 0  0.1224267782424358 0 0  0.1256485355646001 0 0  0.1288702928867644 0 0  0.1320920502089288 0 0  0.1353138075310958 0 0  0.1385355648532632 0 0  0.1417573221754333 0 0  0.1449790794976035 0 0  0.1482008368197736 0 0  0.1514225941419428 0 0  0.1546443514641101 0 0  0.157866108786276 0 0  0.1610878661084403 0 0  0.1643096234306047 0 0  0.167531380752769 0 0  0.1707531380749333 0 0  0.1739748953970977 0 0  0.177196652719262 0 0  0.1804184100414264 0 0  0.1836401673635935 0 0  0.1868619246857611 0 0  0.1900836820079313 0 0  0.1933054393301014 0 0  0.1965271966522716 0 0  0.1997489539744406 0 0  0.2029707112966078 0 0  0.2061924686187736 0 0  0.209414225940938 0 0  0.2126359832631022 0 0  0.2158577405852666 0 0  0.219079497907431 0 0  0.2223012552295953 0 0  0.2255230125517597 0 0  0.2287447698739242 0 0  0.2319665271960914 0 0  0.2351882845182592 0 0  0.2384100418404293 0 0  0.2416317991625994 0 0  0.2448535564847696 0 0  0.2480753138069371 0 0  0.2512970711291014 0 0  0.2545188284512658 0 0  0.2577405857734302 0 0  0.2609623430955986 0 0  0.2641841004177688 0 0  0.2674058577399389 0 0  0.270627615062109 0 0  0.2738493723842792 0 0  0.2770711297064487 0 0  0.280292887028613 0 0  0.2835146443507774 0 0  0.2867364016729417 0 0  0.2899581589951061 0 0  0.2931799163172705 0 0  0.2964016736394348 0 0  0.2996234309615992 0 0  0.3028451882837672 0 0  0.3060669456059373 0 0  0.3092887029281075 0 0  0.3125104602502776 0 0  0.3157322175724478 0 0  0.3189539748946177 0 0  0.322175732216782 0 0  0.3253974895389464 0 0  0.3286192468611107 0 0  0.3318410041832751 0 0  0.3350627615054395 0 0  0.3382845188276038 0 0  0.3415062761497681 0 0  0.3447280334719325 0 0  0.3479497907940968 0 0  0.3511715481162612 0 0  0.3543933054384255 0 0  0.3576150627605947 0 0  0.3608368200827649 0 0  0.364058577404935 0 0  0.3672803347271051 0 0  0.3705020920492753 0 0  0.373723849371444 0 0  0.3769456066936084 0 0  0.3801673640157748 0 0  0.383389121337945 0 0  0.3866108786601209 0 0  0.3898326359823028 0 0  0.3930543933044846 0 0  0.3962761506266662 0 0  0.399497907948848 0 0  0.4027196652710298 0 0  0.4059414225932116 0 0  0.4091631799153934 0 0  0.4123849372375751 0 0  0.4156066945597569 0 0  0.4188284518819387 0 0  0.4220502092041222 0 0  0.4252719665263097 0 0  0.4284937238484974 0 0  0.4317154811706849 0 0  0.4349372384928725 0 0  0.4381589958150601 0 0  0.4413807531372476 0 0  0.4446025104594352 0 0  0.4478242677816181 0 0  0.4510460251037998 0 0  0.4542677824259815 0 0  0.4574895397481634 0 0  0.4607112970703451 0 0  0.4639330543925269 0 0  0.4671548117147087 0 0  0.4703765690368904 0 0  0.4735983263590722 0 0  0.4768200836812568 0 0  0.4800418410034444 0 0  0.483263598325632 0 0  0.4864853556478196 0 0  0.4897071129700028 0 0  0.4929288702921845 0 0  0.4961506276143663 0 0  0.4993723849365479 0 0  0.5025941422587239 0 0  0.5058158995809008 0 0  0.5090376569030826 0 0  0.5122594142252677 0 0  0.515481171547461 0 0  0.5187029288696494 0 0  0.5219246861918312 0 0  0.525146443514013 0 0  0.5283682008361947 0 0  0.5315899581583845 0 0  0.5348117154805778 0 0  0.5380334728027617 0 0  0.5412552301249435 0 0  0.5444769874471141 0 0  0.5476987447692853 0 0  0.550920502091467 0 0  0.5541422594136513 0 0  0.5573640167358447 0 0  0.560585774058034 0 0  0.5638075313802158 0 0  0.5670292887023975 0 0  0.5702510460245793 0 0  0.5734728033467682 0 0  0.5766945606689615 0 0  0.579916317991155 0 0  0.5831380753133483 0 0  0.5863598326355314 0 0  0.5895815899577131 0 0  0.5928033472798949 0 0  0.5960251046020785 0 0  0.5992468619242718 0 0  0.6024686192464619 0 0  0.6056903765686437 0 0  0.6089121338908206 0 0  0.6121338912129908 0 0  0.6153556485351673 0 0  0.618577405857349 0 0  0.6217991631795386 0 0  0.625020920501732 0 0  0.6282426778239159 0 0  0.6314644351460976 0 0  0.6346861924682795 0 0  0.6379079497904622 0 0  0.6411297071126555 0 0  0.6443514644348465 0 0  0.6475732217570283 0 0  0.650794979079206 0 0  0.6540167364013761 0 0  0.6572384937235518 0 0  0.6604602510457335 0 0  0.6636820083679225 0 0  0.6669037656901158 0 0  0.6701255230123004 0 0  0.6733472803344823 0 0  0.6765690376566641 0 0  0.6797907949788459 0 0  0.6830125523010393 0 0  0.686234309623231 0 0  0.6894560669454127 0 0  0.6926778242675914 0 0  0.6958995815897615 0 0  0.6991213389119363 0 0  0.7023430962341181 0 0  0.7055648535563062 0 0  0.7087866108784994 0 0  0.712008368200685 0 0  0.7152301255228668 0 0  0.7184518828450486 0 0  0.7216736401672305 0 0  0.724895397489423 0 0  0.7281171548116155 0 0  0.7313389121337973 0 0  0.7345606694559768 0 0  0.7377824267781468 0 0  0.7410041841003209 0 0  0.7442259414225026 0 0  0.7474476987446899 0 0  0.7506694560668832 0 0  0.7538912133890696 0 0  0.7571129707112513 0 0  0.760334728033433 0 0  0.7635564853556149 0 0  0.7667782426778067 0 0  0.77 0.001685393258423789 0  0.77 0.003370786516847669 0  0.77 0.005056179775271247 0  0.77 0.006741573033694517 0  0.77 0.008426966292117821 0  0.77 0.01011235955054176 0  0.77 0.01179775280896623 0  0.77 0.0134831460673904 0  0.77 0.01516853932581489 0  0.77 0.01685393258423891 0  0.77 0.01853932584266291 0  0.77 0.02022471910108589 0  0.77 0.02191011235950794 0  0.77 0.02359550561792999 0  0.77 0.02528089887635205 0  0.77 0.02696629213477411 0  0.77 0.02865168539319714 0  0.77 0.03033707865161956 0  0.77 0.03202247191004162 0  0.77 0.03370786516846367 0  0.77 0.03539325842688572 0  0.77 0.03707865168530778 0  0.77 0.03876404494372984 0  0.77 0.0404494382021519 0  0.77 0.04213483146057394 0  0.77 0.04382022471899601 0  0.77 0.04550561797741807 0  0.77 0.04719101123584013 0  0.77 0.04887640449426219 0  0.77 0.05056179775268425 0  0.77 0.0522471910111063 0  0.77 0.05393258426952837 0  0.77 0.05561797752795105 0  0.77 0.05730337078637505 0  0.77 0.05898876404479723 0  0.77 0.0606741573032193 0  0.77 0.06235955056164135 0  0.77 0.06404494382006341 0  0.77 0.06573033707848548 0  0.77 0.06741573033690752 0  0.77 0.06910112359532959 0  0.77 0.07078651685375165 0  0.77 0.0724719101121737 0  0.77 0.07415730337059653 0  0.77 0.07584269662902443 0  0.77 0.07752808988745429 0  0.77 0.07921348314588413 0  0.77 0.08089887640431678 0  0.77 0.08258426966274923 0  0.77 0.08426966292117907 0  0.77 0.08595505617960987 0  0.77 0.08764044943804362 0  0.77 0.08932584269647403 0  0.77 0.09101123595490389 0  0.77 0.09269662921333673 0  0.77 0.09438202247176901 0  0.77 0.09606741573019884 0  0.77 0.09775280898862983 0  0.77 0.09943820224706355 0  0.77 0.1011235955054938 0  0.77 0.1028089887639236 0  0.77 0.1044943820223567 0  0.77 0.1061797752807888 0  0.77 0.1078651685392186 0  0.77 0.1095505617976498 0  0.77 0.1112359550560835 0  0.77 0.1129213483145136 0  0.77 0.1146067415729456 0  0.77 0.1162921348313787 0  0.77 0.1179775280898085 0  0.77 0.1196629213482387 0  0.77 0.1213483146066724 0  0.77 0.1230337078651035 0  0.77 0.1247191011235322 0  0.77 0.1264044943819605 0  0.77 0.1280898876403903 0  0.77 0.1297752808988242 0  0.77 0.1314606741572554 0  0.77 0.1331460674156853 0  0.77 0.1348314606741154 0  0.77 0.1365168539325504 0  0.77 0.1382022471909802 0  0.77 0.13988764044941 0  0.77 0.1415730337078443 0  0.77 0.1432584269662752 0  0.77 0.144943820224705 0  0.77 0.1466292134831355 0  0.77 0.1483146067415701 0  0.7667782426778414 0.15 0  0.7635564853556813 0.15 0  0.7603347280335111 0.15 0  0.757112970711341 0.15 0  0.7538912133891708 0.15 0  0.7506694560670005 0.15 0  0.7474476987448303 0.15 0  0.7442259414226602 0.15 0  0.74100418410049 0.15 0  0.7377824267783197 0.15 0  0.7345606694561496 0.15 0  0.7313389121339794 0.15 0  0.7281171548118092 0.15 0  0.724895397489639 0.15 0  0.7216736401674688 0.15 0  0.7184518828452986 0.15 0  0.7152301255231284 0.15 0  0.7120083682009583 0.15 0  0.708786610878788 0.15 0  0.7055648535566178 0.15 0  0.7023430962344477 0.15 0  0.6991213389122775 0.15 0  0.6958995815901072 0.15 0  0.692677824267937 0.15 0  0.6894560669457669 0.15 0  0.6862343096235967 0.15 0  0.6830125523014264 0.15 0  0.6797907949792563 0.15 0  0.6765690376570861 0.15 0  0.6733472803349159 0.15 0  0.6701255230127456 0.15 0  0.6669037656905755 0.15 0  0.6636820083684053 0.15 0  0.6604602510462351 0.15 0  0.657238493724065 0.15 0  0.6540167364018947 0.15 0  0.6507949790797245 0.15 0  0.6475732217575543 0.15 0  0.644351464435384 0.15 0  0.6411297071132231 0.15 0  0.6379079497910645 0.15 0  0.634686192468906 0.15 0  0.6314644351467468 0.15 0  0.6282426778245765 0.15 0  0.6250209205024085 0.15 0  0.62179916318025 0.15 0  0.6185774058580914 0.15 0  0.6153556485359328 0.15 0  0.6121338912137689 0.15 0  0.6089121338915987 0.15 0  0.6056903765694354 0.15 0  0.6024686192472768 0.15 0  0.5992468619251182 0.15 0  0.5960251046029597 0.15 0  0.5928033472807912 0.15 0  0.589581589958621 0.15 0  0.5863598326364508 0.15 0  0.5831380753142792 0.15 0  0.5799163179920974 0.15 0  0.57669456
[...]
<PointData  Scalars="pressure"> 
<DataArray  type="Float64"  Name="pressure"  format="ascii">9.7320677473769319e+03  1.2657219791616505e+00  -2.2952587578139818e+00  9.7481271652661835e+03  9.7061966517862147e+03  9.6865224680611282e+03  9.6691328541164148e+03  7.0265731269684175e+03  7.0097342220200744e+03  6.9944729692563142e+03  6.9793277076859486e+03  6.9642725515095717e+03  6.9492823133967922e+03  6.9343360917959208e+03  6.9194209322107690e+03  6.9045283200831773e+03  6.8896523576572954e+03  6.8747888308708680e+03  6.8599346666161409e+03  6.8450875959950063e+03  6.8302459355775918e+03  6.8154084397009028e+03  6.8005741974269877e+03  6.7857425586502550e+03  6.7709130798600099e+03  6.7560854835433320e+03  6.7412596273011268e+03  6.7264354800448718e+03  6.7116131034665250e+03  6.6967926375135812e+03  6.6819742889610106e+03  6.6671583224172382e+03  6.6523450532709394e+03  6.6375348422051284e+03  6.6227280909909277e+03  6.6079252393351762e+03  6.5931267626026956e+03  6.5783331702684736e+03  6.5635450049821748e+03  6.5487628421486252e+03  6.5339872899455941e+03  6.5192189897151720e+03  6.5044586166782456e+03  6.4897068809341472e+03  6.4749645287188696e+03  6.4602323439073571e+03  6.4455111497567113e+03  6.4308018108989754e+03  6.4161052356046075e+03  6.4014223783494963e+03  6.3867542427311964e+03  6.3721018847917330e+03  6.3574664168159088e+03  6.3428490116845596e+03  6.3282509078704061e+03  6.3136734151709279e+03  6.2991179212748784e+03  6.2845858992581016e+03  6.2700789160973227e+03  6.2555986422777332e+03  6.2411468625503485e+03  6.2267254878677504e+03  6.2123365684922319e+03  6.1979823082293424e+03  6.1836650796936392e+03  6.1693874404651906e+03  6.1551521499481933e+03  6.1409621867005553e+03  6.1268207659709224e+03  6.1127313571592404e+03  6.0986977009126476e+03  6.0847238255796865e+03  6.0708140627705370e+03  6.0569730618045469e+03  6.0432058028612037e+03  6.0295176086779902e+03  6.0159141546492574e+03  6.0024014771655020e+03  5.9889859799872938e+03  5.9756744383683990e+03  5.9624740005293979e+03  5.9493921859385200e+03  5.9364368796839708e+03  5.9236163220251947e+03  5.9109390919883072e+03  5.8984140836198685e+03  5.8860504732189302e+03  5.8738576755074646e+03  5.8618452862330223e+03  5.8500230080604006e+03  5.8384005556963402e+03  5.8269875348301730e+03  5.8157932873744849e+03  5.8048266921495315e+03  5.7940959046790676e+03  5.7836080104978200e+03  5.7733685501389891e+03  5.7633808444082788e+03  5.7536449922107158e+03  5.7441562997690344e+03  5.7349026554599786e+03  5.7258597957247466e+03  5.7169820103231341e+03  5.7081825370385150e+03  5.6992852455236152e+03  5.6897581421105860e+03  5.6771836370096644e+03  5.6534964923145699e+03  5.6135921615971874e+03  5.5736799198284443e+03  5.5333353863180473e+03  5.4929143502930947e+03  5.4525753655585504e+03  5.4124108501281344e+03  5.3724845277682116e+03  5.3328418140848626e+03  5.2935160541573414e+03  5.2545322850471885e+03  5.2159095505106525e+03  5.1776623947368880e+03  5.1398018656734330e+03  5.1023362093851438e+03  5.0652713592108266e+03  5.0286112802803364e+03  4.9923582047241907e+03  4.9565127775061628e+03  4.9210741230332496e+03  4.8860398363148079e+03  4.8514058982475435e+03  4.8171665119490108e+03  4.7833138556170325e+03  4.7498377470410924e+03  4.7167252157097619e+03  4.6839599807402674e+03  4.6515218371484225e+03  4.6193859600765390e+03  4.5875221474680457e+03  4.5558940372785983e+03  4.5244583563769011e+03  4.4931642850835533e+03  4.4619530533210991e+03  4.4307579195607004e+03  4.3995047169216468e+03  4.3681131712520764e+03  4.3364991872530809e+03  4.3045782440742305e+03  4.2722699396655753e+03  4.2395036071070281e+03  4.2062248793198860e+03  4.1724032242764151e+03  4.1380408814734001e+03  4.1031840845192100e+03  4.0679380457325105e+03  4.0325036206723357e+03  3.9972918020265865e+03  3.9632153889197280e+03  3.9315007937261389e+03  3.8902194703678906e+03  3.8308905130149083e+03  3.7774626288728282e+03  3.7257168940235765e+03  3.6745437272809722e+03  3.6235662372823472e+03  3.5726257129301898e+03  3.5216580122987152e+03  3.4706452543304645e+03  3.4195934070933845e+03  3.3685209314341387e+03  3.3174526276745846e+03  3.2664161525729564e+03  3.2154400011011821e+03  3.1645523319979834e+03  3.1137802969839386e+03  3.0631496782339254e+03  3.0126847176048791e+03  2.9624080661964344e+03  2.9123408095798923e+03  2.8625025403939599e+03  2.8129114602305103e+03  2.7635844992337516e+03  2.7145374460039639e+03  2.6657850830884299e+03  2.6173413250870376e+03  2.5692193575265301e+03  2.5214317753863415e+03  2.4739907206245016e+03  2.4269080183462715e+03  2.3801953114498970e+03  2.3338641937161033e+03  2.2879263414383267e+03  2.2423936438618821e+03  2.1972783329590275e+03  2.1525931134501607e+03  2.1083512944736171e+03  2.0645669248378390e+03  2.0212549341933343e+03  1.9784312824607530e+03  1.9361131190988158e+03  1.8943189518929698e+03  1.8530688215443756e+03  1.8123844731870963e+03  1.7722895089322701e+03  1.7328094966128383e+03  1.6939719990771318e+03  1.6558064756668803e+03  1.6183439931464188e+03  1.5816166683351194e+03  1.5456567518772001e+03  1.5104952578036864e+03  1.4761600555878201e+03  1.4426733774120364e+03  1.4100487460701279e+03  1.3782873620949645e+03  1.3473739524789783e+03  1.3172719985293500e+03  1.2879182929878996e+03  1.2592169644573542e+03  1.2310326564364357e+03  1.2031801384585751e+03  1.1754039859342940e+03  1.1473417972640073e+03  1.1184749955333180e+03  1.0880931371618876e+03  1.0553186515108355e+03  1.0192494917610175e+03  9.7922983829220027e+02  9.3509923270488105e+02  8.8718929841670956e+02  8.3608935467717311e+02  7.8242228137946438e+02  7.2674144982320013e+02  6.6950490066041459e+02  6.1107681188187041e+02  5.5173896709501946e+02  4.9170620421924468e+02  4.3114180817607138e+02  3.7017069171041703e+02  3.0888984328014516e+02  2.4737655884466938e+02  1.8569568912275625e+02  1.2389822710998517e+02  6.2020374457993867e+01  2.6335065898538945e-01  1.2930510192009151e-02  1.3955783707931785e-03  -5.7503633846594409e-04  -2.1513978282737792e-03  -3.3472050935100433e-03  -4.2960717771508110e-03  -5.0844275537307191e-03  -5.7499169086357681e-03  -6.3085710381625649e-03  -6.7674802106181958e-03  -7.1302213129635656e-03  -7.3992770539589806e-03  -7.5771092547584091e-03  -7.6665852426926881e-03  -7.6710760223901806e-03  -7.5943823034714825e-03  -7.4405698982031336e-03  -7.2137584186862886e-03  -6.9178855601608842e-03  -6.5564545830492198e-03  -6.1322625175690617e-03  -5.6471008981033612e-03  -5.1014184988200165e-03  -4.4939362149423760e-03  -3.8212070337112357e-03  -3.0771170413445804e-03  -2.2523245463240524e-03  -1.3336318775995276e-03  -3.0327690197938154e-04  8.6188187910940094e-04  2.1913307328204523e-03  3.7220833235511981e-03  5.5001773139590378e-03  7.5826341724088749e-03  1.0040176464683860e-02  1.2961517931663212e-02  1.6461195929962889e-02  2.0702173841611774e-02  2.5895174756126606e-02  3.1483769406511312e-02  3.4337632503344706e-02  7.3462292452123115e-02  3.0768578107933864e-01  -3.1349130016102524e+00  5.8043808529310359e-01  4.4924088747199234e-02  5.4994011163727180e-02  -7.2871985196659633e-02  1.7925567150372985e+00  -4.9287264036179174e-01  -2.1826438622993525e-02  -1.2753901240709917e-01  -1.2802322388469439e-01  -1.1048555403392488e-01  -8.7107582288822899e-02  -6.3492179010483610e-02  -4.2369713705953549e-02  -2.4862301349562542e-02  -1.1151853873001572e-02  -9.1214868420956866e-04  6.4104016869303794e-03  1.1424123789994975e-02  1.4697097922528558e-02  1.6714221375260980e-02  1.7865916514023562e-02  1.8453894913991926e-02  1.8704634920914374e-02  1.8785235673989958e-02  1.8819023230562122e-02  1.8899940999252594e-02  1.9105598481020784e-02  1.9508909939894504e-02  2.0187185594087040e-02  2.1224005563221734e-02  2.2686595052336479e-02  2.4392473357365514e-02  2.5359295235153172e-02  2.8809983551188394e-02  3.3042081878845070e-01  -3.3022715623080812e+00  5.8518313990664506e-01  1.8174359941178483e-02  6.8180709314707650e-03  1.2692617456144884e-02  -1.2512902058277137e-01  2.1588562863402396e+00  -3.1271104443756648e+00  8.4668433545214171e+01  1.7293699934285686e+02  2.5923856552317363e+02  3.4564677335697513e+02  4.3283362187542923e+02  5.2090221362512273e+02  6.0910454392545000e+02  6.9632873208979015e+02  7.8227105830113214e+02  8.6726632482045954e+02  9.5159674870910146e+02  1.0353249366495036e+03  1.1183555481304204e+03  1.2004533835671691e+03  1.2811878883326376e+03  1.3598127080801028e+03  1.4351563329865501e+03  1.5057508972592177e+03  1.5704089491864436e+03  1.6289115253882867e+03  1.6820575898928926e+03  1.7311460979643498e+03  1.7774585491667988e+03  1.8220293743213060e+03  1.8656197546407425e+03  1.9087662182002539e+03  1.9518374066553417e+03  1.9950772062842798e+03  2.0386333017450081e+03  2.0825747162114317e+03  2.1269000624552664e+03  2.1715268220794760e+03  2.2161012857093274e+03  2.2584835530841665e+03  1.6818370655895067e+03  2.3553279618785386e+03  2.3960408412092356e+03  1.7821608879347257e+03  2.4936872721645450e+03  2.5374427128619836e+03  2.5832429135032467e+03  2.6293397200674799e+03  2.6756065120276580e+03  2.7219789363199338e+03  2.7681401893053949e+03  2.8119490587444111e+03  2.0862422282104408e+03  2.9124306190568864e+03  2.9573232230563531e+03  3.0041038967357199e+03  3.0510280612469642e+03  3.0979219528766434e+03  3.1444792972071846e+03  3.1885878364504811e+03  2.3608535527890608e+03  3.2898007292829493e+03  3.3352326400517641e+03  3.3828537090866712e+03  3.4310213955216277e+03  3.4796698750646551e+03  3.5285701107512632e+03  3.5755246696169315e+03  2.6457825715974118e+03  3.6853092450588397e+03  3.7327832229353467e+03  2.7628446971247922e+03  3.8497317935917881e+03  3.9007435992841415e+03  2.8886040019269499e+03  4.0269784871166580e+03  4.0821979275835706e+03  3.0247004931857737e+03  4.2189122736776035e+03  4.2786358552423553e+03  3.1718553469778012e+03  4.4260526440409467e+03  4.4901932093880732e+03  3.3298645885509050e+03  4.6477697264430662e+03  4.7159067902146626e+03  3.4976199330003574e+03  4.8817704730846363e+03  4.9525487193932595e+03  3.6717088637207189e+03  5.1219332180403799e+03  5.1957195230034313e+03  5.2667279079345426e+03  3.8938422005030288e+03  3.9514955428971180e+03  5.4905868772337135e+03  5.5497091464723235e+03  5.6045907541143015e+03  4.1255810227132533e+03  4.1679562068196547e+03  5.7702806746518090e+03  5.8146840575905080e+03  5.8573517040780362e+03  4.3019506800169629e+03  4.3390723845614230e+03  6.0021449064044264e+03  6.0459122052295834e+03  6.0893667997998145e+03  4.4724516987775523e+03  4.5124197380319592e+03  6.2465299504321529e+03  6.2877472340040795e+03  4.6055938553950045e+03  4.6372427889992932e+03  4.6668398737978041e+03  4.6958739763323192e+03  4.7242139154429497e+03  4.7518893404045029e+03  4.7790923097322848e+03  4.8060145622238542e+03  4.8327843521905479e+03  4.8594707465775318e+03  4.8861057725567925e+03  4.9127020156643412e+03  4.9392631576461990e+03  4.9657894011599483e+03  4.9922797213645908e+03  5.0187323502368545e+03  5.0451443560721145e+03  5.0715108250645962e+03  5.0978239734888975e+03  5.1240724257324473e+03  5.1502408148563491e+03  5.1763097791267255e+03  5.2022563533778848e+03  5.2280547033891899e+03  5.2536771265910338e+03  5.2790952348327291e+03  5.3042812343998175e+03  5.3292092181870876e+03  5.3538563822203541e+03  5.3782040737150255e+03  5.4022385727993988e+03  5.4259515097575095e+03  5.4493398325833778e+03  5.4724052770041335e+03  5.4951533615532671e+03  5.5175920292447627e+03  5.5397301574115409e+03  5.5615762111473150e+03  5.5831372818109439e+03  5.6044186295900718e+03  5.6254236924737306e+03  5.6461544110437217e+03  5.6666116943168590e+03  5.6867958993955690e+03  5.7067072631701903e+03  5.7263462670904455e+03  5.7457139315963968e+03  5.7648120410037263e+03  5.7836433039963786e+03  5.8022114595462317e+03  5.8205213388945276e+03  5.8385788892100236e+03  5.8563911554967635e+03  5.8739662092587041e+03  5.8913130112352819e+03  5.9084412039240387e+03  5.9253608443301109e+03  5.9420821007926170e+03  5.9586149428259032e+03  5.9749688474368795e+03  5.9911525321473564e+03  6.0071737089230801e+03  6.0230388381575167e+03  6.0387528484957011e+03  6.0543187740649073e+03  6.0697372401646662e+03  6.0850056932260532e+03  6.1001172085613516e+03  6.1150586022703856e+03  6.1298074361272493e+03  6.1443281013808983e+03  6.1585750892989399e+03  6.1725467988039700e+03  6.1864375110350093e+03  6.2005299326822496e+03  6.2146186569138654e+03  6.2300948003034528e+03  6.2487611374351063e+03  6.2606104211273232e+03  6.2789394926494051e+03  6.3031537639655462e+03  6.3190964321868041e+03  8.6937384804166886e+03  6.3571429799678190e+03  6.3756333477415437e+03  8.7679052642314746e+03  6.4012986120396899e+03  6.4188095638395826e+03  8.8281808804313587e+03  6.4458082980449735e+03  6.4621197084304104e+03  8.8866138372137139e+03  8.8991981435162998e+03  6.4961232066356415e+03  8.9382175117550469e+03  8.9618099874573072e+03  6.5408002110430407e+03  6.5593690152001427e+03  6.5744333826077964e+03  9.0449381517998554e+03  6.6065331214410071e+03  6.6241934520327504e+03  6.6390277836092955e+03  9.1314507881089958e+03  6.6638910961256042e+03  6.6826677334989226e+03  6.6982983630415456e+03  6.7132842344279616e+03  6.7264001437087591e+03  6.7373311381914964e+03  6.7537269549769480e+03  6.7689202152166527e+03  6.7850937463513956e+03  6.8025987069528492e+03  6.8201593362434160e+03  6.8372745236305045e+03  6.8539139804026690e+03  6.8699905313097725e+03  6.8860712651820422e+03  6.9034012590973234e+03  6.9212339615242590e+03  6.9388482822799715e+03  6.9557227525480985e+03  6.9717219677315916e+03  6.9879745290824430e+03  7.0033205236683007e+03  7.0147102649140452e+03  7.0284815543899504e+03  7.0440901871393180e+03  9.6880009315277202e+03  9.7055054853975234e+03  9.7251843102608564e+03  9.7457624435888501e+03  9.7446478544201145e+03  9.7438689885600670e+03  9.7431334822786175e+03  9.7423795200057884e+03  9.7416011235073438e+03  9.7408031944187605e+03  9.7399922372917772e+03  9.7391744909354638e+03  9.7383555254337971e+03  9.7375401750894744e+03  9.7367325639967639e+03  9.7359361585098632e+03  9.7351538270229030e+03  9.7343879012128800e+03  9.7336402366326329e+03  9.7329122713689321e+03  9.7322050817056897e+03  9.7315194339470636e+03  9.7308558318236901e+03  9.7302145591804492e+03  9.7295957178855369e+03  9.7289992610873724e+03  9.7284250220786416e+03  9.7278727391091961e+03  9.7273420765337905e+03  9.7268326426947588e+03  9.7263440049332112e+03  9.7258757021021775e+03  9.7254272549265315e+03  9.7249981745222012e+03  9.7245879693527895e+03  9.7241961508689310e+03  9.7238222380437746e+03  9.7234657609895276e+03  9.7231262638136304e+03  9.7228033068502973e+03  9.7224964683829767e+03  9.7222053459557155e+03  9.7219295573567015e+03  9.7216687413441778e+03  9.7214225581746523e+03  9.7211906899838159e+03  9.7209728410636508e+03  9.7207687380727057e+03  9.7205781302117466e+03  9.7204007893932339e+03  9.7202365104297351e+03  9.7200851112645887e+03  9.7199464332665939e+03  9.7198203416097513e+03  9.7197067257590570e+03  9.7196055000842007e+03  9.7195166046240702e+03  9.7194400060271382e+03  9.7193756986956541e+03  9.7193237061651162e+03  9.7192840827551445e+03  9.7192569155336660e+03  9.7192423266429414e+03  9.7192404760445752e+03  9.7192515647501496e+03  9.7192758386159003e+03  9.7193135927927542e+03  9.7193651769380685e+03  9.7194310013111208e+03  9.7195115438903613e+03  9.7196073586638795e+03  9.7197190852514013e+03  9.7198474600081281e+03  9.7199933287236508e+03  9.7201576609373296e+03  9.7203415657006663e+03  9.7205463082493516e+03  9.7207733263708196e+03  9.7210242440444454e+03  9.7213008778318126e+03  9.7216052279766845e+03  9.7219394406459378e+03  9.7223057202154960e+03  9.7227061640061729e+03  9.7231424983659890e+03  9.7236157414605022e+03  9.7241259319986639e+03  9.7246723809920368e+03  9.7252583960854008e+03  9.7259427817989599e+03  9.7272234110488989e+03  9.7065671470932666e+03  9.7060208789352000e+03  9.7054089603436896e+03  9.7048246694584122e+03  9.7042752374786669e+03  9.7037631782287372e+03  9.7032899507078127e+03  9.7028551829627268e+03  9.7024572347571393e+03  9.7020938546498437e+03  9.7017626036335605e+03  9.7014610861621568e+03  9.7011870635255364e+03  9.7009385010111473e+03  9.7007135793659982e+03  9.7005106879791911e+03  9.7003284095332383e+03  9.7001655014568405e+03  9.7000208769973051e+03  9.6998935873157170e+03  9.6997828052244513e+03  9.6996878107630000e+03  9.6996079785886232e+03  9.6995427670527642e+03  9.6994917087913673e+03  9.6994544026479598e+03  9.6994305067562382e+03  9.6994197326241629e+03  9.6994218400799455e+03  9.6994366329585173e+03  9.6994639554239966e+03  9.6995036888390641e+03  9.6995557491051895e+03  9.6996200844092346e+03  9.6996966733213776e+03  9.6997855231974936e+03  9.6998866688457019e+03  9.7000001714223963e+03  9.7001261175273394e+03  9.7002646184711812e+03  9.7004158096911469e+03  9.7005798502929410e+03  9.7007569226979213e+03  9.7009472323754180e+03  9.7011510076399645e+03  9.7013684994925061e+03  9.7015999814835486e+03  9.7018457495737748e+03  9.7021061219651929e+03  9.7023814388717838e+03  9.7026720621941822e+03  9.7029783750568058e+03  9.7033007811587668e+03  9.7036397038811447e+03  9.7039955850828719e+03  9.7043688835049797e+03  9.7047600726883556e+03  9.7051696382931841e+03  9.7055980746881014e+03  9.7060458806544575e+03  9.7065135540247411e+03  9.7070015850453128e+03  9.7075104482209499e+03  9.7080405923642265e+03  9.7085924285362289e+03  9.7091663155290753e+03  9.7097625425069218e+03  9.7103813083949335e+03  9.7110226975899732e+03  9.7116866515692855e+03  9.7123729360037487e+03  9.7130811030508594e+03  9.7138104486225930e+03  9.7145599646071114e+03  9.7153282862801152e+03  9.7161136354678383e+03  9.7169137603848321e+03  9.7177258733651452e+03  9.7185465877128172e+03  9.7193718542407041e+03  9.7201968964366715e+03  9.7210161413100777e+03  9.7218231417068710e+03  9.7226104477559238e+03  9.7233689279888258e+03  9.7240829737567983e+03  9.7247050906092572e+03  9.7250726958074920e+03  9.6864905095255999e+03  9.6860243900039404e+03  9.6854550905107462e+03  9.6848523463792517e+03  9.6842830338819913e+03  9.6837636024375151e+03  9.6832932064558245e+03  9.6828671842876793e+03  9.6824807085823359e+03  9.6821295854774289e+03  9.6818103088836488e+03  9.6815199545923224e+03  9.6812560651037766e+03  9.6810165563257742e+03  9.6807996467991288e+03  9.6806038042660221e+03  9.6804277046852949e+03  9.6802702001237740e+03  9.6801302930944148e+03  9.6800071157045768e+03  9.6798999124927523e+03  9.6798080261625764e+03  9.6797308856376476e+03  9.6796679960041365e+03  9.6796189300074220e+03  9.6795833208397344e+03  9.6795608560084984e+03  9.6795512721147770e+03  9.6795543504024281e+03  9.6795699129629538e+03  9.6795978195007301e+03  9.6796379645792731e+03  9.6796902752820515e+03  9.6797547092319401e+03  9.6798312529221002e+03  9.6799199203182343e+03  9.6800207516978335e+03  9.6801338126968822e+03  9.6802591935383371e+03  9.6803970084195662e+03  9.6805473950384003e+03  9.6807105142390938e+03  9.6808865497606039e+03  9.6810757080702842e+03  9.6812782182659103e+03  9.6814943320286566e+03  9.6817243236085105e+03  9.6819684898217110e+03  9.6822271500377628e+03  9.6825006461300345e+03  9.6827893423602127e+03  9.6830936251616858e+03  9.6834139027807305e+03  9.6837506047268344e+03  9.6841041809742255e+03  9.6844751008457442e+03  9.6848638514967461e+03  9.6852709359011496e+03  9.6856968702228551e+03  9.6861421804336496e+03  9.6866073980128840e+03  9.6870930545337687e+03  9.6875996749064907e+03  9.6881277690083607e+03  9.6886778213866528e+03  9.6892502786706718e+03  9.6898455342771504e+03  9.6904639099395717e+03  9.6911056335410012e+03  9.6917708126875550e+03  9.6924594034346865e+03  9.6931711735850167e+03  9.6939056600348486e+03  9.6946621197885706e+03  9.6954394745310474e+03  9.6962362491115964e+03  9.6970505050113279e+03  9.6978797708111360e+03  9.6987209723910109e+03  9.6995703641066048e+03  9.7004234519192778e+03  9.7012748610374038e+03  9.7021179837854397e+03  9.7029439423642