<?xml version="1.0"?>
<VTKFile type="UnstructuredGrid"  version="0.1"  >
<UnstructuredGrid>
<Piece  NumberOfPoints="21600" NumberOfCells="42542">
<Points>
<DataArray  type="Float64"  NumberOfComponents="3"  format="ascii">0 0 0  0.77 0 0  0.77 0.15 0  0 0.15 0  0.003221757322170014 0 0  0.006443514644340046 0 0  0.009665271966510193 0 0  0.01288702928868034 0 0  0.01610878661085048 0 0  0.01933054393302049 0 0  0.02255230125519027 0 0  0.02577405857735967 0 0  0.02899581589952872 0 0  0.03221757322169801 0 0  0.03543933054386744 0 0  0.03866108786603686 0 0  0.04188284518820627 0 0  0.0451046025103757 0 0  0.04832635983254521 0 0  0.05154811715471607 0 0  0.05476987447688695 0 0  0.05799163179905782 0 0  0.06121338912122846 0 0  0.06443514644339859 0 0  0.06765690376556875 0 0  0.0708786610877389 0 0  0.07410041840990904 0 0  0.0773221757320792 0 0  0.08054393305425039 0 0  0.08376569037642198 0 0  0.0869874476985936 0 0  0.09020920502076518 0 0  0.0934309623429339 0 0  0.0966527196651024 0 0  0.09987447698726967 0 0  0.1030962343094369 0 0  0.1063179916316041 0 0  0.1095397489537714 0 0  0.1127615062759386 0 0  0.1159832635981051 0 0  0.1192050209202709 0 0  0.1224267782424358 0 0  0.1256485355646001 0 0  0.1288702928867644 0 0  0.1320920502089288 0 0  0.1353138075310958 0 0  0.1385355648532632 0 0  0.1417573221754333 0 0  0.1449790794976035 0 0  0.1482008368197736 0 0  0.1514225941419428 0 0  0.1546443514641101 0 0  0.157866108786276 0 0  0.1610878661084403 0 0  0.1643096234306047 0 0  0.167531380752769 0 0  0.1707531380749333 0 0  0.1739748953970977 0 0  0.177196652719262 0 0  0.1804184100414264 0 0  0.1836401673635935 0 0  0.1868619246857611 0 0  0.1900836820079313 0 0  0.1933054393301014 0 0  0.1965271966522716 0 0  0.1997489539744406 0 0  0.2029707112966078 0 0  0.2061924686187736 0 0  0.209414225940938 0 0  0.2126359832631022 0 0  0.2158577405852666 0 0  0.219079497907431 0 0  0.2223012552295953 0 0  0.2255230125517597 0 0  0.2287447698739242 0 0  0.2319665271960914 0 0  0.2351882845182592 0 0  0.2384100418404293 0 0  0.2416317991625994 0 0  0.2448535564847696 0 0  0.2480753138069371 0 0  0.2512970711291014 0 0  0.2545188284512658 0 0  0.2577405857734302 0 0  0.2609623430955986 0 0  0.2641841004177688 0 0  0.2674058577399389 0 0  0.270627615062109 0 0  0.2738493723842792 0 0  0.2770711297064487 0 0  0.280292887028613 0 0  0.2835146443507774 0 0  0.2867364016729417 0 0  0.2899581589951061 0 0  0.2931799163172705 0 0  0.2964016736394348 0 0  0.2996234309615992 0 0  0.3028451882837672 0 0  0.3060669456059373 0 0  0.3092887029281075 0 0  0.3125104602502776 0 0  0.3157322175724478 0 0  0.3189539748946177 0 0  0.322175732216782 0 0  0.3253974895389464 0 0  0.3286192468611107 0 0  0.3318410041832751 0 0  0.3350627615054395 0 0  0.3382845188276038 0 0  0.3415062761497681 0 0  0.3447280334719325 0 0  0.3479497907940968 0 0  0.3511715481162612 0 0  0.3543933054384255 0 0  0.3576150627605947 0 0  0.3608368200827649 0 0  0.364058577404935 0 0  0.3672803347271051 0 0  0.3705020920492753 0 0  0.373723849371444 0 0  0.3769456066936084 0 0  0.3801673640157748 0 0  0.383389121337945 0 0  0.3866108786601209 0 0  0.3898326359823028 0 0  0.3930543933044846 0 0  0.3962761506266662 0 0  0.399497907948848 0 0  0.4027196652710298 0 0  0.4059414225932116 0 0  0.4091631799153934 0 0  0.4123849372375751 0 0  0.4156066945597569 0 0  0.4188284518819387 0 0  0.4220502092041222 0 0  0.4252719665263097 0 0  0.4284937238484974 0 0  0.4317154811706849 0 0  0.4349372384928725 0 0  0.4381589958150601 0 0  0.4413807531372476 0 0  0.4446025104594352 0 0  0.4478242677816181 0 0  0.4510460251037998 0 0  0.4542677824259815 0 0  0.4574895397481634 0 0  0.4607112970703451 0 0  0.4639330543925269 0 0  0.4671548117147087 0 0  0.4703765690368904 0 0  0.4735983263590722 0 0  0.4768200836812568 0 0  0.4800418410034444 0 0  0.483263598325632 0 0  0.4864853556478196 0 0  0.4897071129700028 0 0  0.4929288702921845 0 0  0.4961506276143663 0 0  0.4993723849365479 0 0  0.5025941422587239 0 0  0.5058158995809008 0 0  0.5090376569030826 0 0  0.5122594142252677 0 0  0.515481171547461 0 0  0.5187029288696494 0 0  0.5219246861918312 0 0  0.525146443514013 0 0  0.5283682008361947 0 0  0.5315899581583845 0 0  0.5348117154805778 0 0  0.5380334728027617 0 0  0.5412552301249435 0 0  0.5444769874471141 0 0  0.5476987447692853 0 0  0.550920502091467 0 0  0.5541422594136513 0 0  0.5573640167358447 0 0  0.560585774058034 0 0  0.5638075313802158 0 0  0.5670292887023975 0 0  0.5702510460245793 0 0  0.5734728033467682 0 0  0.5766945606689615 0 0  0.579916317991155 0 0  0.5831380753133483 0 0  0.5863598326355314 0 0  0.5895815899577131 0 0  0.5928033472798949 0 0  0.5960251046020785 0 0  0.5992468619242718 0 0  0.6024686192464619 0 0  0.6056903765686437 0 0  0.6089121338908206 0 0  0.6121338912129908 0 0  0.6153556485351673 0 0  0.618577405857349 0 0  0.6217991631795386 0 0  0.625020920501732 0 0  0.6282426778239159 0 0  0.6314644351460976 0 0  0.6346861924682795 0 0  0.6379079497904622 0 0  0.6411297071126555 0 0  0.6443514644348465 0 0  0.6475732217570283 0 0  0.650794979079206 0 0  0.6540167364013761 0 0  0.6572384937235518 0 0  0.6604602510457335 0 0  0.6636820083679225 0 0  0.6669037656901158 0 0  0.6701255230123004 0 0  0.6733472803344823 0 0  0.6765690376566641 0 0  0.6797907949788459 0 0  0.6830125523010393 0 0  0.686234309623231 0 0  0.6894560669454127 0 0  0.6926778242675914 0 0  0.6958995815897615 0 0  0.6991213389119363 0 0  0.7023430962341181 0 0  0.7055648535563062 0 0  0.7087866108784994 0 0  0.712008368200685 0 0  0.7152301255228668 0 0  0.7184518828450486 0 0  0.7216736401672305 0 0  0.724895397489423 0 0  0.7281171548116155 0 0  0.7313389121337973 0 0  0.7345606694559768 0 0  0.7377824267781468 0 0  0.7410041841003209 0 0  0.7442259414225026 0 0  0.7474476987446899 0 0  0.7506694560668832 0 0  0.7538912133890696 0 0  0.7571129707112513 0 0  0.760334728033433 0 0  0.7635564853556149 0 0  0.7667782426778067 0 0  0.77 0.001685393258423789 0  0.77 0.003370786516847669 0  0.77 0.005056179775271247 0  0.77 0.006741573033694517 0  0.77 0.008426966292117821 0  0.77 0.01011235955054176 0  0.77 0.01179775280896623 0  0.77 0.0134831460673904 0  0.77 0.01516853932581489 0  0.77 0.01685393258423891 0  0.77 0.01853932584266291 0  0.77 0.02022471910108589 0  0.77 0.02191011235950794 0  0.77 0.02359550561792999 0  0.77 0.02528089887635205 0  0.77 0.02696629213477411 0  0.77 0.02865168539319714 0  0.77 0.03033707865161956 0  0.77 0.03202247191004162 0  0.77 0.03370786516846367 0  0.77 0.03539325842688572 0  0.77 0.03707865168530778 0  0.77 0.03876404494372984 0  0.77 0.0404494382021519 0  0.77 0.04213483146057394 0  0.77 0.04382022471899601 0  0.77 0.04550561797741807 0  0.77 0.04719101123584013 0  0.77 0.04887640449426219 0  0.77 0.05056179775268425 0  0.77 0.0522471910111063 0  0.77 0.05393258426952837 0  0.77 0.05561797752795105 0  0.77 0.05730337078637505 0  0.77 0.05898876404479723 0  0.77 0.0606741573032193 0  0.77 0.06235955056164135 0  0.77 0.06404494382006341 0  0.77 0.06573033707848548 0  0.77 0.06741573033690752 0  0.77 0.06910112359532959 0  0.77 0.07078651685375165 0  0.77 0.0724719101121737 0  0.77 0.07415730337059653 0  0.77 0.07584269662902443 0  0.77 0.07752808988745429 0  0.77 0.07921348314588413 0  0.77 0.08089887640431678 0  0.77 0.08258426966274923 0  0.77 0.08426966292117907 0  0.77 0.08595505617960987 0  0.77 0.08764044943804362 0  0.77 0.08932584269647403 0  0.77 0.09101123595490389 0  0.77 0.09269662921333673 0  0.77 0.09438202247176901 0  0.77 0.09606741573019884 0  0.77 0.09775280898862983 0  0.77 0.09943820224706355 0  0.77 0.1011235955054938 0  0.77 0.1028089887639236 0  0.77 0.1044943820223567 0  0.77 0.1061797752807888 0  0.77 0.1078651685392186 0  0.77 0.1095505617976498 0  0.77 0.1112359550560835 0  0.77 0.1129213483145136 0  0.77 0.1146067415729456 0  0.77 0.1162921348313787 0  0.77 0.1179775280898085 0  0.77 0.1196629213482387 0  0.77 0.1213483146066724 0  0.77 0.1230337078651035 0  0.77 0.1247191011235322 0  0.77 0.1264044943819605 0  0.77 0.1280898876403903 0  0.77 0.1297752808988242 0  0.77 0.1314606741572554 0  0.77 0.1331460674156853 0  0.77 0.1348314606741154 0  0.77 0.1365168539325504 0  0.77 0.1382022471909802 0  0.77 0.13988764044941 0  0.77 0.1415730337078443 0  0.77 0.1432584269662752 0  0.77 0.144943820224705 0  0.77 0.1466292134831355 0  0.77 0.1483146067415701 0  0.7667782426778414 0.15 0  0.7635564853556813 0.15 0  0.7603347280335111 0.15 0  0.757112970711341 0.15 0  0.7538912133891708 0.15 0  0.7506694560670005 0.15 0  0.7474476987448303 0.15 0  0.7442259414226602 0.15 0  0.74100418410049 0.15 0  0.7377824267783197 0.15 0  0.7345606694561496 0.15 0  0.7313389121339794 0.15 0  0.7281171548118092 0.15 0  0.724895397489639 0.15 0  0.7216736401674688 0.15 0  0.7184518828452986 0.15 0  0.7152301255231284 0.15 0  0.7120083682009583 0.15 0  0.708786610878788 0.15 0  0.7055648535566178 0.15 0  0.7023430962344477 0.15 0  0.6991213389122775 0.15 0  0.6958995815901072 0.15 0  0.692677824267937 0.15 0  0.6894560669457669 0.15 0  0.6862343096235967 0.15 0  0.6830125523014264 0.15 0  0.6797907949792563 0.15 0  0.6765690376570861 0.15 0  0.6733472803349159 0.15 0  0.6701255230127456 0.15 0  0.6669037656905755 0.15 0  0.6636820083684053 0.15 0  0.6604602510462351 0.15 0  0.657238493724065 0.15 0  0.6540167364018947 0.15 0  0.6507949790797245 0.15 0  0.6475732217575543 0.15 0  0.644351464435384 0.15 0  0.6411297071132231 0.15 0  0.6379079497910645 0.15 0  0.634686192468906 0.15 0  0.6314644351467468 0.15 0  0.6282426778245765 0.15 0  0.6250209205024085 0.15 0  0.62179916318025 0.15 0  0.6185774058580914 0.15 0  0.6153556485359328 0.15 0  0.6121338912137689 0.15 0  0.6089121338915987 0.15 0  0.6056903765694354 0.15 0  0.6024686192472768 0.15 0  0.5992468619251182 0.15 0  0.5960251046029597 0.15 0  0.5928033472807912 0.15 0  0.589581589958621 0.15 0  0.5863598326364508 0.15 0  0.5831380753142792 0.15 0  0.5799163179920974 0.15 0  0.57669456
[...]
<PointData  Scalars="pressure"> 
<DataArray  type="Float64"  Name="pressure"  format="ascii">3.4118577261990707e+04  2.1666022647722638e+00  -1.6077995538577767e+00  3.4114931916900881e+04  3.4092660635108332e+04  3.4072803109638546e+04  3.4055104415722904e+04  2.4790322959524827e+04  2.4770278829542425e+04  2.4721855639806348e+04  2.4616312096238536e+04  2.4511010510814183e+04  2.4405306258839886e+04  2.4299420431624207e+04  2.4193444838627536e+04  2.4087420448091751e+04  2.3981367632955244e+04  2.3875297361042802e+04  2.3769215931060840e+04  2.3663127142677622e+04  2.3557033374714068e+04  2.3450936159486671e+04  2.3344836506073578e+04  2.3238735090491009e+04  2.3132632371699361e+04  2.3026528664519068e+04  2.2920424186621454e+04  2.2814319089450324e+04  2.2708213478926144e+04  2.2602107429509073e+04  2.2496000993862286e+04  2.2389894209552516e+04  2.2283787103727405e+04  2.2177679696393763e+04  2.2071572002719884e+04  2.1965464034650275e+04  2.1859355802033624e+04  2.1753247313404518e+04  2.1647138576518013e+04  2.1541029598708195e+04  2.1434920387121092e+04  2.1328810948858998e+04  2.1222701291062229e+04  2.1116591420947818e+04  2.1010481345818949e+04  2.0904371073054892e+04  2.0798260610089434e+04  2.0692149964381722e+04  2.0586039143384696e+04  2.0479928154512068e+04  2.0373817005106954e+04  2.0267705702412222e+04  2.0161594253543866e+04  2.0055482665467534e+04  1.9949370944978276e+04  1.9843259098683804e+04  1.9737147132990656e+04  1.9631035054093507e+04  1.9524922867967169e+04  1.9418810580361071e+04  1.9312698196795871e+04  1.9206585722562410e+04  1.9100473162721788e+04  1.8994360522107527e+04  1.8888247805328403e+04  1.8782135016772772e+04  1.8676022160613556e+04  1.8569909240813897e+04  1.8463796261133542e+04  1.8357683225135468e+04  1.8251570136192968e+04  1.8145456997496887e+04  1.8039343812062947e+04  1.7933230582739121e+04  1.7827117312213093e+04  1.7721004003019450e+04  1.7614890657547174e+04  1.7508777278046451e+04  1.7402663866635849e+04  1.7296550425308797e+04  1.7190436955940309e+04  1.7084323460293108e+04  1.6978209940023560e+04  1.6872096396687837e+04  1.6765982831747147e+04  1.6659869246573482e+04  1.6553755642454435e+04  1.6447642020598032e+04  1.6341528382137407e+04  1.6235414728135222e+04  1.6129301059587910e+04  1.6023187377429218e+04  1.5917073682534392e+04  1.5810959975723574e+04  1.5704846257765168e+04  1.5598732529378936e+04  1.5492618791239047e+04  1.5386505043976729e+04  1.5280391288183246e+04  1.5174277524412191e+04  1.5068163753181820e+04  1.4962049974977288e+04  1.4855936190252738e+04  1.4749822399433457e+04  1.4643708602917137e+04  1.4537594801076209e+04  1.4431480994259235e+04  1.4325367182792443e+04  1.4219253366981193e+04  1.4113139547111283e+04  1.4007025723450226e+04  1.3900911896248435e+04  1.3794798065740333e+04  1.3688684232145404e+04  1.3582570395669019e+04  1.3476456556503756e+04  1.3370342714829938e+04  1.3264228870816452e+04  1.3158115024621591e+04  1.3052001176393760e+04  1.2945887326272201e+04  1.2839773474387210e+04  1.2733659620861230e+04  1.2627545765809216e+04  1.2521431909339224e+04  1.2415318051553073e+04  1.2309204192546367e+04  1.2203090332409151e+04  1.2096976471226310e+04  1.1990862609077954e+04  1.1884748746039788e+04  1.1778634882183458e+04  1.1672521017576857e+04  1.1566407152284466e+04  1.1460293286367578e+04  1.1354179419884595e+04  1.1248065552891547e+04  1.1141951685441996e+04  1.1035837817587430e+04  1.0929723949377463e+04  1.0823610080860100e+04  1.0717496212081918e+04  1.0611382343088464e+04  1.0505268473924045e+04  1.0399154604632233e+04  1.0293040735256052e+04  1.0186926865838168e+04  1.0080812996421015e+04  9.9746991270470608e+03  9.8685852577589430e+03  9.7624713885996844e+03  9.6563575196128204e+03  9.5502436508427345e+03  9.4441297823349068e+03  9.3380159141359036e+03  9.2319020462938588e+03  9.1257881788582672e+03  9.0196743118805134e+03  8.9135604454141267e+03  8.8074465795151209e+03  8.7013327142417038e+03  8.5952188496549934e+03  8.4891049858194074e+03  8.3829911228025558e+03  8.2768772606763359e+03  8.1707633995163242e+03  8.0646495394021831e+03  7.9585356804185121e+03  7.8524218226547619e+03  7.7463079662062992e+03  7.6401941111746983e+03  7.5340802576672640e+03  7.4279664057986765e+03  7.3218525556903260e+03  7.2157387074715516e+03  7.1096248612807758e+03  7.0035110172650457e+03  6.8973971755817838e+03  6.7912833363985528e+03  6.6851694998937210e+03  6.5790556662578656e+03  6.4729418356941524e+03  6.3668280084197459e+03  6.2607141846665372e+03  6.1546003646819590e+03  6.0484865487305478e+03  5.9423727370941660e+03  5.8362589300741083e+03  5.7301451279922203e+03  5.6240313311921391e+03  5.5179175400417325e+03  5.4118037549338587e+03  5.3056899762881394e+03  5.1995762045533893e+03  5.0934624402091049e+03  4.9873486837687306e+03  4.8812349357816292e+03  4.7751211968362559e+03  4.6690074675632914e+03  4.5628937486381465e+03  4.4567800407856048e+03  4.3506663447840128e+03  4.2445526614697865e+03  4.1384389917439485e+03  4.0323253365774945e+03  3.9262116970184447e+03  3.8200980742009056e+03  3.7139844693540658e+03  3.6078708838146686e+03  3.5017573190402250e+03  3.3956437766254476e+03  3.2895302583219586e+03  3.1834167660609655e+03  3.0773033019826721e+03  2.9711898684714638e+03  2.8650764681988671e+03  2.7589631041786674e+03  2.6528497798334397e+03  2.5467364990793585e+03  2.4406232664352742e+03  2.3345100871604959e+03  2.2283969674352743e+03  2.1222839145953094e+03  2.0161709374419954e+03  1.9100580466581034e+03  1.8039452553704887e+03  1.6978325799272875e+03  1.5917200409872055e+03  1.4856076650767600e+03  1.3794954868699274e+03  1.2733835526080995e+03  1.1672719253911823e+03  1.0611606936590974e+03  9.5504998536534902e+02  8.4893999294142202e+02  7.4283102015175996e+02  6.3672357494661833e+02  5.3061857508840365e+02  4.2451809744753206e+02  3.1842785719557384e+02  2.1234736248959697e+02  1.0626286441590554e+02  4.5046823760959404e-01  2.3100336628554034e-02  4.8790995212531869e-03  2.9867286796543655e-03  1.7092899238221129e-03  1.0061425033690557e-03  6.2985570406666046e-04  4.1632742531704284e-04  2.8783791436007885e-04  2.0657475923399114e-04  1.5295650708890951e-04  1.1627666677651125e-04  9.0396562752429149e-05  7.1645078335316650e-05  5.7743402319339782e-05  4.7229653832042921e-05  3.9138339974106230e-05  3.2815153015588220e-05  2.7806389434885623e-05  2.3790939914338791e-05  2.0537329520601679e-05  1.7875918441745617e-05  1.5680515328666826e-05  1.3855972617372152e-05  1.2329664396676027e-05  1.1045534295565666e-05  9.9598748418816044e-06  9.0382927133922759e-06  8.2534986252852521e-06  7.5836787595083117e-06  7.0112816065157335e-06  6.5221054806528525e-06  6.1046056330510172e-06  5.7493642345488460e-06  5.4486816684723556e-06  5.1962597923110809e-06  4.9869550088812769e-06  4.8165854079476671e-06  4.6817798451478541e-06  4.5798602314077636e-06  4.5087502838800504e-06  4.4669058605026633e-06  4.4532630318912638e-06  4.4672015163566222e-06  4.5085212563441412e-06  4.5774310788754474e-06  4.6745487419291820e-06  4.8009121758542360e-06  4.9580022867018293e-06  5.1477780522017824e-06  5.3727255254652061e-06  5.6359223057868212e-06  5.9411206901659584e-06  6.2928530833193675e-06  6.6965640844201251e-06  7.1587761099366723e-06  7.6872964243945274e-06  8.2914763619844728e-06  8.9825368618668431e-06  9.7739785771671692e-06  1.0682101257687557e-05  1.1726664280211493e-05  1.2931732033708690e-05  1.4326761690284526e-05  1.5948011961950802e-05  1.7840379174021576e-05  2.0059805210613879e-05  2.2676456308560020e-05  2.5778943726692722e-05  2.9479959183328823e-05  3.3923831269591166e-05  3.9296683350137521e-05  4.5840081834757146e-05  5.3869272698463978e-05  6.3797200820012867e-05  7.6165186570076703e-05  9.1679628939846656e-05  1.1124960580167681e-04  1.3600896496989001e-04  1.6728438352936820e-04  2.0646389813669475e-04  2.5500354864450218e-04  3.1832115945996871e-04  4.7556220321184808e-04  1.9544221939084305e-03  1.8162106875957290e-02  1.2963224949670521e-01  7.3269164179403296e-02  1.0523580917406896e+02  2.1203697688983937e+02  3.1820840846738372e+02  4.2435122171834695e+02  5.3048623718021145e+02  6.3661428404762466e+02  7.4273827018426391e+02  8.4885975257794462e+02  9.5497956475189471e+02  1.0610982061626164e+03  1.1672159949204447e+03  1.2733331429249413e+03  1.3794497967328689e+03  1.4855660609363156e+03  1.5916820121813719e+03  1.6977977079248858e+03  1.8039131920969044e+03  1.9100284988727369e+03  2.0161436552516545e+03  2.1222586828601775e+03  2.2283735992387024e+03  2.3344884187759894e+03  2.4406031533987557e+03  2.5467178130879638e+03  2.6528324062703496e+03  2.7589469401189008e+03  2.8650614207858880e+03  2.9711758535854660e+03  3.0772902431380144e+03  3.1834045934852111e+03  3.2895189081825411e+03  3.3956331903741643e+03  3.5017474428540149e+03  3.6078616681158901e+03  3.7139758683948930e+03  3.8200900457018693e+03  3.9262042018521843e+03  4.0323183384899571e+03  4.1384324571085444e+03  4.2445465590676768e+03  4.3506606456091749e+03  4.4567747178690834e+03  4.5628887768888499e+03  4.6690028236252647e+03  4.7751168589577883e+03  4.8812308836968223e+03  4.9873448985905425e+03  5.0934589043297483e+03  5.1995729015534089e+03  5.3056868908528531e+03  5.4118008727754977e+03  5.5179148478294092e+03  5.6240288164861649e+03  5.7301427791835467e+03  5.8362567363286735e+03  5.9423706882995175e+03  6.0484846354478905e+03  6.1545985781013360e+03  6.2607125165651323e+03  6.3668264511230918e+03  6.4729403820400248e+03  6.5790543095627299e+03  6.6851682339214785e+03  6.7912821553314589e+03  6.8973960739933800e+03  7.0035099900944360e+03  7.1096239038098929e+03  7.2157378153036125e+03  7.3218517247287409e+03  7.4279656322289084e+03  7.5340795379379460e+03  7.6401934419811623e+03  7.7463073444767215e+03  7.8524212455351617e+03  7.9585351452603518e+03  8.0646490437499306e+03  8.1707629410951813e+03  8.2768768373824023e+03  8.3829907326934099e+03  8.4891046271050036e+03  8.5952185206899212e+03  8.7013324135167859e+03  8.8074463056504192e+03  8.9135601971531123e+03  9.0196740880840171e+03  9.1257879784995439e+03  9.2319018684536004e+03  9.3380157579982424e+03  9.4441296471834667e+03  9.5502435360576110e+03  9.6563574246675635e+03  9.7624713130589862e+03  9.8685852012765172e+03  9.9746990893641159e+03  1.0080812977364974e+04  1.0186926865321833e+04  1.0293040753277330e+04  1.0399154641274061e+04  1.0505268529354820e+04  1.0611382417562609e+04  1.0717496305941364e+04  1.0823610194535635e+04  1.0929724083390964e+04  1.1035837972554071e+04  1.1141951862073111e+04  1.1248065751997872e+04  1.1354179642379995e+04  1.1460293533273250e+04  1.1566407424733730e+04  1.1672521316820170e+04  1.1778635209594328e+04  1.1884749103120843e+04  1.1990862997467922e+04  1.2096976892707580e+04  1.2203090788915953e+04  1.2309204686173596e+04  1.2415318584565852e+04  1.2521432484183591e+04  1.2627546385123229e+04  1.2733660287487244e+04  1.2839774191384669e+04  1.2945888096931400e+04  1.3052002004251179e+04  1.3158115913475929e+04  1.3264229824746395e+04  1.3370343738212796e+04  1.3476457654035534e+04  1.3582571572385950e+04  1.3688685493447065e+04  1.3794799417414561e+04  1.3900913344497621e+04  1.4007027274919992e+04  1.4113141208920730e+04  1.4219255146755708e+04  1.4325369088698710e+04  1.4431483035042696e+04  1.4537596986101216e+04  1.4643710942209886e+04  1.4749824903727887e+04  1.4855938871040071e+04  1.4962052844558448e+04  1.5068166824724283e+04  1.5174280812010213e+04  1.5280394806922553e+04  1.5386508810003792e+04  1.5492622821835241e+04  1.5598736843039873e+04  1.5704850874285556e+04  1.5810964916288112e+04  1.5917078969814984e+04  1.6023193035689173e+04  1.6129307114793277e+04  1.6235421208074327e+04  1.6341535316548297e+04  1.6447649441305446e+04  1.6553763583515836e+04  1.6659877744435988e+04  1.6765991925415150e+04  1.6872106127902360e+04  1.6978220353454642e+04  1.7084334603744748e+04  1.7190448880571301e+04  1.7296563185868781e+04  1.7402677521717887e+04  1.7508791890358007e+04  1.7614906294199482e+04  1.7721020735837887e+04  1.7827135218070562e+04  1.7933249743912351e+04  1.8039364316615418e+04  1.8145478939688939e+04  1.8251593616921044e+04  1.8357708352404581e+04  1.8463823150563225e+04  1.8569938016182543e+04  1.8676052954443287e+04  1.8782167970957653e+04  1.8888283071810627e+04  1.8994398263604922e+04  1.9100513553511810e+04  1.9206628949327867e+04  1.9312744459537673e+04  1.9418860093385447e+04  1.9524975860953746e+04  1.9631091773253003e+04  1.9737207842322616e+04  1.9843324081343937e+04  1.9949440504770308e+04  2.0055557128473731e+04  2.0161673969911284e+04  2.0267791048316401e+04  2.0373908384915969e+04  2.0480026003181389e+04  2.0586143929116362e+04  2.0692262191589733e+04  2.0798380822721909e+04  2.0904499858332114e+04  2.1010619338461056e+04  2.1116739307982869e+04  2.1222859817322726e+04  2.1328980923305877e+04  2.1435102690162777e+04  2.1541225190725079e+04  2.1647348507858733e+04  2.1753472736186512e+04  2.1859597984175096e+04  2.1965724376677637e+04  2.2071852058054214e+04  2.2177981196033150e+04  2.2284111986527034e+04  2.2390244659700646e+04  2.2496379487697188e+04  2.2602516794590363e+04  2.2708656969377709e+04  2.2814800483191113e+04  2.2920947912470161e+04  2.3027099970747055e+04  2.3133257553149000e+04  2.3239421800180782e+04  2.3345594191582608e+04  2.3451776688652135e+04  2.3557971957592403e+04  2.3664183734134909e+04  2.3770417446668122e+04  2.3876681339658538e+04  2.3982988636877435e+04  2.4089362056119229e+04  2.4195843703103208e+04  2.4302518147969015e+04  2.4409624137137820e+04  2.4518243227149109e+04  2.4629622355844542e+04  2.4716353874708486e+04  2.4760220244800264e+04  2.4793297479459492e+04  3.4053559065130728e+04  3.4071693264226233e+04  3.4091866101959560e+04  3.4112595378772436e+04  3.4111600267892536e+04  3.4111030073212271e+04  3.4110588370545403e+04  3.4110207072555044e+04  3.4109872445531852e+04  3.4109580339483371e+04  3.4109327023948528e+04  3.4109107918413916e+04  3.4108917974984921e+04  3.4108752248094024e+04  3.4108606288773008e+04  3.4108476326356562e+04  3.4108359295747519e+04  3.4108252777722533e+04  3.4108154902291419e+04  3.4108064245219823e+04  3.4107979732968553e+04  3.4107900562081006e+04  3.4107826134033057e+04  3.4107756004191673e+04  3.4107689842657928e+04  3.4107627404661005e+04  3.4107568508402423e+04  3.4107513018596692e+04  3.4107460834308185e+04  3.4107411879997911e+04  3.4107366098951810e+04  3.4107323448468152e+04  3.4107283896339621e+04  3.4107247418286534e+04  3.4107213996087390e+04  3.4107183616220609e+04  3.4107156268880608e+04  3.4107131947268543e+04  3.4107110647084555e+04  3.4107092366167904e+04  3.4107077104246950e+04  3.4107064862770130e+04  3.4107055644797736e+04  3.4107049454940461e+04  3.4107046299333488e+04  3.4107046185639578e+04  3.4107049123076220e+04  3.4107055122463877e+04  3.4107064196294035e+04  3.4107076358817088e+04  3.4107091626150701e+04  3.4107110016411418e+04  3.4107131549872815e+04  3.4107156249155065e+04  3.4107184139452780e+04  3.4107215248810135e+04  3.4107249608454862e+04  3.4107287253206967e+04  3.4107328221982090e+04  3.4107372558416893e+04  3.4107420311651658e+04  3.4107471537316997e+04  3.4107526298787488e+04  3.4107584668784482e+04  3.4107646731438916e+04  3.4107712584961613e+04  3.4107782345117113e+04  3.4107856149764215e+04  3.4107934164813130e+04  3.4108016592064727e+04  3.4108103679550055e+04  3.4108195735182635e+04  3.4108293144784446e+04  3.4108396395846714e+04  3.4108506108734087e+04  3.4108623077392353e+04  3.4108748321889769e+04  3.4108883155100993e+04  3.4109029265143872e+04  3.4109188813086199e+04  3.4109364540787203e+04  3.4109559874952043e+04  3.4109778999388182e+04  3.4110026850387774e+04  3.4110308982912931e+04  3.4110631286019183e+04  3.4110999619424249e+04  3.4111419774061607e+04  3.4111901538851234e+04  3.4112509065948783e+04  3.4113743334134706e+04  3.4093042815671921e+04  3.4092545090295578e+04  3.4092015778359353e+04  3.4091543798762497e+04  3.4091129483794051e+04  3.4090767840391760e+04  3.4090453152555710e+04  3.4090178868147697e+04  3.4089938386297959e+04  3.4089725719058733e+04  3.4089535780914259e+04  3.4089364422901090e+04  3.4089208342517595e+04  3.4089064950010128e+04  3.4088932231798695e+04  3.4088808628620653e+04  3.4088692933940714e+04  3.4088584212498034e+04  3.4088481736546353e+04  3.4088384936693707e+04  3.4088293364360346e+04  3.4088206663275749e+04  3.4088124547908461e+04  3.4088046787164254e+04  3.4087973192064805e+04  3.4087903606423111e+04  3.4087837899771992e+04  3.4087775961984757e+04  3.4087717699168359e+04  3.4087663030514028e+04  3.4087611885870450e+04  3.4087564203862879e+04  3.4087519930426875e+04  3.4087479017657352e+04  3.4087441422898824e+04  3.4087407108021056e+04  3.4087376038837669e+04  3.4087348184635994e+04  3.4087323517793797e+04  3.4087302013464549e+04  3.4087283649316894e+04  3.4087268405318042e+04  3.4087256263552561e+04  3.4087247208070432e+04  3.4087241224759920e+04  3.4087238301241880e+04  3.4087238426783362e+04  3.4087241592229460e+04  3.4087247789953290e+04  3.4087257013825336e+04  3.4087269259204353e+04  3.4087284522954273e+04  3.4087302803493003e+04  3.4087324100882244e+04  3.4087348416971072e+04  3.4087375755611094e+04  3.4087406122967630e+04  3.4087439527961098e+04  3.4087475982885131e+04  3.4087515504265502e+04  3.4087558114047824e+04  3.4087603841233853e+04  3.4087652724131025e+04  3.4087704813439144e+04  3.4087760176479620e+04  3.4087818902982086e+04  3.4087881112988907e+04  3.4087946967632452e+04  3.4088016683791582e+04  3.4088090553955779e+04  3.4088168973019950e+04  3.4088252474189947e+04  3.4088341776649613e+04  3.4088437848001136e+04  3.4088541984474803e+04  3.4088655910975904e+04  3.4088781900195580e+04  3.4088922903503313e+04  3.4089082673329074e+04  3.4089265833326404e+04  3.4089477815357575e+04  3.4089724534774628e+04  3.4090011643468119e+04  3.4090343230719831e+04  3.4090719742787725e+04  3.4091132631055007e+04  3.4091540498608054e+04  3.4091784416476010e+04  3.4072785847424166e+04  3.4072377037102815e+04  3.4071916437296895e+04  3.4071460621636877e+04  3.4071063751777707e+04  3.4070730201728016e+04  3.4070449005212060e+04  3.4070207995974066e+04  3.4069997365053816e+04  3.4069809907002404e+04  3.4069640480681621e+04  3.4069485429169137e+04  3.4069342128655968e+04  3.4069208670640728e+04  3.4069083645502011e+04  3.4068965996040170e+04  3.4068854917675977e+04  3.4068749789547532e+04  3.4068650126211913e+04  3.4068555543277456e+04  3.4068465732609096e+04  3.4068380444221322e+04  3.4068299472914070e+04  3.4068222648317445e+04  3.4068149827414614e+04  3.4068080888883182e+04  3.4068015728782550e+04  3.4067954257244048e+04  3.4067896395913420e+04  3.4067842075960711e+04  3.4067791236520694e+04  3.4067743823461758e+04  3.4067699788406549e+04  3.4067659087947141e+04  3.4067621683010846e+04  3.4067587538343796e+04  3.4067556622087104e+04  3.4067528905426159e+04  3.4067504362298343e+04  3.4067482969147670e+04  3.4067464704717160e+04  3.4067449549872581e+04  3.4067437487451542e+04  3.4067428502134295e+04  3.4067422580332546e+04  3.4067419710094277e+04  3.4067419881022426e+04  3.4067423084206646e+04  3.4067429312167420e+04  3.4067438558812602e+04  3.4067450819407415e+04  3.4067466090559305e+04  3.4067484370220758e+04  3.4067505657713882e+04  3.4067529953783109e+04  3.4067557260684414e+04  3.4067587582323045e+04  3.4067620924456300e+04  3.4067657294984427e+04  3.4067696704361231e+04  3.4067739166168183e+04  3.4067784697912561e+04  3.4067833322133374e+04  3.4067885067931806e+04  3.4067939973088658e+04  3.4067998086997985e+04  3.4068059474740396e+04  3.4068124222759179e+04  3.4068192446807952e+04  3.4068264303148164e+04  3.4068340004446836e+04  3.4068419842552699e+04  3.4068504221458039e+04  3.4068593705502382e+04  3.4068689090536856e+04  3.4068791509663439e+04  3.4068902590377118e+04  3.4069024685539109e+04  3.4069161202543146e+04  3.4069317041095659e+04  3.4069499089032564e+04  3.4069716547771437e+04  3.4069980434118661e+04  3.4070300783328130e+04  3.4070679101179179e+04  3.40710947