<?xml version="1.0"?>
<VTKFile type="UnstructuredGrid"  version="0.1"  >
<UnstructuredGrid>
<Piece  NumberOfPoints="21600" NumberOfCells="42542">
<Points>
<DataArray  type="Float64"  NumberOfComponents="3"  format="ascii">0 0 0  0.77 0 0  0.77 0.15 0  0 0.15 0  0.003221757322170014 0 0  0.006443514644340046 0 0  0.009665271966510193 0 0  0.01288702928868034 0 0  0.01610878661085048 0 0  0.01933054393302049 0 0  0.02255230125519027 0 0  0.02577405857735967 0 0  0.02899581589952872 0 0  0.03221757322169801 0 0  0.03543933054386744 0 0  0.03866108786603686 0 0  0.04188284518820627 0 0  0.0451046025103757 0 0  0.04832635983254521 0 0  0.05154811715471607 0 0  0.05476987447688695 0 0  0.05799163179905782 0 0  0.06121338912122846 0 0  0.06443514644339859 0 0  0.06765690376556875 0 0  0.0708786610877389 0 0  0.07410041840990904 0 0  0.0773221757320792 0 0  0.08054393305425039 0 0  0.08376569037642198 0 0  0.0869874476985936 0 0  0.09020920502076518 0 0  0.0934309623429339 0 0  0.0966527196651024 0 0  0.09987447698726967 0 0  0.1030962343094369 0 0  0.1063179916316041 0 0  0.1095397489537714 0 0  0.1127615062759386 0 0  0.1159832635981051 0 0  0.1192050209202709 0 0  0.1224267782424358 0 0  0.1256485355646001 0 0  0.1288702928867644 0 0  0.1320920502089288 0 0  0.1353138075310958 0 0  0.1385355648532632 0 0  0.1417573221754333 0 0  0.1449790794976035 0 0  0.1482008368197736 0 0  0.1514225941419428 0 0  0.1546443514641101 0 0  0.157866108786276 0 0  0.1610878661084403 0 0  0.1643096234306047 0 0  0.167531380752769 0 0  0.1707531380749333 0 0  0.1739748953970977 0 0  0.177196652719262 0 0  0.1804184100414264 0 0  0.1836401673635935 0 0  0.1868619246857611 0 0  0.1900836820079313 0 0  0.1933054393301014 0 0  0.1965271966522716 0 0  0.1997489539744406 0 0  0.2029707112966078 0 0  0.2061924686187736 0 0  0.209414225940938 0 0  0.2126359832631022 0 0  0.2158577405852666 0 0  0.219079497907431 0 0  0.2223012552295953 0 0  0.2255230125517597 0 0  0.2287447698739242 0 0  0.2319665271960914 0 0  0.2351882845182592 0 0  0.2384100418404293 0 0  0.2416317991625994 0 0  0.2448535564847696 0 0  0.2480753138069371 0 0  0.2512970711291014 0 0  0.2545188284512658 0 0  0.2577405857734302 0 0  0.2609623430955986 0 0  0.2641841004177688 0 0  0.2674058577399389 0 0  0.270627615062109 0 0  0.2738493723842792 0 0  0.2770711297064487 0 0  0.280292887028613 0 0  0.2835146443507774 0 0  0.2867364016729417 0 0  0.2899581589951061 0 0  0.2931799163172705 0 0  0.2964016736394348 0 0  0.2996234309615992 0 0  0.3028451882837672 0 0  0.3060669456059373 0 0  0.3092887029281075 0 0  0.3125104602502776 0 0  0.3157322175724478 0 0  0.3189539748946177 0 0  0.322175732216782 0 0  0.3253974895389464 0 0  0.3286192468611107 0 0  0.3318410041832751 0 0  0.3350627615054395 0 0  0.3382845188276038 0 0  0.3415062761497681 0 0  0.3447280334719325 0 0  0.3479497907940968 0 0  0.3511715481162612 0 0  0.3543933054384255 0 0  0.3576150627605947 0 0  0.3608368200827649 0 0  0.364058577404935 0 0  0.3672803347271051 0 0  0.3705020920492753 0 0  0.373723849371444 0 0  0.3769456066936084 0 0  0.3801673640157748 0 0  0.383389121337945 0 0  0.3866108786601209 0 0  0.3898326359823028 0 0  0.3930543933044846 0 0  0.3962761506266662 0 0  0.399497907948848 0 0  0.4027196652710298 0 0  0.4059414225932116 0 0  0.4091631799153934 0 0  0.4123849372375751 0 0  0.4156066945597569 0 0  0.4188284518819387 0 0  0.4220502092041222 0 0  0.4252719665263097 0 0  0.4284937238484974 0 0  0.4317154811706849 0 0  0.4349372384928725 0 0  0.4381589958150601 0 0  0.4413807531372476 0 0  0.4446025104594352 0 0  0.4478242677816181 0 0  0.4510460251037998 0 0  0.4542677824259815 0 0  0.4574895397481634 0 0  0.4607112970703451 0 0  0.4639330543925269 0 0  0.4671548117147087 0 0  0.4703765690368904 0 0  0.4735983263590722 0 0  0.4768200836812568 0 0  0.4800418410034444 0 0  0.483263598325632 0 0  0.4864853556478196 0 0  0.4897071129700028 0 0  0.4929288702921845 0 0  0.4961506276143663 0 0  0.4993723849365479 0 0  0.5025941422587239 0 0  0.5058158995809008 0 0  0.5090376569030826 0 0  0.5122594142252677 0 0  0.515481171547461 0 0  0.5187029288696494 0 0  0.5219246861918312 0 0  0.525146443514013 0 0  0.5283682008361947 0 0  0.5315899581583845 0 0  0.5348117154805778 0 0  0.5380334728027617 0 0  0.5412552301249435 0 0  0.5444769874471141 0 0  0.5476987447692853 0 0  0.550920502091467 0 0  0.5541422594136513 0 0  0.5573640167358447 0 0  0.560585774058034 0 0  0.5638075313802158 0 0  0.5670292887023975 0 0  0.5702510460245793 0 0  0.5734728033467682 0 0  0.5766945606689615 0 0  0.579916317991155 0 0  0.5831380753133483 0 0  0.5863598326355314 0 0  0.5895815899577131 0 0  0.5928033472798949 0 0  0.5960251046020785 0 0  0.5992468619242718 0 0  0.6024686192464619 0 0  0.6056903765686437 0 0  0.6089121338908206 0 0  0.6121338912129908 0 0  0.6153556485351673 0 0  0.618577405857349 0 0  0.6217991631795386 0 0  0.625020920501732 0 0  0.6282426778239159 0 0  0.6314644351460976 0 0  0.6346861924682795 0 0  0.6379079497904622 0 0  0.6411297071126555 0 0  0.6443514644348465 0 0  0.6475732217570283 0 0  0.650794979079206 0 0  0.6540167364013761 0 0  0.6572384937235518 0 0  0.6604602510457335 0 0  0.6636820083679225 0 0  0.6669037656901158 0 0  0.6701255230123004 0 0  0.6733472803344823 0 0  0.6765690376566641 0 0  0.6797907949788459 0 0  0.6830125523010393 0 0  0.686234309623231 0 0  0.6894560669454127 0 0  0.6926778242675914 0 0  0.6958995815897615 0 0  0.6991213389119363 0 0  0.7023430962341181 0 0  0.7055648535563062 0 0  0.7087866108784994 0 0  0.712008368200685 0 0  0.7152301255228668 0 0  0.7184518828450486 0 0  0.7216736401672305 0 0  0.724895397489423 0 0  0.7281171548116155 0 0  0.7313389121337973 0 0  0.7345606694559768 0 0  0.7377824267781468 0 0  0.7410041841003209 0 0  0.7442259414225026 0 0  0.7474476987446899 0 0  0.7506694560668832 0 0  0.7538912133890696 0 0  0.7571129707112513 0 0  0.760334728033433 0 0  0.7635564853556149 0 0  0.7667782426778067 0 0  0.77 0.001685393258423789 0  0.77 0.003370786516847669 0  0.77 0.005056179775271247 0  0.77 0.006741573033694517 0  0.77 0.008426966292117821 0  0.77 0.01011235955054176 0  0.77 0.01179775280896623 0  0.77 0.0134831460673904 0  0.77 0.01516853932581489 0  0.77 0.01685393258423891 0  0.77 0.01853932584266291 0  0.77 0.02022471910108589 0  0.77 0.02191011235950794 0  0.77 0.02359550561792999 0  0.77 0.02528089887635205 0  0.77 0.02696629213477411 0  0.77 0.02865168539319714 0  0.77 0.03033707865161956 0  0.77 0.03202247191004162 0  0.77 0.03370786516846367 0  0.77 0.03539325842688572 0  0.77 0.03707865168530778 0  0.77 0.03876404494372984 0  0.77 0.0404494382021519 0  0.77 0.04213483146057394 0  0.77 0.04382022471899601 0  0.77 0.04550561797741807 0  0.77 0.04719101123584013 0  0.77 0.04887640449426219 0  0.77 0.05056179775268425 0  0.77 0.0522471910111063 0  0.77 0.05393258426952837 0  0.77 0.05561797752795105 0  0.77 0.05730337078637505 0  0.77 0.05898876404479723 0  0.77 0.0606741573032193 0  0.77 0.06235955056164135 0  0.77 0.06404494382006341 0  0.77 0.06573033707848548 0  0.77 0.06741573033690752 0  0.77 0.06910112359532959 0  0.77 0.07078651685375165 0  0.77 0.0724719101121737 0  0.77 0.07415730337059653 0  0.77 0.07584269662902443 0  0.77 0.07752808988745429 0  0.77 0.07921348314588413 0  0.77 0.08089887640431678 0  0.77 0.08258426966274923 0  0.77 0.08426966292117907 0  0.77 0.08595505617960987 0  0.77 0.08764044943804362 0  0.77 0.08932584269647403 0  0.77 0.09101123595490389 0  0.77 0.09269662921333673 0  0.77 0.09438202247176901 0  0.77 0.09606741573019884 0  0.77 0.09775280898862983 0  0.77 0.09943820224706355 0  0.77 0.1011235955054938 0  0.77 0.1028089887639236 0  0.77 0.1044943820223567 0  0.77 0.1061797752807888 0  0.77 0.1078651685392186 0  0.77 0.1095505617976498 0  0.77 0.1112359550560835 0  0.77 0.1129213483145136 0  0.77 0.1146067415729456 0  0.77 0.1162921348313787 0  0.77 0.1179775280898085 0  0.77 0.1196629213482387 0  0.77 0.1213483146066724 0  0.77 0.1230337078651035 0  0.77 0.1247191011235322 0  0.77 0.1264044943819605 0  0.77 0.1280898876403903 0  0.77 0.1297752808988242 0  0.77 0.1314606741572554 0  0.77 0.1331460674156853 0  0.77 0.1348314606741154 0  0.77 0.1365168539325504 0  0.77 0.1382022471909802 0  0.77 0.13988764044941 0  0.77 0.1415730337078443 0  0.77 0.1432584269662752 0  0.77 0.144943820224705 0  0.77 0.1466292134831355 0  0.77 0.1483146067415701 0  0.7667782426778414 0.15 0  0.7635564853556813 0.15 0  0.7603347280335111 0.15 0  0.757112970711341 0.15 0  0.7538912133891708 0.15 0  0.7506694560670005 0.15 0  0.7474476987448303 0.15 0  0.7442259414226602 0.15 0  0.74100418410049 0.15 0  0.7377824267783197 0.15 0  0.7345606694561496 0.15 0  0.7313389121339794 0.15 0  0.7281171548118092 0.15 0  0.724895397489639 0.15 0  0.7216736401674688 0.15 0  0.7184518828452986 0.15 0  0.7152301255231284 0.15 0  0.7120083682009583 0.15 0  0.708786610878788 0.15 0  0.7055648535566178 0.15 0  0.7023430962344477 0.15 0  0.6991213389122775 0.15 0  0.6958995815901072 0.15 0  0.692677824267937 0.15 0  0.6894560669457669 0.15 0  0.6862343096235967 0.15 0  0.6830125523014264 0.15 0  0.6797907949792563 0.15 0  0.6765690376570861 0.15 0  0.6733472803349159 0.15 0  0.6701255230127456 0.15 0  0.6669037656905755 0.15 0  0.6636820083684053 0.15 0  0.6604602510462351 0.15 0  0.657238493724065 0.15 0  0.6540167364018947 0.15 0  0.6507949790797245 0.15 0  0.6475732217575543 0.15 0  0.644351464435384 0.15 0  0.6411297071132231 0.15 0  0.6379079497910645 0.15 0  0.634686192468906 0.15 0  0.6314644351467468 0.15 0  0.6282426778245765 0.15 0  0.6250209205024085 0.15 0  0.62179916318025 0.15 0  0.6185774058580914 0.15 0  0.6153556485359328 0.15 0  0.6121338912137689 0.15 0  0.6089121338915987 0.15 0  0.6056903765694354 0.15 0  0.6024686192472768 0.15 0  0.5992468619251182 0.15 0  0.5960251046029597 0.15 0  0.5928033472807912 0.15 0  0.589581589958621 0.15 0  0.5863598326364508 0.15 0  0.5831380753142792 0.15 0  0.5799163179920974 0.15 0  0.57669456
[...]
<PointData  Scalars="pressure"> 
<DataArray  type="Float64"  Name="pressure"  format="ascii">2.2483063892060945e+04  2.1562124453804596e+00  -1.6158221536093809e+00  2.2482681312420707e+04  2.2457204546718051e+04  2.2437576289883182e+04  2.2420256454130478e+04  1.6315401137446734e+04  1.6298696126121604e+04  1.6283590812438750e+04  1.6268631722846236e+04  1.6253793728321682e+04  1.6239052598409868e+04  1.6224388545806882e+04  1.6209789850365238e+04  1.6195249364108608e+04  1.6180762695795189e+04  1.6166327283112007e+04  1.6151941854504357e+04  1.6137606096694846e+04  1.6123320440043393e+04  1.6109085914815490e+04  1.6094904051950318e+04  1.6080776812753202e+04  1.6066706537926806e+04  1.6052695909810564e+04  1.6038747923761952e+04  1.6024865865882981e+04  1.6011053295093679e+04  1.5997314028062718e+04  1.5983652125831528e+04  1.5970071881174528e+04  1.5956577805863162e+04  1.5943174617070024e+04  1.5929867222174011e+04  1.5916660701217876e+04  1.5903560286226390e+04  1.5890571336516481e+04  1.5877699309009899e+04  1.5864949722380230e+04  1.5852328113600443e+04  1.5839839985054390e+04  1.5827490739754907e+04  1.5815285601221767e+04  1.5803229512955517e+04  1.5791327009734177e+04  1.5779582048259670e+04  1.5767997776085364e+04  1.5756576201488191e+04  1.5745317696477938e+04  1.5734220204582183e+04  1.5723277874150126e+04  1.5712478431729147e+04  1.5701797731470102e+04  1.5691187839906986e+04  1.5680546089183006e+04  1.5669528693307118e+04  1.5656302122299570e+04  1.5633781160828616e+04  1.5581836004863855e+04  1.5505982390467469e+04  1.5435876500487528e+04  1.5367387989835142e+04  1.5299611174663592e+04  1.5232274448950899e+04  1.5165254322780589e+04  1.5098484709734996e+04  1.5031925705539299e+04  1.4965550501439924e+04  1.4899339372959255e+04  1.4833276663150868e+04  1.4767349156782780e+04  1.4701545152142802e+04  1.4635853904156498e+04  1.4570265274820638e+04  1.4504769503879877e+04  1.4439357051272056e+04  1.4374018483231628e+04  1.4308744385189699e+04  1.4243525291099530e+04  1.4178351622731150e+04  1.4113213634947188e+04  1.4048101364605480e+04  1.3983004581866433e+04  1.3917912743505116e+04  1.3852814948449357e+04  1.3787699896242295e+04  1.3722555849498071e+04  1.3657370601692352e+04  1.3592131451810506e+04  1.3526825187461900e+04  1.3461438078052523e+04  1.3395955879486590e+04  1.3330363851634060e+04  1.3264646789465220e+04  1.3198789068321008e+04  1.3132774703280393e+04  1.3066587422030878e+04  1.3000210750079998e+04  1.2933628106601291e+04  1.2866822908732045e+04  1.2799778681764472e+04  1.2732479172429728e+04  1.2664908462383850e+04  1.2597051079070885e+04  1.2528892101356949e+04  1.2460417257671574e+04  1.2391613014835748e+04  1.2322466656254212e+04  1.2252966348663726e+04  1.2183101197119973e+04  1.2112861288337872e+04  1.2042237722849219e+04  1.1971222636692537e+04  1.1899809213497705e+04  1.1827991687879807e+04  1.1755765341022969e+04  1.1683126489240543e+04  1.1610072466159754e+04  1.1536601599023907e+04  1.1462713179453296e+04  1.1388407428874940e+04  1.1313685458735788e+04  1.1238549225557832e+04  1.1163001480884850e+04  1.1087045716202085e+04  1.1010686102977386e+04  1.0933927428067842e+04  1.0856775024845010e+04  1.0779234700506619e+04  1.0701312660151902e+04  1.0623015428290961e+04  1.0544349768530759e+04  1.0465322602226217e+04  1.0385940926902545e+04  1.0306211735246214e+04  1.0226141935428397e+04  1.0145738273471148e+04  1.0065007258300995e+04  9.9839550900590730e+03  9.9025875921615170e+03  9.8209101475327061e+03  9.7389276393719447e+03  9.6566443967652667e+03  9.5740641454221113e+03  9.4911899637981605e+03  9.4080242448658901e+03  9.3245686638067655e+03  9.2408241519228723e+03  9.1567908770955491e+03  9.0724682311509077e+03  8.9878548245198726e+03  8.9029484886004157e+03  8.8177462862333778e+03  8.7322445306893169e+03  8.6464388135257559e+03  8.5603240416074295e+03  8.4738944834890608e+03  8.3871438252331427e+03  8.3000652355814691e+03  8.2126514402161320e+03  8.1248948046426440e+03  8.0367874250031336e+03  7.9483212258968651e+03  7.8594880640548799e+03  7.7702798364895380e+03  7.6806885915428020e+03  7.5907066410845709e+03  7.5003266719835265e+03  7.4095418548986754e+03  7.3183459484170680e+03  7.2267333966077886e+03  7.1346994181713017e+03  7.0422400855254682e+03  6.9493523924017509e+03  6.8560343087929677e+03  6.7622848224046238e+03  6.6681039661013965e+03  6.5734928311784106e+03  6.4784535666347665e+03  6.3829893649480437e+03  6.2871044351418659e+03  6.1908039641973064e+03  6.0940940680637159e+03  5.9969817336840752e+03  5.8994747535531142e+03  5.8015816543753372e+03  5.7033116213965241e+03  5.6046744199342793e+03  5.5056803155562893e+03  5.4063399942436899e+03  5.3066644837388667e+03  5.2066650771321656e+03  5.1063532595803144e+03  5.0057406388873042e+03  4.9048388805243085e+03  4.8036596475094893e+03  4.7022145454339861e+03  4.6005150727906930e+03  4.4985725766514070e+03  4.3963982136452723e+03  4.2940029161059410e+03  4.1913973631927593e+03  4.0885919567412739e+03  3.9855968015555995e+03  3.8824216898347813e+03  3.7790760894069231e+03  3.6755691354352884e+03  3.5719096252662644e+03  3.4681060160892425e+03  3.3641664250944505e+03  3.2600986318272257e+03  3.1559100824540778e+03  3.0516078956791098e+03  2.9471988700650104e+03  2.8426894925364095e+03  2.7380859478665707e+03  2.6333941289636778e+03  2.5286196478001839e+03  2.4237678468466129e+03  2.3188438108874207e+03  2.2138523791225789e+03  2.1087981574712512e+03  2.0036855310183585e+03  1.8985186765657695e+03  1.7933015752733074e+03  1.6880380254111196e+03  1.5827316552844534e+03  1.4773859364583370e+03  1.3720041975152753e+03  1.2665896387484424e+03  1.1611453485101317e+03  1.0556743225259656e+03  9.5017948866664813e+02  8.4466374225757318e+02  7.3913000298250165e+02  6.3358131738606744e+02  5.2802107343982959e+02  4.2245375600944180e+02  3.1688742421274691e+02  2.1132392440994226e+02  1.0575187182480943e+02  4.4832189103555542e-01  2.2955395638520136e-02  4.7711374180013748e-03  2.8352150251832048e-03  1.5114281903479997e-03  7.5940134693960502e-04  3.3293630094411082e-04  6.8776565380010909e-05  -1.1036579271968906e-04  -2.4206343483136285e-04  -3.4574603685837781e-04  -4.3201134455744908e-04  -5.0691164956036836e-04  -5.7404398884214813e-04  -6.3562027192237518e-04  -6.9303993562140804e-04  -7.4720899291489773e-04  -7.9872439419124757e-04  -8.4798412658605943e-04  -8.9525494813085037e-04  -9.4071519326184854e-04  -9.8448249190137083e-04  -1.0266321220915276e-03  -1.0672094107365519e-03  -1.1062382715020568e-03  -1.1437271861080742e-03  -1.1796734635765873e-03  -1.2140663203514097e-03  -1.2468891406439550e-03  -1.2781211587768351e-03  -1.3077387291313104e-03  -1.3357162974085295e-03  -1.3620271538998822e-03  -1.3866440251721897e-03  -1.4095395453445339e-03  -1.4306866359122736e-03  -1.4500588162080659e-03  -1.4676304597434427e-03  -1.4833770085144254e-03  -1.4972751537859154e-03  -1.5093029895437188e-03  -1.5194401438126219e-03  -1.5276678907372959e-03  -1.5339692463246725e-03  -1.5383290491626826e-03  -1.5407340272692788e-03  -1.5411728515238366e-03  -1.5396361753497565e-03  -1.5361166603281361e-03  -1.5306089866546926e-03  -1.5231098463156390e-03  -1.5136179175451495e-03  -1.5021338167285482e-03  -1.4886600243659502e-03  -1.4732007797347052e-03  -1.4557619377389929e-03  -1.4363507796835316e-03  -1.4149757664305743e-03  -1.3916462203902892e-03  -1.3663719169273846e-03  -1.3391625608934025e-03  -1.3100271156024129e-03  -1.2789729404182818e-03  -1.2460046791420041e-03  -1.2111228194999345e-03  -1.1743218176696710e-03  -1.1355876417720608e-03  -1.0948945347745551e-03  -1.0522007240693792e-03  -1.0074427032773104e-03  -9.6052757767144971e-04  -9.1132278877992397e-04  -8.5964232573057823e-04  -8.0522831948845290e-04  -7.4772681930698336e-04  -6.8665687271977655e-04  -6.2137354084269023e-04  -5.5103000133509164e-04  -4.7455521702391624e-04  -3.9068585858689368e-04  -2.9809810652947280e-04  -1.9540001895381273e-04  -7.7213463691977075e-05  1.3597053919477717e-04  1.6780880583155606e-03  1.8022811857471458e-02  1.3009330350486323e-01  7.3537592330376669e-02  1.0575116021683009e+02  2.1307789661654809e+02  3.1977673104596062e+02  4.2645420402760146e+02  5.3313377091382608e+02  6.3981884222901465e+02  7.4651498144608684e+02  8.5322647261761483e+02  9.5995696498673306e+02  1.0667098791943235e+03  1.1734885763888403e+03  1.2802964502187110e+03  1.3871369853669246e+03  1.4940137996268559e+03  1.6009306778425494e+03  1.7078916020002807e+03  1.8149007798376060e+03  1.9219626733896127e+03  2.0290820284080667e+03  2.1362639053382518e+03  2.2435137124127268e+03  2.3508372413665957e+03  2.4582407062681186e+03  2.5657307859773678e+03  2.6733146707865940e+03  2.7810001138563725e+03  2.8887954881400847e+03  2.9967098495873297e+03  3.1047530075357849e+03  3.2129356033447975e+03  3.3212691984965213e+03  3.4297663735972396e+03  3.5384408399601880e+03  3.6473075657497493e+03  3.7563829190273868e+03  3.8656848304744112e+03  3.9752329790938434e+03  4.0850490048333095e+03  4.1951567528491469e+03  4.3055825550802501e+03  4.4163555559596662e+03  4.5275080905004379e+03  4.6390761247202090e+03  4.7510997704594411e+03  4.8636238891749226e+03  4.9766988023125577e+03  5.0903811293851404e+03  5.2047347788598672e+03  5.3198321211405546e+03  5.4357553766561932e+03  5.5525982538943017e+03  5.6704678689951579e+03  5.7894869636619360e+03  5.9097963978967082e+03  6.0315577995147969e+03  6.1549560419199661e+03  6.2802007614616114e+03  6.4075251182356324e+03  6.5371777694013354e+03  6.6693989804314524e+03  6.8043604009370256e+03  6.9420235832948274e+03  7.0818266160401281e+03  7.2220391163458753e+03  7.3585686966049334e+03  7.4833340195143928e+03  7.5845213498286466e+03  7.6543189145855558e+03  7.7004994314845526e+03  7.7382699419551373e+03  7.7732769126034036e+03  7.8084407423156390e+03  7.8481560703224968e+03  7.8929345075487008e+03  7.9388488538808824e+03  7.9864551492537212e+03  8.0381624371715052e+03  8.0975176836065839e+03  8.1651021196176471e+03  8.2371718545170625e+03  8.3080685577132044e+03  8.3745444491871822e+03  8.4434347162137674e+03  8.5156574640479048e+03  8.5901006251033486e+03  8.6656404919941178e+03  8.7437133736545475e+03  8.8303334281774187e+03  8.9242732044027871e+03  9.0164483255481791e+03  9.1136151992999767e+03  1.2630633330820998e+04  1.2748210138775334e+04  1.2875728857392660e+04  1.3004861647968726e+04  1.3130824423993949e+04  1.3246779653207537e+04  9.7474054656077842e+03  9.8431518675612788e+03  9.9352711527711617e+03  1.3747763954788790e+04  1.3851099233596809e+04  1.3958767447372837e+04  1.4065811732504173e+04  1.4173079240494979e+04  1.4292600735535274e+04  1.4423799398204994e+04  1.4525616672727252e+04  1.4626118715425300e+04  1.4733194242273750e+04  1.4856369444337372e+04  1.4993761327410793e+04  1.5128637003331001e+04  1.5288225656288330e+04  1.5441152997599782e+04  1.5579793615029696e+04  1.5701769067485126e+04  1.5809220690969063e+04  1.5909690895161189e+04  1.6008693864913728e+04  1.6116055611245418e+04  1.6207559975625742e+04  1.6255536262838412e+04  1.6362842159071215e+04  1.2007985370575934e+04  1.6554142563463716e+04  1.6658922450552087e+04  1.2218162181567293e+04  1.2274986702446964e+04  1.6944149268078618e+04  1.2416117587253988e+04  1.2473914340516532e+04  1.2512796308963068e+04  1.7219429103453531e+04  1.2591018851397544e+04  1.2658617875825854e+04  1.7435137044701401e+04  1.7504834616906846e+04  1.2803772656919700e+04  1.7667399827024772e+04  1.7745372555916550e+04  1.2998521986897618e+04  1.3066874661835904e+04  1.8000624643845531e+04  1.3158988393972446e+04  1.3213556729193499e+04  1.8204368332892598e+04  1.3312926111565428e+04  1.3360869606677330e+04  1.8405404789199671e+04  1.8474722760678520e+04  1.8554241740274665e+04  1.8635990486535142e+04  1.8724806347136015e+04  1.8820122414232508e+04  1.3780886263114642e+04  1.9017066056462903e+04  1.9114086784673807e+04  1.9191232088256278e+04  1.9255185180640339e+04  1.4081408888280816e+04  1.9415772055252019e+04  1.9506955213125522e+04  1.9589282063199957e+04  1.4335135743318007e+04  1.9763553252398888e+04  1.4459134414388660e+04  1.9957162413260176e+04  2.0047488650573989e+04  2.0090796707942704e+04  2.0134423235937866e+04  1.4711085914032488e+04  1.4767790729126375e+04  1.4836520521889792e+04  1.4876076864451732e+04  1.4919439441410326e+04  1.4960495993979806e+04  1.5007761008036276e+04  1.5071682676853678e+04  1.5122377743651168e+04  1.5163718025311482e+04  1.5192701941927304e+04  1.5233930014247919e+04  1.5286181255014717e+04  1.5316949877163976e+04  1.5354406391126768e+04  1.5402051713056711e+04  1.5432785931896849e+04  2.1221742889268160e+04  1.5504143993132682e+04  1.5537584752600787e+04  2.1356764214839008e+04  1.5581439748413512e+04  1.5609729757034020e+04  2.1454516395440696e+04  1.5651352664259990e+04  1.5675425344826417e+04  2.1540790989673103e+04  2.1558168337249146e+04  1.5722324909993524e+04  2.1609782553192126e+04  2.1640074330934862e+04  1.5779507599262322e+04  1.5802325327976512e+04  1.5820263504118757e+04  2.1740787287692012e+04  1.5857981640027072e+04  1.5878395260957210e+04  1.5895237510203986e+04  2.1840245518761218e+04  1.5923176596049474e+04  1.5943996827601406e+04  1.5961171911078312e+04  1.5977522212381458e+04  1.5991745508535094e+04  1.6003484322685765e+04  1.6021021982809973e+04  1.6037178301744147e+04  1.6054283686007589e+04  1.6072721875520743e+04  1.6091149571517357e+04  1.6109040465687865e+04  1.6126368992352631e+04  1.6143046311198150e+04  1.6159657055434645e+04  1.6177498720288952e+04  1.6195810026801006e+04  1.6213851363162217e+04  1.6231091028026720e+04  1.6247388939490651e+04  1.6263900803663917e+04  1.6279460161778061e+04  1.6290975487641683e+04  1.6304872164106971e+04  1.6320592385713286e+04  2.2422438188109365e+04  2.2440006505227571e+04  2.2459727169285699e+04  2.2480319333693638e+04  2.2479216046935780e+04  2.2478457164859803e+04  2.2477750437681094e+04  2.2477034231463738e+04  2.2476302761015060e+04  2.2475561101013605e+04  2.2474815898747907e+04  2.2474073503353873e+04  2.2473339563034810e+04  2.2472618958635856e+04  2.2471915829889236e+04  2.2471233628615311e+04  2.2470575179360723e+04  2.2469942741653082e+04  2.2469338071749287e+04  2.2468762482562241e+04  2.2468216900668329e+04  2.2467701919514962e+04  2.2467217848220527e+04  2.2466764755641918e+04  2.2466342509631537e+04  2.2465950811599294e+04  2.2465589226631168e+04  2.2465257209503052e+04  2.2464954126974739e+04  2.2464679276765266e+04  2.2464431903605466e+04  2.2464211212744180e+04  2.2464016381256301e+04  2.2463846567468885e+04  2.2463700918786766e+04  2.2463578578166329e+04  2.2463478689453943e+04  2.2463400401776791e+04  2.2463342873146998e+04  2.2463305273416885e+04  2.2463286786703127e+04  2.2463286613378914e+04  2.2463303971718986e+04  2.2463338099268898e+04  2.2463388253999245e+04  2.2463453715296015e+04  2.2463533784831234e+04  2.2463627787351354e+04  2.2463735071416009e+04  2.2463855010115749e+04  2.2463987001794296e+04  2.2464130470798573e+04  2.2464284868278846e+04  2.2464449673059411e+04  2.2464624392601727e+04  2.2464808564081202e+04  2.2465001755601217e+04  2.2465203567569009e+04  2.2465413634261808e+04  2.2465631625614606e+04  2.2465857249266013e+04  2.2466090252904083e+04  2.2466330426960929e+04  2.2466577607713749e+04  2.2466831680859144e+04  2.2467092585639544e+04  2.2467360319613970e+04  2.2467634944180289e+04  2.2467916590971981e+04  2.2468205469269309e+04  2.2468501874578276e+04  2.2468806198538739e+04  2.2469118940316417e+04  2.2469440719597605e+04  2.2469772291217145e+04  2.2470114561262777e+04  2.2470468604137695e+04  2.2470835679396161e+04  2.2471217245973410e+04  2.2471614969355676e+04  2.2472030713756089e+04  2.2472466505891389e+04  2.2472924449510621e+04  2.2473406563426452e+04  2.2473914522339157e+04  2.2474449325969697e+04  2.2475011034934651e+04  2.2475599028489578e+04  2.2476216736722392e+04  2.2476923163929423e+04  2.2478216524323623e+04  2.2457572129042066e+04  2.2457013609187768e+04  2.2456379941890438e+04  2.2455764179498332e+04  2.2455173359980992e+04  2.2454609869623397e+04  2.2454075103979161e+04  2.2453568680786935e+04  2.2453088989495871e+04  2.2452633838819198e+04  2.2452200874140093e+04  2.2451787804494408e+04  2.2451392513284383e+04  2.2451013103651523e+04  2.2450647908703093e+04  2.2450295483812250e+04  2.2449954590613379e+04  2.2449624177944726e+04  2.2449303362504394e+04  2.2448991410588831e+04  2.2448687721510843e+04  2.2448391812878002e+04  2.2448103307697813e+04  2.2447821923173211e+04  2.2447547461011778e+04  2.2447279799063937e+04  2.2447018884114274e+04  2.2446764725666228e+04  2.2446517390579003e+04  2.2446276998434481e+04  2.2446043717528573e+04  2.2445817761397670e+04  2.2445599385803358e+04  2.2445388886110730e+04  2.2445186595004954e+04  2.2444992880498987e+04  2.2444808144191917e+04  2.2444632819743238e+04  2.2444467371532519e+04  2.2444312293477524e+04  2.2444168107986883e+04  2.2444035365024843e+04  2.2443914641267402e+04  2.2443806539329518e+04  2.2443711687043004e+04  2.2443630736764240e+04  2.2443564364689206e+04  2.2443513270151510e+04  2.2443478174875865e+04  2.2443459822155877e+04  2.2443458975919992e+04  2.2443476419643663e+04  2.2443512955058111e+04  2.2443569400597553e+04  2.2443646589515956e+04  2.2443745367591837e+04  2.2443866590324567e+04  2.2444011119508712e+04  2.2444179819052151e+04  2.2444373549881035e+04  2.2444593163747788e+04  2.2444839495729226e+04  2.2445113355168938e+04  2.2445415514783253e+04  2.2445746697613533e+04  2.2446107561471632e+04  2.2446498680491437e+04  2.2446920523373439e+04  2.2447373427893814e+04  2.2447857571254557e+04  2.2448372935883181e+04  2.2448919270362905e+04  2.2449496045298765e+04  2.2450102404114394e+04  2.2450737109038466e+04  2.2451398482873767e+04  2.2452084347511820e+04  2.2452791960458027e+04  2.2453517950641733e+04  2.2454258254117580e+04  2.2455008048596919e+04  2.2455761683776997e+04  2.2456512603013351e+04  2.2457253213521883e+04  2.2457974204980732e+04  2.2458659749999075e+04  2.2459262094806920e+04  2.2459618390585911e+04  2.2437541620926884e+04  2.2437064709976021e+04  2.2436474870002981e+04  2.2435841646533732e+04  2.2435231570081054e+04  2.2434660997411786e+04  2.2434129095928027e+04  2.2433631257093344e+04  2.2433162727703006e+04  2.2432719403705891e+04  2.2432297882958930e+04  2.2431895358810147e+04  2.2431509504628761e+04  2.2431138380239059e+04  2.2430780360880468e+04  2.2430434083510328e+04  2.2430098405557805e+04  2.2429772372559975e+04  2.2429455192250225e+04  2.2429146213460132e+04  2.2428844908710777e+04  2.2428550859699804e+04  2.2428263745105447e+04  2.2427983330272731e+04  2.2427709458446254e+04  2.2427442043285424e+04  2.2427181062450676e+04  2.2426926552089244e+04  2.2426678602080316e+04  2.2426437351924127e+04  2.2426202987179073e+04  2.2425975736367269e+04  2.2425755868281598e+04  2.2425543689638267e+04  2.2425339543027407e+04  2.2425143805121425e+04  2.2424956885106716e+04  2.2424779223309153e+04  2.2424611289987475e+04  2.2424453584271756e+04  2.2424306633226624e+04  2.2424170991020525e+04  2.2424047238183291e+04  2.2423935980935126e+04  2.2423837850570060e+04  2.2423753502876079e+04  2.2423683617573679e+04  2.2423628897752049e+04  2.2423590069280275e+04  2.2423567880167448e+04  2.2423563099841387e+04  2.2423576518310714e+04  2.2423608945168446e+04  2.2423661208387814e+04  2.2423734152851288e+04  2.2423828638542866e+04  2.2423945538319833e+04  2.2424085735164503e+04  2.2424250118796965e+04  2.2424439581507762e+04  2.2424655013042775e+04  2.2424897294342172e+04  2.2425167289899582e+04  2.2425465838467968e+04  2.2425793741792932e+04  2.2426151751005167e+04  2.2426540550250942e+04  2.2426960737085938e+04  2.2427412799107111e+04  2.2427897086255573e+04  2.2428413778200160e+04  2.2428962846220347e+04  2.2429544009069668e+04  2.2430156682448549e+04  2.2430799921994792e+04  2.2431472360175554e+04  2.2432172138199861e+04  2.2432896835041094e+04  2.2433643396405838e+04  2.2434408065040538e+04  2.2435186303519455e+04  2.2435972662160188e+04  2.24367