<?xml version="1.0"?>
<VTKFile type="UnstructuredGrid"  version="0.1"  >
<UnstructuredGrid>
<Piece  NumberOfPoints="21600" NumberOfCells="42542">
<Points>
<DataArray  type="Float64"  NumberOfComponents="3"  format="ascii">0 0 0  0.77 0 0  0.77 0.15 0  0 0.15 0  0.003221757322170014 0 0  0.006443514644340046 0 0  0.009665271966510193 0 0  0.01288702928868034 0 0  0.01610878661085048 0 0  0.01933054393302049 0 0  0.02255230125519027 0 0  0.02577405857735967 0 0  0.02899581589952872 0 0  0.03221757322169801 0 0  0.03543933054386744 0 0  0.03866108786603686 0 0  0.04188284518820627 0 0  0.0451046025103757 0 0  0.04832635983254521 0 0  0.05154811715471607 0 0  0.05476987447688695 0 0  0.05799163179905782 0 0  0.06121338912122846 0 0  0.06443514644339859 0 0  0.06765690376556875 0 0  0.0708786610877389 0 0  0.07410041840990904 0 0  0.0773221757320792 0 0  0.08054393305425039 0 0  0.08376569037642198 0 0  0.0869874476985936 0 0  0.09020920502076518 0 0  0.0934309623429339 0 0  0.0966527196651024 0 0  0.09987447698726967 0 0  0.1030962343094369 0 0  0.1063179916316041 0 0  0.1095397489537714 0 0  0.1127615062759386 0 0  0.1159832635981051 0 0  0.1192050209202709 0 0  0.1224267782424358 0 0  0.1256485355646001 0 0  0.1288702928867644 0 0  0.1320920502089288 0 0  0.1353138075310958 0 0  0.1385355648532632 0 0  0.1417573221754333 0 0  0.1449790794976035 0 0  0.1482008368197736 0 0  0.1514225941419428 0 0  0.1546443514641101 0 0  0.157866108786276 0 0  0.1610878661084403 0 0  0.1643096234306047 0 0  0.167531380752769 0 0  0.1707531380749333 0 0  0.1739748953970977 0 0  0.177196652719262 0 0  0.1804184100414264 0 0  0.1836401673635935 0 0  0.1868619246857611 0 0  0.1900836820079313 0 0  0.1933054393301014 0 0  0.1965271966522716 0 0  0.1997489539744406 0 0  0.2029707112966078 0 0  0.2061924686187736 0 0  0.209414225940938 0 0  0.2126359832631022 0 0  0.2158577405852666 0 0  0.219079497907431 0 0  0.2223012552295953 0 0  0.2255230125517597 0 0  0.2287447698739242 0 0  0.2319665271960914 0 0  0.2351882845182592 0 0  0.2384100418404293 0 0  0.2416317991625994 0 0  0.2448535564847696 0 0  0.2480753138069371 0 0  0.2512970711291014 0 0  0.2545188284512658 0 0  0.2577405857734302 0 0  0.2609623430955986 0 0  0.2641841004177688 0 0  0.2674058577399389 0 0  0.270627615062109 0 0  0.2738493723842792 0 0  0.2770711297064487 0 0  0.280292887028613 0 0  0.2835146443507774 0 0  0.2867364016729417 0 0  0.2899581589951061 0 0  0.2931799163172705 0 0  0.2964016736394348 0 0  0.2996234309615992 0 0  0.3028451882837672 0 0  0.3060669456059373 0 0  0.3092887029281075 0 0  0.3125104602502776 0 0  0.3157322175724478 0 0  0.3189539748946177 0 0  0.322175732216782 0 0  0.3253974895389464 0 0  0.3286192468611107 0 0  0.3318410041832751 0 0  0.3350627615054395 0 0  0.3382845188276038 0 0  0.3415062761497681 0 0  0.3447280334719325 0 0  0.3479497907940968 0 0  0.3511715481162612 0 0  0.3543933054384255 0 0  0.3576150627605947 0 0  0.3608368200827649 0 0  0.364058577404935 0 0  0.3672803347271051 0 0  0.3705020920492753 0 0  0.373723849371444 0 0  0.3769456066936084 0 0  0.3801673640157748 0 0  0.383389121337945 0 0  0.3866108786601209 0 0  0.3898326359823028 0 0  0.3930543933044846 0 0  0.3962761506266662 0 0  0.399497907948848 0 0  0.4027196652710298 0 0  0.4059414225932116 0 0  0.4091631799153934 0 0  0.4123849372375751 0 0  0.4156066945597569 0 0  0.4188284518819387 0 0  0.4220502092041222 0 0  0.4252719665263097 0 0  0.4284937238484974 0 0  0.4317154811706849 0 0  0.4349372384928725 0 0  0.4381589958150601 0 0  0.4413807531372476 0 0  0.4446025104594352 0 0  0.4478242677816181 0 0  0.4510460251037998 0 0  0.4542677824259815 0 0  0.4574895397481634 0 0  0.4607112970703451 0 0  0.4639330543925269 0 0  0.4671548117147087 0 0  0.4703765690368904 0 0  0.4735983263590722 0 0  0.4768200836812568 0 0  0.4800418410034444 0 0  0.483263598325632 0 0  0.4864853556478196 0 0  0.4897071129700028 0 0  0.4929288702921845 0 0  0.4961506276143663 0 0  0.4993723849365479 0 0  0.5025941422587239 0 0  0.5058158995809008 0 0  0.5090376569030826 0 0  0.5122594142252677 0 0  0.515481171547461 0 0  0.5187029288696494 0 0  0.5219246861918312 0 0  0.525146443514013 0 0  0.5283682008361947 0 0  0.5315899581583845 0 0  0.5348117154805778 0 0  0.5380334728027617 0 0  0.5412552301249435 0 0  0.5444769874471141 0 0  0.5476987447692853 0 0  0.550920502091467 0 0  0.5541422594136513 0 0  0.5573640167358447 0 0  0.560585774058034 0 0  0.5638075313802158 0 0  0.5670292887023975 0 0  0.5702510460245793 0 0  0.5734728033467682 0 0  0.5766945606689615 0 0  0.579916317991155 0 0  0.5831380753133483 0 0  0.5863598326355314 0 0  0.5895815899577131 0 0  0.5928033472798949 0 0  0.5960251046020785 0 0  0.5992468619242718 0 0  0.6024686192464619 0 0  0.6056903765686437 0 0  0.6089121338908206 0 0  0.6121338912129908 0 0  0.6153556485351673 0 0  0.618577405857349 0 0  0.6217991631795386 0 0  0.625020920501732 0 0  0.6282426778239159 0 0  0.6314644351460976 0 0  0.6346861924682795 0 0  0.6379079497904622 0 0  0.6411297071126555 0 0  0.6443514644348465 0 0  0.6475732217570283 0 0  0.650794979079206 0 0  0.6540167364013761 0 0  0.6572384937235518 0 0  0.6604602510457335 0 0  0.6636820083679225 0 0  0.6669037656901158 0 0  0.6701255230123004 0 0  0.6733472803344823 0 0  0.6765690376566641 0 0  0.6797907949788459 0 0  0.6830125523010393 0 0  0.686234309623231 0 0  0.6894560669454127 0 0  0.6926778242675914 0 0  0.6958995815897615 0 0  0.6991213389119363 0 0  0.7023430962341181 0 0  0.7055648535563062 0 0  0.7087866108784994 0 0  0.712008368200685 0 0  0.7152301255228668 0 0  0.7184518828450486 0 0  0.7216736401672305 0 0  0.724895397489423 0 0  0.7281171548116155 0 0  0.7313389121337973 0 0  0.7345606694559768 0 0  0.7377824267781468 0 0  0.7410041841003209 0 0  0.7442259414225026 0 0  0.7474476987446899 0 0  0.7506694560668832 0 0  0.7538912133890696 0 0  0.7571129707112513 0 0  0.760334728033433 0 0  0.7635564853556149 0 0  0.7667782426778067 0 0  0.77 0.001685393258423789 0  0.77 0.003370786516847669 0  0.77 0.005056179775271247 0  0.77 0.006741573033694517 0  0.77 0.008426966292117821 0  0.77 0.01011235955054176 0  0.77 0.01179775280896623 0  0.77 0.0134831460673904 0  0.77 0.01516853932581489 0  0.77 0.01685393258423891 0  0.77 0.01853932584266291 0  0.77 0.02022471910108589 0  0.77 0.02191011235950794 0  0.77 0.02359550561792999 0  0.77 0.02528089887635205 0  0.77 0.02696629213477411 0  0.77 0.02865168539319714 0  0.77 0.03033707865161956 0  0.77 0.03202247191004162 0  0.77 0.03370786516846367 0  0.77 0.03539325842688572 0  0.77 0.03707865168530778 0  0.77 0.03876404494372984 0  0.77 0.0404494382021519 0  0.77 0.04213483146057394 0  0.77 0.04382022471899601 0  0.77 0.04550561797741807 0  0.77 0.04719101123584013 0  0.77 0.04887640449426219 0  0.77 0.05056179775268425 0  0.77 0.0522471910111063 0  0.77 0.05393258426952837 0  0.77 0.05561797752795105 0  0.77 0.05730337078637505 0  0.77 0.05898876404479723 0  0.77 0.0606741573032193 0  0.77 0.06235955056164135 0  0.77 0.06404494382006341 0  0.77 0.06573033707848548 0  0.77 0.06741573033690752 0  0.77 0.06910112359532959 0  0.77 0.07078651685375165 0  0.77 0.0724719101121737 0  0.77 0.07415730337059653 0  0.77 0.07584269662902443 0  0.77 0.07752808988745429 0  0.77 0.07921348314588413 0  0.77 0.08089887640431678 0  0.77 0.08258426966274923 0  0.77 0.08426966292117907 0  0.77 0.08595505617960987 0  0.77 0.08764044943804362 0  0.77 0.08932584269647403 0  0.77 0.09101123595490389 0  0.77 0.09269662921333673 0  0.77 0.09438202247176901 0  0.77 0.09606741573019884 0  0.77 0.09775280898862983 0  0.77 0.09943820224706355 0  0.77 0.1011235955054938 0  0.77 0.1028089887639236 0  0.77 0.1044943820223567 0  0.77 0.1061797752807888 0  0.77 0.1078651685392186 0  0.77 0.1095505617976498 0  0.77 0.1112359550560835 0  0.77 0.1129213483145136 0  0.77 0.1146067415729456 0  0.77 0.1162921348313787 0  0.77 0.1179775280898085 0  0.77 0.1196629213482387 0  0.77 0.1213483146066724 0  0.77 0.1230337078651035 0  0.77 0.1247191011235322 0  0.77 0.1264044943819605 0  0.77 0.1280898876403903 0  0.77 0.1297752808988242 0  0.77 0.1314606741572554 0  0.77 0.1331460674156853 0  0.77 0.1348314606741154 0  0.77 0.1365168539325504 0  0.77 0.1382022471909802 0  0.77 0.13988764044941 0  0.77 0.1415730337078443 0  0.77 0.1432584269662752 0  0.77 0.144943820224705 0  0.77 0.1466292134831355 0  0.77 0.1483146067415701 0  0.7667782426778414 0.15 0  0.7635564853556813 0.15 0  0.7603347280335111 0.15 0  0.757112970711341 0.15 0  0.7538912133891708 0.15 0  0.7506694560670005 0.15 0  0.7474476987448303 0.15 0  0.7442259414226602 0.15 0  0.74100418410049 0.15 0  0.7377824267783197 0.15 0  0.7345606694561496 0.15 0  0.7313389121339794 0.15 0  0.7281171548118092 0.15 0  0.724895397489639 0.15 0  0.7216736401674688 0.15 0  0.7184518828452986 0.15 0  0.7152301255231284 0.15 0  0.7120083682009583 0.15 0  0.708786610878788 0.15 0  0.7055648535566178 0.15 0  0.7023430962344477 0.15 0  0.6991213389122775 0.15 0  0.6958995815901072 0.15 0  0.692677824267937 0.15 0  0.6894560669457669 0.15 0  0.6862343096235967 0.15 0  0.6830125523014264 0.15 0  0.6797907949792563 0.15 0  0.6765690376570861 0.15 0  0.6733472803349159 0.15 0  0.6701255230127456 0.15 0  0.6669037656905755 0.15 0  0.6636820083684053 0.15 0  0.6604602510462351 0.15 0  0.657238493724065 0.15 0  0.6540167364018947 0.15 0  0.6507949790797245 0.15 0  0.6475732217575543 0.15 0  0.644351464435384 0.15 0  0.6411297071132231 0.15 0  0.6379079497910645 0.15 0  0.634686192468906 0.15 0  0.6314644351467468 0.15 0  0.6282426778245765 0.15 0  0.6250209205024085 0.15 0  0.62179916318025 0.15 0  0.6185774058580914 0.15 0  0.6153556485359328 0.15 0  0.6121338912137689 0.15 0  0.6089121338915987 0.15 0  0.6056903765694354 0.15 0  0.6024686192472768 0.15 0  0.5992468619251182 0.15 0  0.5960251046029597 0.15 0  0.5928033472807912 0.15 0  0.589581589958621 0.15 0  0.5863598326364508 0.15 0  0.5831380753142792 0.15 0  0.5799163179920974 0.15 0  0.57669456
[...]
<PointData  Scalars="pressure"> 
<DataArray  type="Float64"  Name="pressure"  format="ascii">2.0825724033792485e+04  2.1472149422210904e+00  -1.6229273987183224e+00  2.0825735142388374e+04  2.0799864519743209e+04  2.0780235625493820e+04  2.0762914827691013e+04  1.5108086929283709e+04  1.5091380108907491e+04  1.5076272725455885e+04  1.5061311220533509e+04  1.5046470478580608e+04  1.5031726290019542e+04  1.5017058892462261e+04  1.5002456596184544e+04  1.4987912289977956e+04  1.4973421626656982e+04  1.4958982096381524e+04  1.4944592489794004e+04  1.4930252567035892e+04  1.4915962844811407e+04  1.4901724454586825e+04  1.4887539045539985e+04  1.4873408716710626e+04  1.4859335968794185e+04  1.4845323669478827e+04  1.4831375028291815e+04  1.4817493578191890e+04  1.4803683161943873e+04  1.4789947921819190e+04  1.4776292291490770e+04  1.4762720989192518e+04  1.4749239011333111e+04  1.4735851625811689e+04  1.4722564364295660e+04  1.4709383012693110e+04  1.4696313598988410e+04  1.4683362377509111e+04  1.4670535808547391e+04  1.4657840532063425e+04  1.4645283333931255e+04  1.4632871102822888e+04  1.4620610775316785e+04  1.4608509266083727e+04  1.4596573378911678e+04  1.4584809692650206e+04  1.4573224413462420e+04  1.4561823180302690e+04  1.4550610802837185e+04  1.4539590897253216e+04  1.4528765359733336e+04  1.4518133567092436e+04  1.4507691090211356e+04  1.4497427478406069e+04  1.4487322130528077e+04  1.4477335900899618e+04  1.4467392919592116e+04  1.4457333835763595e+04  1.4446637424057462e+04  1.4432798341897995e+04  1.4407402565374821e+04  1.4365872454514116e+04  1.4327310519300841e+04  1.4276848544309209e+04  1.4204588839180315e+04  1.4140041216993097e+04  1.4078133559567412e+04  1.4017524726273392e+04  1.3957726108241462e+04  1.3898494018817430e+04  1.3839689834146455e+04  1.3781227145911729e+04  1.3723047944104324e+04  1.3665110798706964e+04  1.3607384486951394e+04  1.3549844319755528e+04  1.3492469906679873e+04  1.3435243733998050e+04  1.3378150225711744e+04  1.3321175103743093e+04  1.3264304940167172e+04  1.3207526836400346e+04  1.3150828188355841e+04  1.3094196510955939e+04  1.3037619304313712e+04  1.2981083949653996e+04  1.2924577626892731e+04  1.2868087248459235e+04  1.2811599405841969e+04  1.2755100326714977e+04  1.2698575841510408e+04  1.2642011359033157e+04  1.2585391851224755e+04  1.2528701847507111e+04  1.2471925439298140e+04  1.2415046295304099e+04  1.2358047688072025e+04  1.2300912532046576e+04  1.2243623433040131e+04  1.2186162748618744e+04  1.2128512658465674e+04  1.2070655243345253e+04  1.2012572570893513e+04  1.1954246786146956e+04  1.1895660204518241e+04  1.1836795404860761e+04  1.1777635320336451e+04  1.1718163325013134e+04  1.1658363314443935e+04  1.1598219778894303e+04  1.1537717868342954e+04  1.1476843448852125e+04  1.1415583150340881e+04  1.1353924406171744e+04  1.1291855485250646e+04  1.1229365517530614e+04  1.1166444513894869e+04  1.1103083381384284e+04  1.1039273934636078e+04  1.0975008904236292e+04  1.0910281942478308e+04  1.0845087626785815e+04  1.0779421460824045e+04  1.0713279873103609e+04  1.0646660212698111e+04  1.0579560741557758e+04  1.0511980622815139e+04  1.0443919904451997e+04  1.0375379497721360e+04  1.0306361149797782e+04  1.0236867410249002e+04  1.0166901591075830e+04  1.0096467720241248e+04  1.0025570488792757e+04  9.9542151918615054e+03  9.8824076639877621e+03  9.8101542093650532e+03  9.7374615277086195e+03  9.6643366365360635e+03  9.5907867906942865e+03  9.5168193999820724e+03  9.4424419457039639e+03  9.3676618969543561e+03  9.2924866273762982e+03  9.2169233330776460e+03  9.1409789523190157e+03  9.0646600875266467e+03  8.9879729301290499e+03  8.9109231886763646e+03  8.8335160206766650e+03  8.7557559685770302e+03  8.6776469003271395e+03  8.5991919549897848e+03  8.5203934939007395e+03  8.4412530579285794e+03  8.3617713314373414e+03  8.2819481136042687e+03  8.2017822977898813e+03  8.1212718596863178e+03  8.0404138549814907e+03  7.9592044272616722e+03  7.8776388268325309e+03  7.7957114410571921e+03  7.7134158366939455e+03  7.6307448145608569e+03  7.5476904766549342e+03  7.4642443056238490e+03  7.3803972562185572e+03  7.2961398580609002e+03  7.2114623287519080e+03  7.1263546960260564e+03  7.0408069273479241e+03  6.9548090650608401e+03  6.8683513649378820e+03  6.7814244357892858e+03  6.6940193776349888e+03  6.6061279158842708e+03  6.5177425289821240e+03  6.4288565670723383e+03  6.3394643594125937e+03  6.2495613085306313e+03  6.1591439694330138e+03  6.0682101125589561e+03  5.9767587695841676e+03  5.8847902616183310e+03  5.7923062097779612e+03  5.6993095285374438e+03  5.6058044026572461e+03  5.5117962488300554e+03  5.4172916634804906e+03  5.3222983583830619e+03  5.2268250859226191e+03  5.1308815559231271e+03  5.0344783460011495e+03  4.9376268073743622e+03  4.8403389679829606e+03  4.7426274346581349e+03  4.6445052959242867e+03  4.5459860268422080e+03  4.4470833971091051e+03  4.3478113834360838e+03  4.2481840870202905e+03  4.1482156567401644e+03  4.0479202185224030e+03  3.9473118111589743e+03  3.8464043287097325e+03  3.7452114694944853e+03  3.6437466915658651e+03  3.5420231744687749e+03  3.4400537870136577e+03  3.3378510607402168e+03  3.2354271687059604e+03  3.1327939092072979e+03  3.0299626940307448e+03  2.9269445408228416e+03  2.8237500691748019e+03  2.7203895000310563e+03  2.6168726580422704e+03  2.5132089765110172e+03  2.4094075046005205e+03  2.3054769165001130e+03  2.2014255222763231e+03  2.0972612801618002e+03  1.9929918100704242e+03  1.8886244081598923e+03  1.7841660622988441e+03  1.6796234683440819e+03  1.5750030471846069e+03  1.4703109625868778e+03  1.3655531399916129e+03  1.2607352865912999e+03  1.1558629133428640e+03  1.0509413601669066e+03  9.4597582676910042e+02  8.4097141410426184e+02  7.3593318746112482e+02  6.3086628504648615e+02  5.2577613822747890e+02  4.2066923045238030e+02  3.1555557138536363e+02  2.1043895898306209e+02  1.0530998281548803e+02  4.4646429679864019e-01  2.2829925504143114e-02  4.6800860089435421e-03  2.7079550951970336e-03  1.3454936521950507e-03  5.5257829024424440e-04  8.4063073945051848e-05  -2.2258638478643523e-04  -4.4429256570894165e-04  -6.1842839975844105e-04  -7.6429961287523209e-04  -8.9241689828820287e-04  -1.0087644822206296e-03  -1.1168815887453666e-03  -1.2189280993153355e-03  -1.3162548227496781e-03  -1.4097212230284445e-03  -1.4998790257892537e-03  -1.5870818764319493e-03  -1.6715528136218212e-03  -1.7534269214597529e-03  -1.8327789617376654e-03  -1.9096416824961112e-03  -1.9840182030855112e-03  -2.0558905561192825e-03  -2.1252256873662704e-03  -2.1919797445909637e-03  -2.2561011957444080e-03  -2.3175331346622931e-03  -2.3762150152294623e-03  -2.4320839781800572e-03  -2.4850758843035607e-03  -2.5351261340594454e-03  -2.5821703298987827e-03  -2.6261448216113640e-03  -2.6669871642042015e-03  -2.7046365091279532e-03  -2.7390339448299956e-03  -2.7701227976241476e-03  -2.7978489013726843e-03  -2.8221608420510025e-03  -2.8430101817281100e-03  -2.8603516646522591e-03  -2.8741434079978144e-03  -2.8843470780265234e-03  -2.8909280527128068e-03  -2.8938555703399813e-03  -2.8931028639529385e-03  -2.8886472801189366e-03  -2.8804703811848636e-03  -2.8685580277273818e-03  -2.8529004397562126e-03  -2.8334922321240487e-03  -2.8103324200615507e-03  -2.7834243892796507e-03  -2.7527758234076058e-03  -2.7183985798777039e-03  -2.6803085025067105e-03  -2.6385251561013728e-03  -2.5930714640105719e-03  -2.5439732227875845e-03  -2.4912584613900968e-03  -2.4349566004976762e-03  -2.3750973528205901e-03  -2.3117092851404823e-03  -2.2448179342355289e-03  -2.1744433301990633e-03  -2.1005967266597477e-03  -2.0232762633231793e-03  -1.9424611851685176e-03  -1.8581041068020340e-03  -1.7701206352358355e-03  -1.6783754538896914e-03  -1.5826637599005492e-03  -1.4826868481547645e-03  -1.3780209592941040e-03  -1.2680800250671237e-03  -1.1520774823186976e-03  -1.0290036973867689e-03  -8.9765783093116410e-04  -7.5677986189572814e-04  -6.0504184028635716e-04  -4.3710685124742307e-04  -1.7313886762735156e-04  1.4263859756786673e-03  1.7894040883950829e-02  1.3049532936485211e-01  7.3770556545761659e-02  1.0620623963632271e+02  2.1399715721047789e+02  3.2116192837928730e+02  4.2831195382229726e+02  5.3547309474570648e+02  6.4265112551600237e+02  7.4985404786685194e+02  8.5708865827237355e+02  9.6436121013251852e+02  1.0716778375370711e+03  1.1790447419144259e+03  1.2864683023962455e+03  1.3939551539394588e+03  1.5015122504916872e+03  1.6091469217996098e+03  1.7168669284376788e+03  1.8246805177431088e+03  1.9325964824365255e+03  2.0406242232734455e+03  2.1487738168810424e+03  2.2570560898807635e+03  2.3654827004277618e+03  2.4740662283882025e+03  2.5828202755136240e+03  2.6917595771539027e+03  2.8009001272781002e+03  2.9102593188491219e+03  3.0198561019304916e+03  3.1297111622992334e+03  3.2398471238081338e+03  3.3502887782944726e+03  3.4610633474818746e+03  3.5722007820784011e+03  3.6837341041439258e+03  3.7956997997829299e+03  3.9081382702966316e+03  4.0210943510519719e+03  4.1346179083868074e+03  4.2487645256574724e+03  4.3635962896469682e+03  4.4791826872567344e+03  4.5956016183628753e+03  4.7129405215424786e+03  4.8312975907108075e+03  4.9507830246950098e+03  5.0715201840221443e+03  5.1936464031646919e+03  5.3173129727582218e+03  5.4426833719543492e+03  5.5699280202145519e+03  5.6992122972056859e+03  5.8306717247815641e+03  5.9643629179629033e+03  6.1001698024917032e+03  6.2376332644383638e+03  6.3756793795769554e+03  6.5123207816665990e+03  6.6446589127219186e+03  6.7692326296519168e+03  6.8793752377858709e+03  6.9567122558204028e+03  6.9924328193249667e+03  7.0228644802688423e+03  7.0530516892467858e+03  7.0830465234640506e+03  7.1126172466480530e+03  7.1476984727571216e+03  7.1888112571297879e+03  7.2288515125979884e+03  7.2736319532565612e+03  7.3242538687664164e+03  7.3765995660246390e+03  7.4311180321957772e+03  7.4889422753016988e+03  7.5513986011468505e+03  7.6199549620506532e+03  7.6940809046344239e+03  7.7708684065029829e+03  7.8513163034422578e+03  7.9343841839746874e+03  8.0176473611743813e+03  8.0958203842730927e+03  8.1660919390781974e+03  8.2388342079153936e+03  8.3245536003716188e+03  8.4244444422344277e+03  8.5292956812791108e+03  8.6269389877503781e+03  8.7089865861908256e+03  1.2059152989176459e+04  1.2156661694761502e+04  1.2266375579915508e+04  9.0491421815928825e+03  9.1654583913008755e+03  1.2700402156558506e+04  9.3415071319017115e+03  9.4310786393572380e+03  1.3038803976786825e+04  1.3115334595241748e+04  1.3196715710503904e+04  9.6932271675227039e+03  1.3437489068871162e+04  1.3572730450871570e+04  1.3682260023154086e+04  1.3784947379217252e+04  1.3885811396788538e+04  1.4002873906607943e+04  1.4141531791721263e+04  1.4262642044797101e+04  1.4356658486982849e+04  1.4456774488251340e+04  1.4564495403778981e+04  1.0696792745661445e+04  1.4783310964114533e+04  1.0845208367435242e+04  1.4985482498965663e+04  1.5062775509037094e+04  1.1032643688745160e+04  1.5224504648309514e+04  1.5282483685227953e+04  1.5342578067198612e+04  1.5404239418812840e+04  1.5466090306531525e+04  1.1322520289204254e+04  1.1386019469816227e+04  1.1455186715886466e+04  1.5803841270666533e+04  1.1566740255308123e+04  1.1621440105658352e+04  1.6018015277651204e+04  1.1714213858323965e+04  1.1748643040338720e+04  1.6180292593150498e+04  1.6248543660513511e+04  1.1885330890159907e+04  1.6378277905796442e+04  1.6443856697939129e+04  1.2041463920222830e+04  1.6598075238417074e+04  1.6653751803866093e+04  1.2181902571193039e+04  1.2233331375832448e+04  1.2284737937700156e+04  1.6923977434647251e+04  1.2379451775951922e+04  1.2431429503100007e+04  1.7115747870147137e+04  1.2513095555374557e+04  1.7239353125082194e+04  1.7297929611030238e+04  1.7359745543359950e+04  1.7419722398432681e+04  1.2742499329290731e+04  1.7557466247250049e+04  1.2842406584604019e+04  1.7699297685782421e+04  1.7761704298274555e+04  1.2997175281704269e+04  1.3061825536195784e+04  1.8001013829494248e+04  1.8063267398934102e+04  1.8130748134736095e+04  1.8189144301273242e+04  1.3289720094012444e+04  1.8296453776146525e+04  1.3379623216248610e+04  1.3428241322666898e+04  1.3467791451620247e+04  1.3508259784977932e+04  1.3549572057730900e+04  1.3588082588021325e+04  1.3628280134061148e+04  1.3682034649938822e+04  1.3747594857571034e+04  1.3783309579752971e+04  1.3823072085085712e+04  1.3861623374270846e+04  1.3904999189866830e+04  1.3954080453392480e+04  1.3979168028728589e+04  1.4007331648068144e+04  1.4037525327135983e+04  1.4075886926525644e+04  1.4124294083848674e+04  1.4152741807385926e+04  1.4187273964488008e+04  1.4231063055202159e+04  1.4259045046707628e+04  1.9606864983733267e+04  1.4323053790146903e+04  1.4352783989439069e+04  1.9727166528947331e+04  1.4391649831646482e+04  1.4416909546440438e+04  1.9814436370627056e+04  1.4454545104473875e+04  1.4476617930314555e+04  1.9893590929196791e+04  1.9909919141786824e+04  1.4520697597078599e+04  1.9959093411411497e+04  1.9988220783056771e+04  1.4575724091702268e+04  1.4597927550204198e+04  1.4615517446397851e+04  2.0086552287718932e+04  1.4652607503205638e+04  1.4672743244058543e+04  1.4689408172869213e+04  2.0184743190008565e+04  1.4717093803910631e+04  1.4737761612609593e+04  1.4754829507618546e+04  1.4771090766326732e+04  1.4785245208879582e+04  1.4796937617509700e+04  1.4814412037788617e+04  1.4830517319680037e+04  1.4847575691901166e+04  1.4865968460265169e+04  1.4884355250355415e+04  1.4902210683922294e+04  1.4919508658803206e+04  1.4936160132853869e+04  1.4952748857105964e+04  1.4970569878560351e+04  1.4988862301930672e+04  1.5006887111892425e+04  1.5024112889232800e+04  1.5040399654506484e+04  1.5056902025297937e+04  1.5072453668622060e+04  1.5083964484833632e+04  1.5097856732012307e+04  1.5113573029325615e+04  2.0765496088874985e+04  2.0783062183321716e+04  2.0802781393986170e+04  2.0823373064075378e+04  2.0822269381396549e+04  2.0821509803480967e+04  2.0820802077173859e+04  2.0820084563368575e+04  2.0819351471719525e+04  2.0818607872845219e+04  2.0817860411427035e+04  2.0817115435519048e+04  2.0816378593754365e+04  2.0815654768885863e+04  2.0814948103990977e+04  2.0814262055625150e+04  2.0813599454403680e+04  2.0812962567190472e+04  2.0812353158771759e+04  2.0811772551700895e+04  2.0811221683218599e+04  2.0810701158369400e+04  2.0810211298708600e+04  2.0809752186275706e+04  2.0809323702757963e+04  2.0808925563959769e+04  2.0808557349830618e+04  2.0808218530390728e+04  2.0807908487939469e+04  2.0807626535948464e+04  2.0807371935035069e+04  2.0807143906393223e+04  2.0806941643029742e+04  2.0806764319122500e+04  2.0806611097782021e+04  2.0806481137465227e+04  2.0806373597257865e+04  2.0806287641213261e+04  2.0806222441908598e+04  2.0806177183356314e+04  2.0806151063388359e+04  2.0806143295612699e+04  2.0806153111026455e+04  2.0806179759357496e+04  2.0806222510194482e+04  2.0806280653957303e+04  2.0806353502751237e+04  2.0806440391142627e+04  2.0806540676888468e+04  2.0806653741648275e+04  2.0806778991703992e+04  2.0806915858710807e+04  2.0807063800500877e+04  2.0807222301960945e+04  2.0807390876004851e+04  2.0807569064662388e+04  2.0807756440307770e+04  2.0807952607052488e+04  2.0808157202330225e+04  2.0808369898705572e+04  2.0808590405942563e+04  2.0808818473374635e+04  2.0809053892625110e+04  2.0809296500734967e+04  2.0809546183765277e+04  2.0809802880952488e+04  2.0810066589508773e+04  2.0810337370174366e+04  2.0810615353644887e+04  2.0810900748013060e+04  2.0811193847378247e+04  2.0811495041784998e+04  2.0811804828644770e+04  2.0812123825760013e+04  2.0812452785980342e+04  2.0812792613333782e+04  2.0813144380114732e+04  2.0813509343742644e+04  2.0813888961012119e+04  2.0814284895279023e+04  2.0814699008647061e+04  2.0815133325747040e+04  2.0815589948256536e+04  2.0816070892905616e+04  2.0816577832251955e+04  2.0817111763739471e+04  2.0817672745486609e+04  2.0818260153961568e+04  2.0818877416010822e+04  2.0819583532209159e+04  2.0820876712822581e+04  2.0800232147731866e+04  2.0799673801825778e+04  2.0799040440104978e+04  2.0798425119123705e+04  2.0797834880459108e+04  2.0797272113648982e+04  2.0796738216963509e+04  2.0796232810470032e+04  2.0795754285743980e+04  2.0795300453539614e+04  2.0794868961263815e+04  2.0794457519995209e+04  2.0794064015213906e+04  2.0793686552176623e+04  2.0793323466136324e+04  2.0792973314628882e+04  2.0792634861450420e+04  2.0792307057578480e+04  2.0791989021804107e+04  2.0791680022444347e+04  2.0791379460732769e+04  2.0791086856069294e+04  2.0790801833095753e+04  2.0790524110461240e+04  2.0790253491100713e+04  2.0789989853842344e+04  2.0789733146167950e+04  2.0789483377967019e+04  2.0789240616143248e+04  2.0789004979951565e+04  2.0788776636960487e+04  2.0788555799550191e+04  2.0788342721870162e+04  2.0788137697191552e+04  2.0787941055599284e+04  2.0787753161976845e+04  2.0787574414243594e+04  2.0787405241809829e+04  2.0787246104219430e+04  2.0787097489953321e+04  2.0786959915369760e+04  2.0786833923759492e+04  2.0786720084494958e+04  2.0786618992253549e+04  2.0786531266294583e+04  2.0786457549769246e+04  2.0786398509041312e+04  2.0786354832994155e+04  2.0786327232296866e+04  2.0786316438598307e+04  2.0786323203613076e+04  2.0786348298057484e+04  2.0786392510386155e+04  2.0786456645270908e+04  2.0786541521753290e+04  2.0786647970989066e+04  2.0786776833488508e+04  2.0786928955738542e+04  2.0787105186072957e+04  2.0787306369633385e+04  2.0787533342237410e+04  2.0787786922940828e+04  2.0788067905048014e+04  2.0788377045289752e+04  2.0788715050851188e+04  2.0789082563896460e+04  2.0789480143202964e+04  2.0789908242491667e+04  2.0790367185025127e+04  2.0790857134048834e+04  2.0791378058684306e+04  2.0791929694954055e+04  2.0792511501743011e+04  2.0793122611690214e+04  2.0793761777268279e+04  2.0794427312642263e+04  2.0795117032268627e+04  2.0795828187497475e+04  2.0796557402450078e+04  2.0797300609776394e+04  2.0798052985230966e+04  2.0798808878037526e+04  2.0799561732595721e+04  2.0800303958732457e+04  2.0801026250390809e+04  2.0801712786227843e+04  2.0802315820309872e+04  2.0802672512271856e+04  2.0780200997223576e+04  2.0779724238008897e+04  2.0779134682282503e+04  2.0778501880786825e+04  2.0777892369156401e+04  2.0777322506758595e+04  2.0776791462694055e+04  2.0776294629956388e+04  2.0775827256934997e+04  2.0775385241296757e+04  2.0774965182746189e+04  2.0774564276597641e+04  2.0774180198288846e+04  2.0773811009795758e+04  2.0773455088571860e+04  2.0773111073828408e+04  2.0772777825264315e+04  2.0772454390676692e+04  2.0772139980022286e+04  2.0771833944291237e+04  2.0771535758069211e+04  2.0771245004994402e+04  2.0770961365530780e+04  2.0770684606623014e+04  2.0770414572897618e+04  2.0770151179146400e+04  2.0769894403880800e+04  2.0769644283786081e+04  2.0769400908935211e+04  2.0769164418647175e+04  2.0768934997894088e+04  2.0768712874177607e+04  2.0768498314807915e+04  2.0768291624529491e+04  2.0768093143446295e+04  2.0767903245206380e+04  2.0767722335411690e+04  2.0767550850223473e+04  2.0767389255137794e+04  2.0767238043908535e+04  2.0767097737597487e+04  2.0766968883733130e+04  2.0766852055560652e+04  2.0766747851366170e+04  2.0766656893858624e+04  2.0766579829591552e+04  2.0766517328406597e+04  2.0766470082878212e+04  2.0766438807736999e+04  2.0766424239245567e+04  2.0766427134496913e+04  2.0766448270599918e+04  2.0766488443710521e+04  2.0766548467858920e+04  2.0766629173514211e+04  2.0766731405816288e+04  2.0766856022391465e+04  2.0767003890652089e+04  2.0767175884461412e+04  2.0767372880022522e+04  2.0767595750823486e+04  2.0767845361440719e+04  2.0768122559966650e+04  2.0768428168787963e+04  2.0768762973395129e+04  2.0769127708855092e+04  2.0769523043525434e+04  2.0769949559535631e+04  2.0770407729509578e+04  2.0770897888962307e+04  2.0771420203780199e+04  2.0771974632202833e+04  2.0772560880787019e+04  2.0773178353981180e+04  2.0773826097216981e+04  2.0774502733900488e+04  2.0775206397419748e+04  2.0775934660254978e+04  2.0776684463023666e+04  2.0777452044846465e+04  2.0778232866171133e+04  2.0779021476697741e+04  2.077