<?xml version="1.0"?>
<VTKFile type="UnstructuredGrid"  version="0.1"  >
<UnstructuredGrid>
<Piece  NumberOfPoints="21600" NumberOfCells="42542">
<Points>
<DataArray  type="Float64"  NumberOfComponents="3"  format="ascii">0 0 0  0.77 0 0  0.77 0.15 0  0 0.15 0  0.003221757322170014 0 0  0.006443514644340046 0 0  0.009665271966510193 0 0  0.01288702928868034 0 0  0.01610878661085048 0 0  0.01933054393302049 0 0  0.02255230125519027 0 0  0.02577405857735967 0 0  0.02899581589952872 0 0  0.03221757322169801 0 0  0.03543933054386744 0 0  0.03866108786603686 0 0  0.04188284518820627 0 0  0.0451046025103757 0 0  0.04832635983254521 0 0  0.05154811715471607 0 0  0.05476987447688695 0 0  0.05799163179905782 0 0  0.06121338912122846 0 0  0.06443514644339859 0 0  0.06765690376556875 0 0  0.0708786610877389 0 0  0.07410041840990904 0 0  0.0773221757320792 0 0  0.08054393305425039 0 0  0.08376569037642198 0 0  0.0869874476985936 0 0  0.09020920502076518 0 0  0.0934309623429339 0 0  0.0966527196651024 0 0  0.09987447698726967 0 0  0.1030962343094369 0 0  0.1063179916316041 0 0  0.1095397489537714 0 0  0.1127615062759386 0 0  0.1159832635981051 0 0  0.1192050209202709 0 0  0.1224267782424358 0 0  0.1256485355646001 0 0  0.1288702928867644 0 0  0.1320920502089288 0 0  0.1353138075310958 0 0  0.1385355648532632 0 0  0.1417573221754333 0 0  0.1449790794976035 0 0  0.1482008368197736 0 0  0.1514225941419428 0 0  0.1546443514641101 0 0  0.157866108786276 0 0  0.1610878661084403 0 0  0.1643096234306047 0 0  0.167531380752769 0 0  0.1707531380749333 0 0  0.1739748953970977 0 0  0.177196652719262 0 0  0.1804184100414264 0 0  0.1836401673635935 0 0  0.1868619246857611 0 0  0.1900836820079313 0 0  0.1933054393301014 0 0  0.1965271966522716 0 0  0.1997489539744406 0 0  0.2029707112966078 0 0  0.2061924686187736 0 0  0.209414225940938 0 0  0.2126359832631022 0 0  0.2158577405852666 0 0  0.219079497907431 0 0  0.2223012552295953 0 0  0.2255230125517597 0 0  0.2287447698739242 0 0  0.2319665271960914 0 0  0.2351882845182592 0 0  0.2384100418404293 0 0  0.2416317991625994 0 0  0.2448535564847696 0 0  0.2480753138069371 0 0  0.2512970711291014 0 0  0.2545188284512658 0 0  0.2577405857734302 0 0  0.2609623430955986 0 0  0.2641841004177688 0 0  0.2674058577399389 0 0  0.270627615062109 0 0  0.2738493723842792 0 0  0.2770711297064487 0 0  0.280292887028613 0 0  0.2835146443507774 0 0  0.2867364016729417 0 0  0.2899581589951061 0 0  0.2931799163172705 0 0  0.2964016736394348 0 0  0.2996234309615992 0 0  0.3028451882837672 0 0  0.3060669456059373 0 0  0.3092887029281075 0 0  0.3125104602502776 0 0  0.3157322175724478 0 0  0.3189539748946177 0 0  0.322175732216782 0 0  0.3253974895389464 0 0  0.3286192468611107 0 0  0.3318410041832751 0 0  0.3350627615054395 0 0  0.3382845188276038 0 0  0.3415062761497681 0 0  0.3447280334719325 0 0  0.3479497907940968 0 0  0.3511715481162612 0 0  0.3543933054384255 0 0  0.3576150627605947 0 0  0.3608368200827649 0 0  0.364058577404935 0 0  0.3672803347271051 0 0  0.3705020920492753 0 0  0.373723849371444 0 0  0.3769456066936084 0 0  0.3801673640157748 0 0  0.383389121337945 0 0  0.3866108786601209 0 0  0.3898326359823028 0 0  0.3930543933044846 0 0  0.3962761506266662 0 0  0.399497907948848 0 0  0.4027196652710298 0 0  0.4059414225932116 0 0  0.4091631799153934 0 0  0.4123849372375751 0 0  0.4156066945597569 0 0  0.4188284518819387 0 0  0.4220502092041222 0 0  0.4252719665263097 0 0  0.4284937238484974 0 0  0.4317154811706849 0 0  0.4349372384928725 0 0  0.4381589958150601 0 0  0.4413807531372476 0 0  0.4446025104594352 0 0  0.4478242677816181 0 0  0.4510460251037998 0 0  0.4542677824259815 0 0  0.4574895397481634 0 0  0.4607112970703451 0 0  0.4639330543925269 0 0  0.4671548117147087 0 0  0.4703765690368904 0 0  0.4735983263590722 0 0  0.4768200836812568 0 0  0.4800418410034444 0 0  0.483263598325632 0 0  0.4864853556478196 0 0  0.4897071129700028 0 0  0.4929288702921845 0 0  0.4961506276143663 0 0  0.4993723849365479 0 0  0.5025941422587239 0 0  0.5058158995809008 0 0  0.5090376569030826 0 0  0.5122594142252677 0 0  0.515481171547461 0 0  0.5187029288696494 0 0  0.5219246861918312 0 0  0.525146443514013 0 0  0.5283682008361947 0 0  0.5315899581583845 0 0  0.5348117154805778 0 0  0.5380334728027617 0 0  0.5412552301249435 0 0  0.5444769874471141 0 0  0.5476987447692853 0 0  0.550920502091467 0 0  0.5541422594136513 0 0  0.5573640167358447 0 0  0.560585774058034 0 0  0.5638075313802158 0 0  0.5670292887023975 0 0  0.5702510460245793 0 0  0.5734728033467682 0 0  0.5766945606689615 0 0  0.579916317991155 0 0  0.5831380753133483 0 0  0.5863598326355314 0 0  0.5895815899577131 0 0  0.5928033472798949 0 0  0.5960251046020785 0 0  0.5992468619242718 0 0  0.6024686192464619 0 0  0.6056903765686437 0 0  0.6089121338908206 0 0  0.6121338912129908 0 0  0.6153556485351673 0 0  0.618577405857349 0 0  0.6217991631795386 0 0  0.625020920501732 0 0  0.6282426778239159 0 0  0.6314644351460976 0 0  0.6346861924682795 0 0  0.6379079497904622 0 0  0.6411297071126555 0 0  0.6443514644348465 0 0  0.6475732217570283 0 0  0.650794979079206 0 0  0.6540167364013761 0 0  0.6572384937235518 0 0  0.6604602510457335 0 0  0.6636820083679225 0 0  0.6669037656901158 0 0  0.6701255230123004 0 0  0.6733472803344823 0 0  0.6765690376566641 0 0  0.6797907949788459 0 0  0.6830125523010393 0 0  0.686234309623231 0 0  0.6894560669454127 0 0  0.6926778242675914 0 0  0.6958995815897615 0 0  0.6991213389119363 0 0  0.7023430962341181 0 0  0.7055648535563062 0 0  0.7087866108784994 0 0  0.712008368200685 0 0  0.7152301255228668 0 0  0.7184518828450486 0 0  0.7216736401672305 0 0  0.724895397489423 0 0  0.7281171548116155 0 0  0.7313389121337973 0 0  0.7345606694559768 0 0  0.7377824267781468 0 0  0.7410041841003209 0 0  0.7442259414225026 0 0  0.7474476987446899 0 0  0.7506694560668832 0 0  0.7538912133890696 0 0  0.7571129707112513 0 0  0.760334728033433 0 0  0.7635564853556149 0 0  0.7667782426778067 0 0  0.77 0.001685393258423789 0  0.77 0.003370786516847669 0  0.77 0.005056179775271247 0  0.77 0.006741573033694517 0  0.77 0.008426966292117821 0  0.77 0.01011235955054176 0  0.77 0.01179775280896623 0  0.77 0.0134831460673904 0  0.77 0.01516853932581489 0  0.77 0.01685393258423891 0  0.77 0.01853932584266291 0  0.77 0.02022471910108589 0  0.77 0.02191011235950794 0  0.77 0.02359550561792999 0  0.77 0.02528089887635205 0  0.77 0.02696629213477411 0  0.77 0.02865168539319714 0  0.77 0.03033707865161956 0  0.77 0.03202247191004162 0  0.77 0.03370786516846367 0  0.77 0.03539325842688572 0  0.77 0.03707865168530778 0  0.77 0.03876404494372984 0  0.77 0.0404494382021519 0  0.77 0.04213483146057394 0  0.77 0.04382022471899601 0  0.77 0.04550561797741807 0  0.77 0.04719101123584013 0  0.77 0.04887640449426219 0  0.77 0.05056179775268425 0  0.77 0.0522471910111063 0  0.77 0.05393258426952837 0  0.77 0.05561797752795105 0  0.77 0.05730337078637505 0  0.77 0.05898876404479723 0  0.77 0.0606741573032193 0  0.77 0.06235955056164135 0  0.77 0.06404494382006341 0  0.77 0.06573033707848548 0  0.77 0.06741573033690752 0  0.77 0.06910112359532959 0  0.77 0.07078651685375165 0  0.77 0.0724719101121737 0  0.77 0.07415730337059653 0  0.77 0.07584269662902443 0  0.77 0.07752808988745429 0  0.77 0.07921348314588413 0  0.77 0.08089887640431678 0  0.77 0.08258426966274923 0  0.77 0.08426966292117907 0  0.77 0.08595505617960987 0  0.77 0.08764044943804362 0  0.77 0.08932584269647403 0  0.77 0.09101123595490389 0  0.77 0.09269662921333673 0  0.77 0.09438202247176901 0  0.77 0.09606741573019884 0  0.77 0.09775280898862983 0  0.77 0.09943820224706355 0  0.77 0.1011235955054938 0  0.77 0.1028089887639236 0  0.77 0.1044943820223567 0  0.77 0.1061797752807888 0  0.77 0.1078651685392186 0  0.77 0.1095505617976498 0  0.77 0.1112359550560835 0  0.77 0.1129213483145136 0  0.77 0.1146067415729456 0  0.77 0.1162921348313787 0  0.77 0.1179775280898085 0  0.77 0.1196629213482387 0  0.77 0.1213483146066724 0  0.77 0.1230337078651035 0  0.77 0.1247191011235322 0  0.77 0.1264044943819605 0  0.77 0.1280898876403903 0  0.77 0.1297752808988242 0  0.77 0.1314606741572554 0  0.77 0.1331460674156853 0  0.77 0.1348314606741154 0  0.77 0.1365168539325504 0  0.77 0.1382022471909802 0  0.77 0.13988764044941 0  0.77 0.1415730337078443 0  0.77 0.1432584269662752 0  0.77 0.144943820224705 0  0.77 0.1466292134831355 0  0.77 0.1483146067415701 0  0.7667782426778414 0.15 0  0.7635564853556813 0.15 0  0.7603347280335111 0.15 0  0.757112970711341 0.15 0  0.7538912133891708 0.15 0  0.7506694560670005 0.15 0  0.7474476987448303 0.15 0  0.7442259414226602 0.15 0  0.74100418410049 0.15 0  0.7377824267783197 0.15 0  0.7345606694561496 0.15 0  0.7313389121339794 0.15 0  0.7281171548118092 0.15 0  0.724895397489639 0.15 0  0.7216736401674688 0.15 0  0.7184518828452986 0.15 0  0.7152301255231284 0.15 0  0.7120083682009583 0.15 0  0.708786610878788 0.15 0  0.7055648535566178 0.15 0  0.7023430962344477 0.15 0  0.6991213389122775 0.15 0  0.6958995815901072 0.15 0  0.692677824267937 0.15 0  0.6894560669457669 0.15 0  0.6862343096235967 0.15 0  0.6830125523014264 0.15 0  0.6797907949792563 0.15 0  0.6765690376570861 0.15 0  0.6733472803349159 0.15 0  0.6701255230127456 0.15 0  0.6669037656905755 0.15 0  0.6636820083684053 0.15 0  0.6604602510462351 0.15 0  0.657238493724065 0.15 0  0.6540167364018947 0.15 0  0.6507949790797245 0.15 0  0.6475732217575543 0.15 0  0.644351464435384 0.15 0  0.6411297071132231 0.15 0  0.6379079497910645 0.15 0  0.634686192468906 0.15 0  0.6314644351467468 0.15 0  0.6282426778245765 0.15 0  0.6250209205024085 0.15 0  0.62179916318025 0.15 0  0.6185774058580914 0.15 0  0.6153556485359328 0.15 0  0.6121338912137689 0.15 0  0.6089121338915987 0.15 0  0.6056903765694354 0.15 0  0.6024686192472768 0.15 0  0.5992468619251182 0.15 0  0.5960251046029597 0.15 0  0.5928033472807912 0.15 0  0.589581589958621 0.15 0  0.5863598326364508 0.15 0  0.5831380753142792 0.15 0  0.5799163179920974 0.15 0  0.57669456
[...]
<PointData  Scalars="pressure"> 
<DataArray  type="Float64"  Name="pressure"  format="ascii">3.3614574334312965e+04  2.1666022558268390e+00  -1.6077995605548201e+00  3.3611030866648376e+04  3.3588691244539652e+04  3.3568969222072708e+04  3.3551502082683313e+04  2.4423882028337408e+04  2.4406845337113773e+04  2.4391297169032059e+04  2.4375727474930507e+04  2.4359980722958589e+04  2.4341490397336089e+04  2.4293432811158506e+04  2.4188387177852288e+04  2.4083475127722100e+04  2.3978074269057339e+04  2.3872433815495340e+04  2.3766663043540699e+04  2.3660813829748084e+04  2.3554913786262292e+04  2.3448978863409549e+04  2.3343018892130713e+04  2.3237040240741797e+04  2.3131047197134638e+04  2.3025042739652785e+04  2.2919028991330193e+04  2.2813007499670031e+04  2.2706979415356873e+04  2.2600945609925420e+04  2.2494906755234497e+04  2.2388863378309386e+04  2.2282815899878507e+04  2.2176764661866659e+04  2.2070709947259955e+04  2.1964651994607677e+04  2.1858591008697440e+04  2.1752527168463708e+04  2.1646460632874023e+04  2.1540391545323469e+04  2.1434320036920464e+04  2.1328246228944212e+04  2.1222170234680507e+04  2.1116092160790420e+04  2.1010012108327366e+04  2.0903930173490251e+04  2.0797846448179258e+04  2.0691761020404072e+04  2.0585673974584082e+04  2.0479585391768676e+04  2.0373495349800985e+04  2.0267403923441176e+04  2.0161311184462222e+04  2.0055217201727803e+04  1.9949122041258786e+04  1.9843025766293929e+04  1.9736928437347753e+04  1.9630830112268421e+04  1.9524730846296985e+04  1.9418630692129111e+04  1.9312529699979397e+04  1.9206427917649147e+04  1.9100325390596314e+04  1.8994222162008547e+04  1.8888118272877986e+04  1.8782013762077993e+04  1.8675908666440981e+04  1.8569803020836967e+04  1.8463696858252490e+04  1.8357590209869330e+04  1.8251483105142641e+04  1.8145375571878256e+04  1.8039267636308556e+04  1.7933159323167027e+04  1.7827050655760937e+04  1.7720941656042043e+04  1.7614832344675495e+04  1.7508722741106005e+04  1.7402612863622242e+04  1.7296502729418346e+04  1.7190392354653417e+04  1.7084281754508240e+04  1.6978170943239591e+04  1.6872059934232580e+04  1.6765948740049891e+04  1.6659837372479458e+04  1.6553725842579130e+04  1.6447614160719335e+04  1.6341502336623646e+04  1.6235390379407245e+04  1.6129278297613342e+04  1.6023166099247188e+04  1.5917053791809078e+04  1.5810941382324916e+04  1.5704828877375186e+04  1.5598716283122385e+04  1.5492603605336715e+04  1.5386490849420356e+04  1.5280378020430579e+04  1.5174265123101140e+04  1.5068152161862463e+04  1.4962039140860717e+04  1.4855926063975789e+04  1.4749812934838179e+04  1.4643699756844342e+04  1.4537586533172025e+04  1.4431473266794026e+04  1.4325359960491220e+04  1.4219246616864870e+04  1.4113133238348040e+04  1.4007019827216462e+04  1.3900906385598584e+04  1.3794792915485054e+04  1.3688679418737580e+04  1.3582565897097122e+04  1.3476452352192069e+04  1.3370338785545238e+04  1.3264225198580683e+04  1.3158111592630192e+04  1.3051997968939308e+04  1.2945884328672924e+04  1.2839770672920220e+04  1.2733657002700014e+04  1.2627543318965227e+04  1.2521429622607247e+04  1.2415315914460116e+04  1.2309202195303915e+04  1.2203088465868503e+04  1.2096974726836805e+04  1.1990860978847955e+04  1.1884747222500180e+04  1.1778633458353512e+04  1.1672519686932344e+04  1.1566405908727833e+04  1.1460292124200068e+04  1.1354178333780203e+04  1.1248064537872642e+04  1.1141950736856581e+04  1.1035836931087819e+04  1.0929723120900415e+04  1.0823609306608208e+04  1.0717495488506242e+04  1.0611381666872281e+04  1.0505267841967641e+04  1.0399154014038731e+04  1.0293040183318155e+04  1.0186926350025737e+04  1.0080812514369492e+04  9.9746986765466299e+03  9.8685848367444123e+03  9.7624709951410350e+03  9.6563571519063335e+03  9.5502433072027616e+03  9.4441294611861249e+03  9.3380156140061008e+03  9.2319017658071771e+03  9.1257879167289102e+03  9.0196740669068495e+03  8.9135602164731899e+03  8.8074463655574455e+03  8.7013325142865178e+03  8.5952186627857336e+03  8.4891048111795044e+03  8.3829909595915178e+03  8.2768771081460727e+03  8.1707632569677216e+03  8.0646494061818948e+03  7.9585355559159589e+03  7.8524217062993466e+03  7.7463078574647743e+03  7.6401940095487271e+03  7.5340801626911389e+03  7.4279663170371850e+03  7.3218524727367412e+03  7.2157386299457912e+03  7.1096247888276321e+03  7.0035109495525703e+03  6.8973971122997727e+03  6.7912832772571046e+03  6.6851694446219326e+03  6.5790556146025665e+03  6.4729417874187502e+03  6.3668279633031525e+03  6.2607141425021391e+03  6.1546003252766886e+03  6.0484865119039741e+03  5.9423727026776824e+03  5.8362588979101638e+03  5.7301450979335841e+03  5.6240313031012292e+03  5.5179175137899874e+03  5.4118037304011477e+03  5.3056899533622136e+03  5.1995761831293603e+03  5.0934624201889701e+03  4.9873486650609157e+03  4.8812349183005808e+03  4.7751211805020375e+03  4.6690074523012217e+03  4.5628937343784582e+03  4.4567800274631236e+03  4.3506663323378516e+03  4.2445526498430772e+03  4.1384389808835740e+03  4.0323253264338509e+03  3.9262116875452052e+03  3.8200980653548149e+03  3.7139844610947439e+03  3.6078708761044154e+03  3.5017573118438559e+03  3.3956437699101302e+03  3.2895302520570626e+03  3.1834167602179182e+03  3.0773032965348320e+03  2.9711898633939950e+03  2.8650764634686307e+03  2.7589630997741106e+03  2.6528497757344990e+03  2.5467364952673615e+03  2.4406232628928674e+03  2.3345100838715507e+03  2.2283969643848204e+03  2.1222839117694675e+03  2.0161709348279101e+03  1.9100580442438841e+03  1.8039452531451564e+03  1.6978325778807273e+03  1.5917200391101112e+03  1.4856076633606017e+03  1.3794954853069057e+03  1.2733835511911127e+03  1.1672719241137920e+03  1.0611606925154986e+03  9.5504998435034520e+02  8.4893999205039768e+02  7.4283101938066125e+02  6.3672357429193187e+02  5.3061857454713129e+02  4.2451809701711613e+02  3.1842785687377460e+02  2.1234736227431449e+02  1.0626286430594999e+02  4.5046823581852791e-01  2.3100344016820686e-02  4.8791014604107749e-03  2.9867284860920040e-03  1.7092898997208450e-03  1.0061424497952362e-03  6.2985563747949217e-04  4.1632734957313278e-04  2.8783782879244466e-04  2.0657466347143258e-04  1.5295640098709776e-04  1.1627655037123494e-04  9.0396436144255375e-05  7.1644941646851619e-05  5.7743255695000525e-05  4.7229497459789193e-05  3.9138174042687709e-05  3.2814977713037302e-05  2.7806204963054885e-05  2.3790746526042180e-05  2.0537127432009931e-05  1.7875707907667253e-05  1.5680296627352549e-05  1.3855746011906631e-05  1.2329430165536921e-05  1.1045292718096403e-05  9.9596262503361895e-06  9.0380374063794573e-06  8.2532369239246680e-06  7.5834109741591070e-06  7.0110080894483027e-06  6.5218265670563051e-06  6.1043216753351194e-06  5.7490755854753960e-06  5.4483886950764002e-06  5.1959628468145806e-06  4.9866544861580025e-06  4.8162816810508303e-06  4.6814732908752360e-06  4.5795512309472612e-06  4.5084392280737396e-06  4.4665931210633289e-06  4.4529490280501500e-06  4.4668866254673323e-06  4.5082058653790082e-06  4.5771156014294558e-06  4.6742335715067434e-06  4.8005976971227578e-06  4.9576889149219998e-06  5.1474661848212632e-06  5.3724155371047351e-06  5.6356145618559425e-06  5.9408156171847101e-06  6.2925510556865368e-06  6.6962654622472328e-06  7.1584812942948245e-06  7.6870057599632625e-06  8.2911902365457214e-06  8.9822556273677042e-06  9.7737025960394512e-06  1.0681830862736501e-05  1.1726399829269056e-05  1.2931473860572717e-05  1.4326510105761420e-05  1.5947767309194310e-05  1.7840141734374019e-05  2.0059575316748467e-05  2.2676234239469080e-05  2.5778729778635979e-05  2.9479753651862153e-05  3.3923634402597112e-05  3.9296495435535687e-05  4.5839903115899352e-05  5.3869103476827085e-05  6.3797041352870224e-05  7.6165037140917810e-05  9.1679489876881479e-05  1.1124947755412257e-04  1.3600884843737446e-04  1.6728428140745053e-04  2.0646382054705673e-04  2.5500353124848825e-04  3.1832130476713280e-04  4.7556269912816797e-04  1.9544231583502182e-03  1.8162105650618390e-02  1.2963224211576085e-01  7.3269157340802013e-02  1.0523580927106600e+02  2.1203697709427638e+02  3.1820840877921233e+02  4.2435122213774918e+02  5.3048623770862366e+02  6.3661428468738620e+02  7.4273827093831710e+02  8.4885975344976339e+02  9.5497956574550290e+02  1.0610982072826082e+03  1.1672159961720017e+03  1.2733331443138570e+03  1.3794497982655723e+03  1.4855660626199028e+03  1.5916820140236371e+03  1.6977977099343568e+03  1.8039131942828797e+03  1.9100285012453319e+03  2.0161436578218452e+03  2.1222586856398511e+03  2.2283736022407161e+03  2.3344884220142189e+03  2.4406031568881713e+03  2.5467178168446894e+03  2.6528324103117443e+03  2.7589469444636306e+03  2.8650614254540174e+03  2.9711758585985472e+03  3.0772902485191885e+03  3.1834045992593133e+03  3.2895189143762104e+03  3.3956331970159722e+03  3.5017474499745927e+03  3.6078616757480704e+03  3.7139758765738602e+03  3.8200900544653218e+03  3.9262042112405065e+03  4.0323183485464015e+03  4.1384324678794401e+03  4.2445465706026262e+03  4.3506606579612953e+03  4.4567747310952464e+03  4.5628887910499407e+03  4.6690028387864586e+03  4.7751168751888545e+03  4.8812309010724439e+03  4.9873449171906559e+03  5.0934589242399115e+03  5.1995729228651953e+03  5.3056869136642681e+03  5.4118008971914314e+03  5.5179148739621160e+03  5.6240288444557827e+03  5.7301428091186381e+03  5.8362567683668231e+03  5.9423707225879652e+03  6.0484846721441963e+03  6.1545986173741176e+03  6.2607125585948233e+03  6.3668264961027799e+03  6.4729404301763298e+03  6.5790543610767609e+03  6.6851682890498423e+03  6.7912822143273434e+03  6.8973961371277182e+03  7.0035100576571540e+03  7.1096239761112301e+03  7.2157378926755464e+03  7.3218518075265183e+03  7.4279657208326680e+03  7.5340796327544595e+03  7.6401935434457182e+03  7.7463074530550957e+03  7.8524213617257747e+03  7.9585352695965430e+03  8.0646491768024180e+03  8.1707630834746633e+03  8.2768769897423754e+03  8.3829908957331518e+03  8.4891048015727974e+03  8.5952187073864825e+03  8.7013326132989368e+03  8.8074465194350178e+03  8.9135604259212505e+03  9.0196743328855446e+03  9.1257882404578777e+03  9.2319021487708724e+03  9.3380160579608200e+03  9.4441299681678684e+03  9.5502438795368125e+03  9.6563577922177465e+03  9.7624717063668031e+03  9.8685856221468202e+03  9.9746995397282408e+03  1.0080813459289604e+04  1.0186927381018502e+04  1.0293041305112562e+04  1.0399155231780247e+04  1.0505269161241853e+04  1.0611383093730317e+04  1.0717497029492844e+04  1.0823610968791501e+04  1.0929724911904610e+04  1.1035838859127993e+04  1.1141952810776391e+04  1.1248066767184881e+04  1.1354180728710404e+04  1.1460294695733450e+04  1.1566408668659789e+04  1.1672522647922346e+04  1.1778636633983355e+04  1.1884750627336058e+04  1.1990864628507343e+04  1.2096978638060140e+04  1.2203092656595969e+04  1.2309206684757703e+04  1.2415320723232498e+04  1.2521434772755383e+04  1.2627548834112158e+04  1.2733662908143229e+04  1.2839776995747430e+04  1.2945891097886051e+04  1.3052005215587718e+04  1.3158119349952971e+04  1.3264233502159375e+04  1.3370347673467051e+04  1.3476461865224534e+04  1.3582576078875061e+04  1.3688690315963340e+04  1.3794804578142805e+04  1.3900918867183391e+04  1.4007033184979853e+04  1.4113147533560455e+04  1.4219261915096846e+04  1.4325376331914224e+04  1.4431490786502351e+04  1.4537605281527343e+04  1.4643719819844368e+04  1.4749834404511143e+04  1.4855949038802932e+04  1.4962063726227938e+04  1.5068178470544202e+04  1.5174293275777842e+04  1.5280408146242464e+04  1.5386523086560212e+04  1.5492638101684342e+04  1.5598753196923453e+04  1.5704868377967783e+04  1.5810983650917160e+04  1.5917099022311404e+04  1.6023214499163150e+04  1.6129330088993045e+04  1.6235445799868101e+04  1.6341561640442638e+04  1.6447677620002702e+04  1.6553793748514032e+04  1.6659910036674624e+04  1.6766026495970607e+04  1.6872143138737145e+04  1.6978259978225040e+04  1.7084377028671795e+04  1.7190494305380649e+04  1.7296611824805375e+04  1.7402729604642274e+04  1.7508847663931414e+04  1.7614966023165947e+04  1.7721084704412333e+04  1.7827203731442831e+04  1.7933323129878270e+04  1.8039442927347322e+04  1.8145563153659412e+04  1.8251683840995323e+04  1.8357805024119032e+04  1.8463926740609382e+04  1.8570049031118695e+04  1.8676171939658514e+04  1.8782295513916433e+04  1.8888419805610167e+04  1.8994544870881669e+04  1.9100670770738885e+04  1.9206797571551378e+04  1.9312925345606865e+04  1.9419054171740489e+04  1.9525184136044441e+04  1.9631315332674305e+04  1.9737447864766382e+04  1.9843581845483837e+04  1.9949717399217021e+04  2.0055854662962043e+04  2.0161993787910833e+04  2.0268134941293702e+04  2.0374278308520152e+04  2.0480424095679904e+04  2.0586572532474827e+04  2.0692723875672920e+04  2.0798878413197501e+04  2.0905036468989299e+04  2.1011198408821587e+04  2.1117364647292470e+04  2.1223535656280263e+04  2.1329711975235688e+04  2.1435894223788855e+04  2.1542083117300401e+04  2.1648279486191754e+04  2.1754484300162210e+04  2.1860698698795888e+04  2.1966924030604023e+04  2.2073161903333581e+04  2.2179414249510060e+04  2.2285683412851831e+04  2.2391972263709486e+04  2.2498284355517415e+04  2.2604624140229476e+04  2.2710997270274685e+04  2.2817411030217747e+04  2.2923874967697102e+04  2.3030401839149337e+04  2.3137009068787222e+04  2.3243721075646852e+04  2.3350573133320013e+04  2.3457618085297046e+04  2.3564938747175333e+04  2.3672672077963198e+04  2.3781059453886079e+04  2.3890619180195150e+04  2.4003007465449697e+04  2.4120481724305435e+04  2.4214542843893640e+04  2.4265437786077473e+04  2.4310313138520898e+04  2.4346051870339907e+04  2.4375181948764086e+04  2.4396955517273112e+04  2.4410202966873072e+04  2.4426417175304148e+04  3.3550220468743464e+04  3.3568098311642738e+04  3.3588021854462851e+04  3.3608682211458843e+04  3.3607633796972390e+04  3.3606971778608167e+04  3.3606404070279488e+04  3.3605869109366722e+04  3.3605360625384579e+04  3.3604882369709550e+04  3.3604438715003802e+04  3.3604032785779906e+04  3.3603666154667102e+04  3.3603338951164980e+04  3.3603050108714560e+04  3.3602797652956448e+04  3.3602578985033215e+04  3.3602391135126927e+04  3.3602230973523489e+04  3.3602095374856632e+04  3.3601981337093588e+04  3.3601886060546880e+04  3.3601806994022932e+04  3.3601741855600187e+04  3.3601688634980106e+04  3.3601645583317695e+04  3.3601611195239340e+04  3.3601584186602042e+04  3.3601563470542576e+04  3.3601548133548677e+04  3.3601537412658014e+04  3.3601530674426351e+04  3.3601527395980840e+04  3.3601527148254398e+04  3.3601529581354058e+04  3.3601534411933266e+04  3.3601541412391874e+04  3.3601550401709967e+04  3.3601561237720365e+04  3.3601573810633941e+04  3.3601588037646623e+04  3.3601603858476134e+04  3.3601621231693593e+04  3.3601640131734850e+04  3.3601660546493295e+04  3.3601682475411268e+04  3.3601705928002542e+04  3.3601730922750867e+04  3.3601757486340706e+04  3.3601785653188257e+04  3.3601815465248728e+04  3.3601846972086278e+04  3.3601880231200419e+04  3.3601915308611417e+04  3.3601952279715239e+04  3.3601991230426785e+04  3.3602032258639374e+04  3.3602075476036873e+04  3.3602121010306422e+04  3.3602169007809665e+04  3.3602219636783906e+04  3.3602273091158131e+04  3.3602329595084455e+04  3.3602389408302508e+04  3.3602452832473195e+04  3.3602520218637532e+04  3.3602591975976218e+04  3.3602668582065060e+04  3.3602750594836602e+04  3.3602838666468269e+04  3.3602933559413737e+04  3.3603036164771460e+04  3.3603147523126041e+04  3.3603268847886749e+04  3.3603401550948147e+04  3.3603547270160649e+04  3.3603707897540167e+04  3.3603885606231917e+04  3.3604082872754429e+04  3.3604302488642359e+04  3.3604547551781572e+04  3.3604821421938723e+04  3.3605127617319173e+04  3.3605469622584329e+04  3.3605850585797249e+04  3.3606272929519444e+04  3.3606738017371405e+04  3.3607246339640864e+04  3.3607802171177223e+04  3.3608464992118483e+04  3.3609732923695337e+04  3.3589064721429058e+04  3.3588531143251508e+04  3.3587941354185656e+04  3.3587388209874989e+04  3.3586878208240509e+04  3.3586412830277724e+04  3.3585992269213515e+04  3.3585614735651972e+04  3.3585277101629043e+04  3.3584975626690553e+04  3.3584706434881606e+04  3.3584465783832522e+04  3.3584250202540708e+04  3.3584056551509297e+04  3.3583882038158765e+04  3.3583724207248641e+04  3.3583580918117397e+04  3.3583450315789960e+04  3.3583330800121985e+04  3.3583220995392563e+04  3.3583119721676041e+04  3.3583025968659516e+04  3.3582938872165490e+04  3.3582857693396167e+04  3.3582781800774857e+04  3.3582710654185728e+04  3.3582643791379000e+04  3.3582580816300841e+04  3.3582521389114299e+04  3.3582465217693112e+04  3.3582412050390631e+04  3.3582361669907070e+04  3.3582313888100165e+04  3.3582268541604950e+04  3.3582225488146491e+04  3.3582184603447684e+04  3.3582145778648672e+04  3.3582108918169084e+04  3.3582073937955895e+04  3.3582040764071244e+04  3.3582009331584239e+04  3.3581979583739943e+04  3.3581951471387081e+04  3.3581924952654459e+04  3.3581899992873237e+04  3.3581876564750892e+04  3.3581854648810273e+04  3.3581834234116024e+04  3.3581815319320012e+04  3.3581797914067502e+04  3.3581782040817256e+04  3.3581767737141854e+04  3.3581755058588264e+04  3.3581744082195262e+04  3.3581734910781568e+04  3.3581727678137919e+04  3.3581722555276414e+04  3.3581719757910731e+04  3.3581719555359945e+04  3.3581722281083305e+04  3.3581728345060801e+04  3.3581738248228015e+04  3.3581752599144951e+04  3.3581772133016610e+04  3.3581797733070656e+04  3.3581830454112445e+04  3.3581871547793664e+04  3.3581922488712567e+04  3.3581984999872926e+04  3.3582061075229423e+04  3.3582152996010518e+04  3.3582263336239826e+04  3.3582394951432179e+04  3.3582550942980597e+04  3.3582734589578606e+04  3.3582949236628680e+04  3.3583198135641862e+04  3.3583484228857684e+04  3.3583809880189016e+04  3.3584176561859487e+04  3.3584584515464354e+04  3.3585032415166941e+04  3.3585517067675122e+04  3.3586033148900344e+04  3.3586572511336039e+04  3.3587119484500137e+04  3.3587625618183360e+04  3.3587926906661560e+04  3.3568940489711254e+04  3.3568487420305035e+04  3.3567942446739937e+04  3.3567374600980496e+04  3.3566849985472953e+04  3.3566383662251341e+04  3.3565973084019504e+04  3.3565611768049610e+04  3.3565293062396093e+04  3.3565011024000683e+04  3.3564760524651145e+04  3.3564537175301062e+04  3.3564337224412528e+04  3.3564157465740522e+04  3.3563995160026432e+04  3.3563847968611321e+04  3.3563713896567620e+04  3.3563591243593430e+04  3.3563478561473305e+04  3.3563374617242196e+04  3.3563278361365716e+04  3.3563188900343834e+04  3.3563105473203657e+04  3.3563027431394083e+04  3.3562954221638014e+04  3.3562885371342200e+04  3.3562820476207853e+04  3.3562759189727061e+04  3.3562701214290100e+04  3.3562646293664955e+04  3.3562594206643749e+04  3.3562544761680336e+04  3.3562497792369337e+04  3.3562453153639755e+04  3.3562410718556239e+04  3.3562370375638355e+04  3.3562332026622877e+04  3.3562295584607622e+04  3.3562260972526041e+04  3.3562228121912223e+04  3.3562196971924568e+04  3.3562167468604246e+04  3.3562139564352387e+04  3.3562113217616279e+04  3.3562088392781989e+04  3.3562065060277746e+04  3.3562043196898900e+04  3.3562022786373360e+04  3.3562003820194332e+04  3.3561986298756128e+04  3.3561970232839572e+04  3.3561955645505273e+04  3.3561942574466622e+04  3.3561931075030778e+04  3.3561921223714089e+04  3.3561913122660364e+04  3.3561906905014795e+04  3.3561902741435115e+04  3.3561900847952864e+04  3.3561901495433012e+04  3.3561905020916303e+04  3.3561911841165696e+04  3.3561922468769706e+04  3.3561937531176183e+04  3.3561957793026922e+04  3.3561984182119420e+04  3.3562017819206601e+04  3.3562060051616943e+04  3.3562112490271378e+04  3.3562177049002225e+04  3.3562255984026844e+04  3.3562351929856064e+04  3.3562467925687983e+04  3.3562607423376961e+04  3.3562774264479762e+04  3.3562972610150326e+04  3.3563206804895424e+04  3.3563481155329231e+04  3.3563799610437942e+04  3.3564165341414438e+04  3.3564580231106542e+04  3.3565044271883227e+04  3.3565554776433877e+04  3.3566105020245108e+04  3.3566681364971388e+04  3.35672572