<?xml version="1.0"?>
<VTKFile type="UnstructuredGrid"  version="0.1"  >
<UnstructuredGrid>
<Piece  NumberOfPoints="21600" NumberOfCells="42542">
<Points>
<DataArray  type="Float64"  NumberOfComponents="3"  format="ascii">0 0 0  0.77 0 0  0.77 0.15 0  0 0.15 0  0.003221757322170014 0 0  0.006443514644340046 0 0  0.009665271966510193 0 0  0.01288702928868034 0 0  0.01610878661085048 0 0  0.01933054393302049 0 0  0.02255230125519027 0 0  0.02577405857735967 0 0  0.02899581589952872 0 0  0.03221757322169801 0 0  0.03543933054386744 0 0  0.03866108786603686 0 0  0.04188284518820627 0 0  0.0451046025103757 0 0  0.04832635983254521 0 0  0.05154811715471607 0 0  0.05476987447688695 0 0  0.05799163179905782 0 0  0.06121338912122846 0 0  0.06443514644339859 0 0  0.06765690376556875 0 0  0.0708786610877389 0 0  0.07410041840990904 0 0  0.0773221757320792 0 0  0.08054393305425039 0 0  0.08376569037642198 0 0  0.0869874476985936 0 0  0.09020920502076518 0 0  0.0934309623429339 0 0  0.0966527196651024 0 0  0.09987447698726967 0 0  0.1030962343094369 0 0  0.1063179916316041 0 0  0.1095397489537714 0 0  0.1127615062759386 0 0  0.1159832635981051 0 0  0.1192050209202709 0 0  0.1224267782424358 0 0  0.1256485355646001 0 0  0.1288702928867644 0 0  0.1320920502089288 0 0  0.1353138075310958 0 0  0.1385355648532632 0 0  0.1417573221754333 0 0  0.1449790794976035 0 0  0.1482008368197736 0 0  0.1514225941419428 0 0  0.1546443514641101 0 0  0.157866108786276 0 0  0.1610878661084403 0 0  0.1643096234306047 0 0  0.167531380752769 0 0  0.1707531380749333 0 0  0.1739748953970977 0 0  0.177196652719262 0 0  0.1804184100414264 0 0  0.1836401673635935 0 0  0.1868619246857611 0 0  0.1900836820079313 0 0  0.1933054393301014 0 0  0.1965271966522716 0 0  0.1997489539744406 0 0  0.2029707112966078 0 0  0.2061924686187736 0 0  0.209414225940938 0 0  0.2126359832631022 0 0  0.2158577405852666 0 0  0.219079497907431 0 0  0.2223012552295953 0 0  0.2255230125517597 0 0  0.2287447698739242 0 0  0.2319665271960914 0 0  0.2351882845182592 0 0  0.2384100418404293 0 0  0.2416317991625994 0 0  0.2448535564847696 0 0  0.2480753138069371 0 0  0.2512970711291014 0 0  0.2545188284512658 0 0  0.2577405857734302 0 0  0.2609623430955986 0 0  0.2641841004177688 0 0  0.2674058577399389 0 0  0.270627615062109 0 0  0.2738493723842792 0 0  0.2770711297064487 0 0  0.280292887028613 0 0  0.2835146443507774 0 0  0.2867364016729417 0 0  0.2899581589951061 0 0  0.2931799163172705 0 0  0.2964016736394348 0 0  0.2996234309615992 0 0  0.3028451882837672 0 0  0.3060669456059373 0 0  0.3092887029281075 0 0  0.3125104602502776 0 0  0.3157322175724478 0 0  0.3189539748946177 0 0  0.322175732216782 0 0  0.3253974895389464 0 0  0.3286192468611107 0 0  0.3318410041832751 0 0  0.3350627615054395 0 0  0.3382845188276038 0 0  0.3415062761497681 0 0  0.3447280334719325 0 0  0.3479497907940968 0 0  0.3511715481162612 0 0  0.3543933054384255 0 0  0.3576150627605947 0 0  0.3608368200827649 0 0  0.364058577404935 0 0  0.3672803347271051 0 0  0.3705020920492753 0 0  0.373723849371444 0 0  0.3769456066936084 0 0  0.3801673640157748 0 0  0.383389121337945 0 0  0.3866108786601209 0 0  0.3898326359823028 0 0  0.3930543933044846 0 0  0.3962761506266662 0 0  0.399497907948848 0 0  0.4027196652710298 0 0  0.4059414225932116 0 0  0.4091631799153934 0 0  0.4123849372375751 0 0  0.4156066945597569 0 0  0.4188284518819387 0 0  0.4220502092041222 0 0  0.4252719665263097 0 0  0.4284937238484974 0 0  0.4317154811706849 0 0  0.4349372384928725 0 0  0.4381589958150601 0 0  0.4413807531372476 0 0  0.4446025104594352 0 0  0.4478242677816181 0 0  0.4510460251037998 0 0  0.4542677824259815 0 0  0.4574895397481634 0 0  0.4607112970703451 0 0  0.4639330543925269 0 0  0.4671548117147087 0 0  0.4703765690368904 0 0  0.4735983263590722 0 0  0.4768200836812568 0 0  0.4800418410034444 0 0  0.483263598325632 0 0  0.4864853556478196 0 0  0.4897071129700028 0 0  0.4929288702921845 0 0  0.4961506276143663 0 0  0.4993723849365479 0 0  0.5025941422587239 0 0  0.5058158995809008 0 0  0.5090376569030826 0 0  0.5122594142252677 0 0  0.515481171547461 0 0  0.5187029288696494 0 0  0.5219246861918312 0 0  0.525146443514013 0 0  0.5283682008361947 0 0  0.5315899581583845 0 0  0.5348117154805778 0 0  0.5380334728027617 0 0  0.5412552301249435 0 0  0.5444769874471141 0 0  0.5476987447692853 0 0  0.550920502091467 0 0  0.5541422594136513 0 0  0.5573640167358447 0 0  0.560585774058034 0 0  0.5638075313802158 0 0  0.5670292887023975 0 0  0.5702510460245793 0 0  0.5734728033467682 0 0  0.5766945606689615 0 0  0.579916317991155 0 0  0.5831380753133483 0 0  0.5863598326355314 0 0  0.5895815899577131 0 0  0.5928033472798949 0 0  0.5960251046020785 0 0  0.5992468619242718 0 0  0.6024686192464619 0 0  0.6056903765686437 0 0  0.6089121338908206 0 0  0.6121338912129908 0 0  0.6153556485351673 0 0  0.618577405857349 0 0  0.6217991631795386 0 0  0.625020920501732 0 0  0.6282426778239159 0 0  0.6314644351460976 0 0  0.6346861924682795 0 0  0.6379079497904622 0 0  0.6411297071126555 0 0  0.6443514644348465 0 0  0.6475732217570283 0 0  0.650794979079206 0 0  0.6540167364013761 0 0  0.6572384937235518 0 0  0.6604602510457335 0 0  0.6636820083679225 0 0  0.6669037656901158 0 0  0.6701255230123004 0 0  0.6733472803344823 0 0  0.6765690376566641 0 0  0.6797907949788459 0 0  0.6830125523010393 0 0  0.686234309623231 0 0  0.6894560669454127 0 0  0.6926778242675914 0 0  0.6958995815897615 0 0  0.6991213389119363 0 0  0.7023430962341181 0 0  0.7055648535563062 0 0  0.7087866108784994 0 0  0.712008368200685 0 0  0.7152301255228668 0 0  0.7184518828450486 0 0  0.7216736401672305 0 0  0.724895397489423 0 0  0.7281171548116155 0 0  0.7313389121337973 0 0  0.7345606694559768 0 0  0.7377824267781468 0 0  0.7410041841003209 0 0  0.7442259414225026 0 0  0.7474476987446899 0 0  0.7506694560668832 0 0  0.7538912133890696 0 0  0.7571129707112513 0 0  0.760334728033433 0 0  0.7635564853556149 0 0  0.7667782426778067 0 0  0.77 0.001685393258423789 0  0.77 0.003370786516847669 0  0.77 0.005056179775271247 0  0.77 0.006741573033694517 0  0.77 0.008426966292117821 0  0.77 0.01011235955054176 0  0.77 0.01179775280896623 0  0.77 0.0134831460673904 0  0.77 0.01516853932581489 0  0.77 0.01685393258423891 0  0.77 0.01853932584266291 0  0.77 0.02022471910108589 0  0.77 0.02191011235950794 0  0.77 0.02359550561792999 0  0.77 0.02528089887635205 0  0.77 0.02696629213477411 0  0.77 0.02865168539319714 0  0.77 0.03033707865161956 0  0.77 0.03202247191004162 0  0.77 0.03370786516846367 0  0.77 0.03539325842688572 0  0.77 0.03707865168530778 0  0.77 0.03876404494372984 0  0.77 0.0404494382021519 0  0.77 0.04213483146057394 0  0.77 0.04382022471899601 0  0.77 0.04550561797741807 0  0.77 0.04719101123584013 0  0.77 0.04887640449426219 0  0.77 0.05056179775268425 0  0.77 0.0522471910111063 0  0.77 0.05393258426952837 0  0.77 0.05561797752795105 0  0.77 0.05730337078637505 0  0.77 0.05898876404479723 0  0.77 0.0606741573032193 0  0.77 0.06235955056164135 0  0.77 0.06404494382006341 0  0.77 0.06573033707848548 0  0.77 0.06741573033690752 0  0.77 0.06910112359532959 0  0.77 0.07078651685375165 0  0.77 0.0724719101121737 0  0.77 0.07415730337059653 0  0.77 0.07584269662902443 0  0.77 0.07752808988745429 0  0.77 0.07921348314588413 0  0.77 0.08089887640431678 0  0.77 0.08258426966274923 0  0.77 0.08426966292117907 0  0.77 0.08595505617960987 0  0.77 0.08764044943804362 0  0.77 0.08932584269647403 0  0.77 0.09101123595490389 0  0.77 0.09269662921333673 0  0.77 0.09438202247176901 0  0.77 0.09606741573019884 0  0.77 0.09775280898862983 0  0.77 0.09943820224706355 0  0.77 0.1011235955054938 0  0.77 0.1028089887639236 0  0.77 0.1044943820223567 0  0.77 0.1061797752807888 0  0.77 0.1078651685392186 0  0.77 0.1095505617976498 0  0.77 0.1112359550560835 0  0.77 0.1129213483145136 0  0.77 0.1146067415729456 0  0.77 0.1162921348313787 0  0.77 0.1179775280898085 0  0.77 0.1196629213482387 0  0.77 0.1213483146066724 0  0.77 0.1230337078651035 0  0.77 0.1247191011235322 0  0.77 0.1264044943819605 0  0.77 0.1280898876403903 0  0.77 0.1297752808988242 0  0.77 0.1314606741572554 0  0.77 0.1331460674156853 0  0.77 0.1348314606741154 0  0.77 0.1365168539325504 0  0.77 0.1382022471909802 0  0.77 0.13988764044941 0  0.77 0.1415730337078443 0  0.77 0.1432584269662752 0  0.77 0.144943820224705 0  0.77 0.1466292134831355 0  0.77 0.1483146067415701 0  0.7667782426778414 0.15 0  0.7635564853556813 0.15 0  0.7603347280335111 0.15 0  0.757112970711341 0.15 0  0.7538912133891708 0.15 0  0.7506694560670005 0.15 0  0.7474476987448303 0.15 0  0.7442259414226602 0.15 0  0.74100418410049 0.15 0  0.7377824267783197 0.15 0  0.7345606694561496 0.15 0  0.7313389121339794 0.15 0  0.7281171548118092 0.15 0  0.724895397489639 0.15 0  0.7216736401674688 0.15 0  0.7184518828452986 0.15 0  0.7152301255231284 0.15 0  0.7120083682009583 0.15 0  0.708786610878788 0.15 0  0.7055648535566178 0.15 0  0.7023430962344477 0.15 0  0.6991213389122775 0.15 0  0.6958995815901072 0.15 0  0.692677824267937 0.15 0  0.6894560669457669 0.15 0  0.6862343096235967 0.15 0  0.6830125523014264 0.15 0  0.6797907949792563 0.15 0  0.6765690376570861 0.15 0  0.6733472803349159 0.15 0  0.6701255230127456 0.15 0  0.6669037656905755 0.15 0  0.6636820083684053 0.15 0  0.6604602510462351 0.15 0  0.657238493724065 0.15 0  0.6540167364018947 0.15 0  0.6507949790797245 0.15 0  0.6475732217575543 0.15 0  0.644351464435384 0.15 0  0.6411297071132231 0.15 0  0.6379079497910645 0.15 0  0.634686192468906 0.15 0  0.6314644351467468 0.15 0  0.6282426778245765 0.15 0  0.6250209205024085 0.15 0  0.62179916318025 0.15 0  0.6185774058580914 0.15 0  0.6153556485359328 0.15 0  0.6121338912137689 0.15 0  0.6089121338915987 0.15 0  0.6056903765694354 0.15 0  0.6024686192472768 0.15 0  0.5992468619251182 0.15 0  0.5960251046029597 0.15 0  0.5928033472807912 0.15 0  0.589581589958621 0.15 0  0.5863598326364508 0.15 0  0.5831380753142792 0.15 0  0.5799163179920974 0.15 0  0.57669456
[...]
<PointData  Scalars="pressure"> 
<DataArray  type="Float64"  Name="pressure"  format="ascii">3.1956891057508252e+04  2.1666019879830802e+00  -1.6077997638529393e+00  3.1937503832788960e+04  3.1931031892101360e+04  3.1911404233106136e+04  3.1894084902819384e+04  2.3216738877635365e+04  2.3200031609408732e+04  2.3184920679197767e+04  2.3169950753162957e+04  2.3155094405958254e+04  2.3140324567566513e+04  2.3125617967375911e+04  2.3110958597701916e+04  2.3096333979582407e+04  2.3081732983610935e+04  2.3067144313688412e+04  2.3052554884302284e+04  2.3037947367774366e+04  2.3023296194076123e+04  2.3008565228908417e+04  2.2993710847735336e+04  2.2978601276534064e+04  2.2960774108867663e+04  2.2914324188561917e+04  2.2812768571526172e+04  2.2711304699447781e+04  2.2609332549449497e+04  2.2507092072022828e+04  2.2404686783760877e+04  2.2302163791122945e+04  2.2199546145230732e+04  2.2096845278574139e+04  2.1994066555053949e+04  2.1891211985048274e+04  2.1788281674434544e+04  2.1685274656773076e+04  2.1582189399141313e+04  2.1479024123009338e+04  2.1375777013955478e+04  2.1272446361044462e+04  2.1169030649621691e+04  2.1065528621996145e+04  2.0961939315220068e+04  2.0858262082076839e+04  2.0754496599504651e+04  2.0650642867499093e+04  2.0546701200771477e+04  2.0442672214921153e+04  2.0338556808521444e+04  2.0234356142254670e+04  2.0130071616032234e+04  2.0025704844877397e+04  1.9921257634216996e+04  1.9816731955118514e+04  1.9712129919911742e+04  1.9607453758550939e+04  1.9502705795998460e+04  1.9397888430844938e+04  1.9293004115323318e+04  1.9188055336823905e+04  1.9083044600972364e+04  1.8977974416297886e+04  1.8872847280484606e+04  1.8767665668176287e+04  1.8662432020281904e+04  1.8557148734714621e+04  1.8451818158484526e+04  1.8346442581056919e+04  1.8241024228882983e+04  1.8135565261006606e+04  1.8030067765651067e+04  1.7924533757690078e+04  1.7818965176910897e+04  1.7713363886980464e+04  1.7607731675030929e+04  1.7502070251784575e+04  1.7396381252145791e+04  1.7290666236191202e+04  1.7184926690496821e+04  1.7079164029744919e+04  1.6973379598560423e+04  1.6867574673531086e+04  1.6761750465370347e+04  1.6655908121187746e+04  1.6550048726834488e+04  1.6444173309297108e+04  1.6338282839115614e+04  1.6232378232805342e+04  1.6126460355265312e+04  1.6020530022157816e+04  1.5914588002248584e+04  1.5808635019695703e+04  1.5702671756280286e+04  1.5596698853572127e+04  1.5490716915025539e+04  1.5384726508001555e+04  1.5278728165714612e+04  1.5172722389101198e+04  1.5066709648610349e+04  1.4960690385915979e+04  1.4854665015551402e+04  1.4748633926467242e+04  1.4642597483513444e+04  1.4536556028848690e+04  1.4430509883277588e+04  1.4324459347518678e+04  1.4218404703405393e+04  1.4112346215022464e+04  1.4006284129780250e+04  1.3900218679429665e+04  1.3794150081020038e+04  1.3688078537802743e+04  1.3582004240082746e+04  1.3475927366021471e+04  1.3369848082391953e+04  1.3263766545289831e+04  1.3157682900802181e+04  1.3051597285636331e+04  1.2945509827710774e+04  1.2839420646709987e+04  1.2733329854606187e+04  1.2627237556148668e+04  1.2521143849323189e+04  1.2415048825783137e+04  1.2308952571253358e+04  1.2202855165909477e+04  1.2096756684733336e+04  1.1990657197846171e+04  1.1884556770820791e+04  1.1778455464974209e+04  1.1672353337641653e+04  1.1566250442433313e+04  1.1460146829474699e+04  1.1354042545631833e+04  1.1247937634722233e+04  1.1141832137711963e+04  1.1035726092900439e+04  1.0929619536093332e+04  1.0823512500764407e+04  1.0717405018206902e+04  1.0611297117675394e+04  1.0505188826517955e+04  1.0399080170300518e+04  1.0292971172922869e+04  1.0186861856727199e+04  1.0080752242599596e+04  9.9746423500650781e+03  9.8685321973764130e+03  9.7624218015972274e+03  9.6563111786796417e+03  9.5502003435371480e+03  9.4440893101126148e+03  9.3379780914416951e+03  9.2318666997125183e+03  9.1257551463209802e+03  9.0196434419230118e+03  8.9135315964833026e+03  8.8074196193209136e+03  8.7013075191512999e+03  8.5951953041266370e+03  8.4890829818731800e+03  8.3829705595257492e+03  8.2768580437611436e+03  8.1707454408277681e+03  8.0646327565742522e+03  7.9585199964767371e+03  7.8524071656634651e+03  7.7462942689388947e+03  7.6401813108055703e+03  7.5340682954837857e+03  7.4279552269320839e+03  7.3218421088641853e+03  7.2157289447666817e+03  7.1096157379155611e+03  7.0035024913901043e+03  6.8973892080881014e+03  6.7912758907381512e+03  6.6851625419120683e+03  6.5790491640372638e+03  6.4729357594073745e+03  6.3668223301932439e+03  6.2607088784526231e+03  6.1545954061393477e+03  6.0484819151127176e+03  5.9423684071450352e+03  5.8362548839305600e+03  5.7301413470929865e+03  5.6240277981926747e+03  5.5179142387346583e+03  5.4118006701746217e+03  5.3056870939255587e+03  5.1995735113647370e+03  5.0934599238394512e+03  4.9873463326742794e+03  4.8812327391767667e+03  4.7751191446440744e+03  4.6690055503693638e+03  4.5628919576473418e+03  4.4567783677817442e+03  4.3506647820921762e+03  4.2445512019211092e+03  4.1384376286427378e+03  4.0323240636705095e+03  3.9262105084662130e+03  3.8200969645509308e+03  3.7139834335158239e+03  3.6078699170362465e+03  3.5017564168865229e+03  3.3956429349578389e+03  3.2895294732792995e+03  3.1834160340418821e+03  3.0773026196290361e+03  2.9711892326529914e+03  2.8650758759987621e+03  2.7589625528802285e+03  2.6528492669076081e+03  2.5467360221731087e+03  2.4406228233608272e+03  2.3345096758852701e+03  2.2283965860725698e+03  2.1222835613956540e+03  2.0161706107851116e+03  1.9100577450454791e+03  1.8039449774184998e+03  1.6978323243608536e+03  1.5917198066339351e+03  1.4856074508615748e+03  1.3794952918101274e+03  1.2733833758088531e+03  1.1672717660414210e+03  1.0611605510277877e+03  9.5504985879813773e+02  8.4893988185762441e+02  7.4283092404168030e+02  6.3672349336918830e+02  5.3061850766909708e+02  4.2451804387644569e+02  3.1842781722545988e+02  2.1234733593540483e+02  1.0626285115591565e+02  4.5046818057856453e-01  2.3100340258567515e-02  4.8790986349554252e-03  2.9867244848007348e-03  1.7092846706651911e-03  1.0061359263518516e-03  6.2984778722572330e-04  4.1631816225098169e-04  2.8782730536425775e-04  2.0656281125880276e-04  1.5294323141624812e-04  1.1626207785559004e-04  9.0380677484082816e-05  7.1627915721227941e-05  5.7724983272723664e-05  4.7210001029167186e-05  3.9117477782790401e-05  3.2793107360272788e-05  2.7783187805993709e-05  2.3766611286758119e-05  2.0511904353218384e-05  1.7849428537692268e-05  1.5652993887050834e-05  1.3827454103090291e-05  1.2300184571787810e-05  1.1015130105379043e-05  9.9285844225578929e-06  9.0061553199873961e-06  8.2205545525789631e-06  7.5499693488607954e-06  6.9768491429786869e-06  6.4869931315789509e-06  6.0688574918376373e-06  5.7130251420381124e-06  5.4117972283842109e-06  5.1588762536446166e-06  4.9491193061953835e-06  4.7783450136962511e-06  4.6431827432583760e-06  4.5409548483125593e-06  4.4695854449980476e-06  4.4275306981161669e-06  4.4137269769080424e-06  4.4275541889525013e-06  4.4688123921039821e-06  4.5377105082188642e-06  4.6348663134837646e-06  4.7613176813506307e-06  4.9185454238550693e-06  5.1085083719133983e-06  5.3336922822863370e-06  5.5971744673594242e-06  5.9027069218542313e-06  6.2548215617898214e-06  6.6589625476057064e-06  7.1216517684311841e-06  7.6506958588259099e-06  8.2554455506184993e-06  8.9471209759156534e-06  9.7392221071123171e-06  1.0648047827074726e-05  1.1693356667067865e-05  1.2899212041625013e-05  1.4295070146976550e-05  1.5917188685737811e-05  1.7810462868123767e-05  2.0030833484432862e-05  2.2648465585508576e-05  2.5751969175282879e-05  2.9454034748219760e-05  3.3898989627578378e-05  3.9272955796393698e-05  4.5817498325181621e-05  5.3847861834683285e-05  6.3776989745696920e-05  7.6146201062091224e-05  9.1661893353239883e-05  1.1123314319478022e-04  1.3599379741355413e-04  1.6727053348750720e-04  2.0645139406858583e-04  2.5499244342025071e-04  3.1831157232681257e-04  4.7555434935027711e-04  1.9544163800758949e-03  1.8162102303234728e-02  1.2963225387620858e-01  7.3269164279481380e-02  1.0523582229213697e+02  2.1203700339285004e+02  3.1820844839832267e+02  4.2435127525548211e+02  5.3048630456777187e+02  6.3661436559388051e+02  7.4273836626288096e+02  8.4885986362945448e+02  9.5497969128563102e+02  1.0610983487590115e+03  1.1672161542336687e+03  1.2733333196858907e+03  1.3794499917525090e+03  1.4855662751093985e+03  1.5916822464905340e+03  1.6977979634451594e+03  1.8039134700006421e+03  1.9100288004349923e+03  2.0161439818560289e+03  2.1222590360051718e+03  2.2283739805445862e+03  2.3344888299922350e+03  2.4406035964120697e+03  2.5467182899309337e+03  2.6528329191307798e+03  2.7589474913498384e+03  2.8650620129164286e+03  2.9711764893323493e+03  3.0772909254180940e+03  3.1834053254288347e+03  3.2895196931479099e+03  3.3956340319627438e+03  3.5017483449270562e+03  3.6078626348121479e+03  3.7139769041496133e+03  3.8200911552671391e+03  3.9262053903187316e+03  4.0323196113105118e+03  4.1384338201228547e+03  4.2445480185292981e+03  4.3506622082141703e+03  4.4567763907867393e+03  4.5628905677945777e+03  4.6690047407358161e+03  4.7751189110689465e+03  4.8812330802237748e+03  4.9873472496110699e+03  5.0934614206304732e+03  5.1995755946792851e+03  5.3056897731601402e+03  5.4118039574884642e+03  5.5179181491010077e+03  5.6240323494629793e+03  5.7301465600752936e+03  5.8362607824825864e+03  5.9423750182799549e+03  6.0484892691215164e+03  6.1546035367283093e+03  6.2607178228966550e+03  6.3668321295058249e+03  6.4729464585278183e+03  6.5790608120362167e+03  6.6851751922160092e+03  6.7912896013740510e+03  6.8974040419492621e+03  7.0035185165238590e+03  7.1096330278359355e+03  7.2157475787917883e+03  7.3218621724791656e+03  7.4279768121819825e+03  7.5340915013944259e+03  7.6402062438376897e+03  7.7463210434778784e+03  7.8524359045432011e+03  7.9585508315438365e+03  8.0646658292926650e+03  8.1707809029267628e+03  8.2768960579320337e+03  8.3830113001684749e+03  8.4891266358962730e+03  8.5952420718051544e+03  8.7013576150447989e+03  8.8074732732577449e+03  8.9135890546154824e+03  9.0197049678552503e+03  9.1258210223203332e+03  9.2319372280030802e+03  9.3380535955913765e+03  9.4441701365173940e+03  9.5502868630105022e+03  9.6564037881536042e+03  9.7625209259435323e+03  9.8686382913556208e+03  9.9747559004129544e+03  1.0080873770260070e+04  1.0186991919242339e+04  1.0293110366990859e+04  1.0399229134513174e+04  1.0505348244290506e+04  1.0611467720381665e+04  1.0717587588535078e+04  1.0823707876307642e+04  1.0929828613192767e+04  1.1035949830757338e+04  1.1142071562788451e+04  1.1248193845450589e+04  1.1354316717454005e+04  1.1460440220235210e+04  1.1566564398150298e+04  1.1672689298682235e+04  1.1778814972663093e+04  1.1884941474511765e+04  1.1991068862489625e+04  1.2097197198974201e+04  1.2203326550752723e+04  1.2309456989336933e+04  1.2415588591300871e+04  1.2521721438643679e+04  1.2627855619178068e+04  1.2733991226947961e+04  1.2840128362676607e+04  1.2946267134247782e+04  1.3052407657223084e+04  1.3158550055397223e+04  1.3264694461394811e+04  1.3370841017312085e+04  1.3476989875406813e+04  1.3583141198840496e+04  1.3689295162476987e+04  1.3795451953742198e+04  1.3901611773549907e+04  1.4007774837299148e+04  1.4113941375949034e+04  1.4220111637178323e+04  1.4326285886636078e+04  1.4432464409291808e+04  1.4538647510893856e+04  1.4644835519545510e+04  1.4751028787409525e+04  1.4857227692553217e+04  1.4963432640946125e+04  1.5069644068625437e+04  1.5175862444045162e+04  1.5282088270626300e+04  1.5388322089528359e+04  1.5494564482663880e+04  1.5600816075980954e+04  1.5707077543041411e+04  1.5813349608925342e+04  1.5919633054497457e+04  1.6025928721074713e+04  1.6132237515539080e+04  1.6238560415946940e+04  1.6344898477691120e+04  1.6451252840281708e+04  1.6557624734819376e+04  1.6664015492247152e+04  1.6770426552476260e+04  1.6876859474499357e+04  1.6983315947620405e+04  1.7089797803948728e+04  1.7196307032333076e+04  1.7302845793934186e+04  1.7409416439671091e+04  1.7516021529817586e+04  1.7622663856069033e+04  1.7729346466462372e+04  1.7836072693599308e+04  1.7942846186704453e+04  1.8049670948160998e+04  1.8156551375283587e+04  1.8263492308249999e+04  1.8370499085304742e+04  1.8477577606581701e+04  1.8584734408200198e+04  1.8691976748658803e+04  1.8799312710032147e+04  1.8906751317087987e+04  1.9014302678223023e+04  1.9121978153137799e+04  1.9229790553500585e+04  1.9337754384607932e+04  1.9445886138397062e+04  1.9554204651318010e+04  1.9662731544886021e+04  1.9771491772673184e+04  1.9880514305813795e+04  1.9989833000908147e+04  2.0099487711240869e+04  2.0209525727258941e+04  2.0320003669743150e+04  2.0430990016486929e+04  2.0542568533292542e+04  2.0654843025068818e+04  2.0767944063589752e+04  2.0882038762276345e+04  2.0997345407795012e+04  2.1114156140408264e+04  2.1232873601452182e+04  2.1354073147686224e+04  2.1478614592279697e+04  2.1607863021432047e+04  2.1744253053217755e+04  2.1892686955597826e+04  2.2055524919113774e+04  2.2176656369145727e+04  2.2224039184463691e+04  2.2275919236597529e+04  2.2327819772995957e+04  2.2385598505591392e+04  2.2459974711560299e+04  2.2545186796453534e+04  2.2599008848925267e+04  2.2671788111716112e+04  2.2721594248075624e+04  2.2749787977896205e+04  2.2787065590233975e+04  2.2833809580432040e+04  2.2872340725533901e+04  2.2906817701225791e+04  2.2937315610715908e+04  2.2964586661143581e+04  2.2989147756254632e+04  2.3011258086895879e+04  2.3031892685591771e+04  2.3053070501484122e+04  2.3074189967702390e+04  2.3094515100768785e+04  2.3113551598011738e+04  2.3131194207199769e+04  2.3148778178058579e+04  2.3165169485824830e+04  2.3177140021290474e+04  2.3191474822039487e+04  2.3207573895180485e+04  3.1876879185378839e+04  3.1894656403327026e+04  3.1914513134975150e+04  3.1935150684334509e+04  3.1934083865418128e+04  3.1933389329985166e+04  3.1932774921525681e+04  3.1932179195001241e+04  3.1931596462908488e+04  3.1931031703986337e+04  3.1930491245730685e+04  3.1929980893231674e+04  3.1929505536193748e+04  3.1929069096071333e+04  3.1928674568072409e+04  3.1928324092037830e+04  3.1928019032506203e+04  3.1927760061816105e+04  3.1927547243661960e+04  3.1927380115268577e+04  3.1927257766572478e+04  3.1927178915058470e+04  3.1927141975240145e+04  3.1927145122130027e+04  3.1927186348368989e+04  3.1927263514951272e+04  3.1927374395685292e+04  3.1927516715677211e+04  3.1927688184221442e+04  3.1927886522542078e+04  3.1928109486857516e+04  3.1928354887246940e+04  3.1928620602789604e+04  3.1928904593426425e+04  3.1929204908967058e+04  3.1929519695634375e+04  3.1929847200504959e+04  3.1930185774170317e+04  3.1930533871910622e+04  3.1930890053640975e+04  3.1931252982859722e+04  3.1931621424801284e+04  3.1931994243969577e+04  3.1932370401205193e+04  3.1932748950418350e+04  3.1933129035101170e+04  3.1933509884715761e+04  3.1933890811040459e+04  3.1934271204543500e+04  3.1934650530842795e+04  3.1935028327300981e+04  3.1935404199797296e+04  3.1935777819711209e+04  3.1936148921148237e+04  3.1936517298433802e+04  3.1936882803898985e+04  3.1937245345980296e+04  3.1937604887655234e+04  3.1937961445235862e+04  3.1938315087545445e+04  3.1938665935505043e+04  3.1939014162162923e+04  3.1939359993204340e+04  3.1939703707987599e+04  3.1940045641161596e+04  3.1940386184930845e+04  3.1940725792047568e+04  3.1941064979625389e+04  3.1941404333885454e+04  3.1941744515962575e+04  3.1942086268914114e+04  3.1942430426082308e+04  3.1942777920955861e+04  3.1943129798642261e+04  3.1943487228975693e+04  3.1943851521099543e+04  3.1944224139004415e+04  3.1944606716837443e+04  3.1945001071607774e+04  3.1945409208841287e+04  3.1945833313259700e+04  3.1946275711092730e+04  3.1946738783191478e+04  3.1947224801716380e+04  3.1947735669719012e+04  3.1948272589172393e+04  3.1948835795922321e+04  3.1949424816730709e+04  3.1950043201278044e+04  3.1950750045288049e+04  3.1952043624505790e+04  3.1931399426368596e+04  3.1930840736943475e+04  3.1930206738239045e+04  3.1929590420190099e+04  3.1928998730632127e+04  3.1928433936341175e+04  3.1927897284840143e+04  3.1927388217743301e+04  3.1926904921024070e+04  3.1926444973575817e+04  3.1926005765791266e+04  3.1925584727837300e+04  3.1925179441748234e+04  3.1924787688241453e+04  3.1924407458430254e+04  3.1924036947637465e+04  3.1923674540918750e+04  3.1923318795538060e+04  3.1922968423154784e+04  3.1922622273087931e+04  3.1922279317253830e+04  3.1921938636959621e+04  3.1921599411523148e+04  3.1921260908588709e+04  3.1920922475970212e+04  3.1920583534846082e+04  3.1920243574140644e+04  3.1919902145943954e+04  3.1919558861841069e+04  3.1919213390040914e+04  3.1918865453212657e+04  3.1918514826952509e+04  3.1918161338817470e+04  3.1917804867873354e+04  3.1917445344713742e+04  3.1917082751913844e+04  3.1916717124888881e+04  3.1916348553131287e+04  3.1915977181803668e+04  3.1915603213666600e+04  3.1915226911321002e+04  3.1914848599744259e+04  3.1914468669098154e+04  3.1914087577783637e+04  3.1913705855714070e+04  3.1913324107773598e+04  3.1912943017420879e+04  3.1912563350390952e+04  3.1912185958438757e+04  3.1911811783057401e+04  3.1911441859091155e+04  3.1911077318149404e+04  3.1910719391710772e+04  3.1910369413788587e+04  3.1910028823007084e+04  3.1909699163915866e+04  3.1909382087342783e+04  3.1909079349558750e+04  3.1908792809996885e+04  3.1908524427236207e+04  3.1908276252925982e+04  3.1908050423291803e+04  3.1907849147829256e+04  3.1907674694757032e+04  3.1907529372770965e+04  3.1907415508615220e+04  3.1907335419971489e+04  3.1907291383165797e+04  3.1907285595211084e+04  3.1907320129750493e+04  3.1907396886550436e+04  3.1907517534325649e+04  3.1907683446871688e+04  3.1907895632747339e+04  3.1908154659094962e+04  3.1908460570605232e+04  3.1908812805082671e+04  3.1909210107438361e+04  3.1909650443983704e+04  3.1910130918211398e+04  3.1910647687452747e+04  3.1911195877515427e+04  3.1911769490399198e+04  3.1912361260971124e+04  3.1912961960465927e+04  3.1913555580075645e+04  3.1914093919174713e+04  3.1914413532333154e+04  3.1911369561159561e+04  3.1910892662829352e+04  3.1910302815455623e+04  3.1909669500109998e+04  3.1909059160686422e+04  3.1908488034530263e+04  3.1907955138522921e+04  3.1907455683948741e+04  3.1906984708999415e+04  3.1906537873890291e+04  3.1906111514988057e+04  3.1905702539838316e+04  3.1905308313196980e+04  3.1904926565005993e+04  3.1904555320919953e+04  3.1904192850185642e+04  3.1903837625971264e+04  3.1903488294567294e+04  3.1903143651023227e+04  3.1902802619578717e+04  3.1902464237765238e+04  3.1902127643387405e+04  3.1901792063810608e+04  3.1901456807127663e+04  3.1901121254878140e+04  3.1900784856066985e+04  3.1900447122282963e+04  3.1900107623758078e+04  3.1899765986241498e+04  3.1899421888586014e+04  3.1899075060965242e+04  3.1898725283655858e+04  3.1898372386331554e+04  3.1898016247826235e+04  3.1897656796331514e+04  3.1897294010000744e+04  3.1896927917936104e+04  3.1896558601539582e+04  3.1896186196210845e+04  3.1895810893376598e+04  3.1895432942836775e+04  3.1895052655412303e+04  3.1894670405877754e+04  3.1894286636159988e+04  3.1893901858780453e+04  3.1893516660514018e+04  3.1893131706231969e+04  3.1892747742889238e+04  3.1892365603607759e+04  3.1891986211797641e+04  3.1891610585246104e+04  3.1891239840090231e+04  3.1890875194573979e+04  3.1890517972471807e+04  3.1890169606040701e+04  3.1889831638339343e+04  3.1889505724727594e+04  3.1889193633330520e+04  3.1888897244219890e+04  3.1888618547031430e+04  3.1888359636699046e+04  3.1888122706947051e+04  3.1887910041139490e+04  3.1887724000041930e+04  3.1887567006007059e+04  3.1887441523052450e+04  3.1887350032259470e+04  3.1887295001889957e+04  3.1887278851597221e+04  3.1887303910106559e+04  3.1887372365769323e+04  3.1887486209467330e+04  3.1887647169482378e+04  3.1887856638182016e+04  3.1888115590751524e+04  3.1888424496790565e+04  3.1888783226454492e+04  3.1889190953935824e+04  3.1889646061992720e+04  3.1890146049958803e+04  3.1890687437513450e+04  3.1891265617721685e+04  3.1891874494171167e+04  3.1892505430313038e+04  3.1893144420694916e+04  3.18937657