<?xml version="1.0"?>
<VTKFile type="UnstructuredGrid"  version="0.1"  >
<UnstructuredGrid>
<Piece  NumberOfPoints="21600" NumberOfCells="42542">
<Points>
<DataArray  type="Float64"  NumberOfComponents="3"  format="ascii">0 0 0  0.77 0 0  0.77 0.15 0  0 0.15 0  0.003221757322170014 0 0  0.006443514644340046 0 0  0.009665271966510193 0 0  0.01288702928868034 0 0  0.01610878661085048 0 0  0.01933054393302049 0 0  0.02255230125519027 0 0  0.02577405857735967 0 0  0.02899581589952872 0 0  0.03221757322169801 0 0  0.03543933054386744 0 0  0.03866108786603686 0 0  0.04188284518820627 0 0  0.0451046025103757 0 0  0.04832635983254521 0 0  0.05154811715471607 0 0  0.05476987447688695 0 0  0.05799163179905782 0 0  0.06121338912122846 0 0  0.06443514644339859 0 0  0.06765690376556875 0 0  0.0708786610877389 0 0  0.07410041840990904 0 0  0.0773221757320792 0 0  0.08054393305425039 0 0  0.08376569037642198 0 0  0.0869874476985936 0 0  0.09020920502076518 0 0  0.0934309623429339 0 0  0.0966527196651024 0 0  0.09987447698726967 0 0  0.1030962343094369 0 0  0.1063179916316041 0 0  0.1095397489537714 0 0  0.1127615062759386 0 0  0.1159832635981051 0 0  0.1192050209202709 0 0  0.1224267782424358 0 0  0.1256485355646001 0 0  0.1288702928867644 0 0  0.1320920502089288 0 0  0.1353138075310958 0 0  0.1385355648532632 0 0  0.1417573221754333 0 0  0.1449790794976035 0 0  0.1482008368197736 0 0  0.1514225941419428 0 0  0.1546443514641101 0 0  0.157866108786276 0 0  0.1610878661084403 0 0  0.1643096234306047 0 0  0.167531380752769 0 0  0.1707531380749333 0 0  0.1739748953970977 0 0  0.177196652719262 0 0  0.1804184100414264 0 0  0.1836401673635935 0 0  0.1868619246857611 0 0  0.1900836820079313 0 0  0.1933054393301014 0 0  0.1965271966522716 0 0  0.1997489539744406 0 0  0.2029707112966078 0 0  0.2061924686187736 0 0  0.209414225940938 0 0  0.2126359832631022 0 0  0.2158577405852666 0 0  0.219079497907431 0 0  0.2223012552295953 0 0  0.2255230125517597 0 0  0.2287447698739242 0 0  0.2319665271960914 0 0  0.2351882845182592 0 0  0.2384100418404293 0 0  0.2416317991625994 0 0  0.2448535564847696 0 0  0.2480753138069371 0 0  0.2512970711291014 0 0  0.2545188284512658 0 0  0.2577405857734302 0 0  0.2609623430955986 0 0  0.2641841004177688 0 0  0.2674058577399389 0 0  0.270627615062109 0 0  0.2738493723842792 0 0  0.2770711297064487 0 0  0.280292887028613 0 0  0.2835146443507774 0 0  0.2867364016729417 0 0  0.2899581589951061 0 0  0.2931799163172705 0 0  0.2964016736394348 0 0  0.2996234309615992 0 0  0.3028451882837672 0 0  0.3060669456059373 0 0  0.3092887029281075 0 0  0.3125104602502776 0 0  0.3157322175724478 0 0  0.3189539748946177 0 0  0.322175732216782 0 0  0.3253974895389464 0 0  0.3286192468611107 0 0  0.3318410041832751 0 0  0.3350627615054395 0 0  0.3382845188276038 0 0  0.3415062761497681 0 0  0.3447280334719325 0 0  0.3479497907940968 0 0  0.3511715481162612 0 0  0.3543933054384255 0 0  0.3576150627605947 0 0  0.3608368200827649 0 0  0.364058577404935 0 0  0.3672803347271051 0 0  0.3705020920492753 0 0  0.373723849371444 0 0  0.3769456066936084 0 0  0.3801673640157748 0 0  0.383389121337945 0 0  0.3866108786601209 0 0  0.3898326359823028 0 0  0.3930543933044846 0 0  0.3962761506266662 0 0  0.399497907948848 0 0  0.4027196652710298 0 0  0.4059414225932116 0 0  0.4091631799153934 0 0  0.4123849372375751 0 0  0.4156066945597569 0 0  0.4188284518819387 0 0  0.4220502092041222 0 0  0.4252719665263097 0 0  0.4284937238484974 0 0  0.4317154811706849 0 0  0.4349372384928725 0 0  0.4381589958150601 0 0  0.4413807531372476 0 0  0.4446025104594352 0 0  0.4478242677816181 0 0  0.4510460251037998 0 0  0.4542677824259815 0 0  0.4574895397481634 0 0  0.4607112970703451 0 0  0.4639330543925269 0 0  0.4671548117147087 0 0  0.4703765690368904 0 0  0.4735983263590722 0 0  0.4768200836812568 0 0  0.4800418410034444 0 0  0.483263598325632 0 0  0.4864853556478196 0 0  0.4897071129700028 0 0  0.4929288702921845 0 0  0.4961506276143663 0 0  0.4993723849365479 0 0  0.5025941422587239 0 0  0.5058158995809008 0 0  0.5090376569030826 0 0  0.5122594142252677 0 0  0.515481171547461 0 0  0.5187029288696494 0 0  0.5219246861918312 0 0  0.525146443514013 0 0  0.5283682008361947 0 0  0.5315899581583845 0 0  0.5348117154805778 0 0  0.5380334728027617 0 0  0.5412552301249435 0 0  0.5444769874471141 0 0  0.5476987447692853 0 0  0.550920502091467 0 0  0.5541422594136513 0 0  0.5573640167358447 0 0  0.560585774058034 0 0  0.5638075313802158 0 0  0.5670292887023975 0 0  0.5702510460245793 0 0  0.5734728033467682 0 0  0.5766945606689615 0 0  0.579916317991155 0 0  0.5831380753133483 0 0  0.5863598326355314 0 0  0.5895815899577131 0 0  0.5928033472798949 0 0  0.5960251046020785 0 0  0.5992468619242718 0 0  0.6024686192464619 0 0  0.6056903765686437 0 0  0.6089121338908206 0 0  0.6121338912129908 0 0  0.6153556485351673 0 0  0.618577405857349 0 0  0.6217991631795386 0 0  0.625020920501732 0 0  0.6282426778239159 0 0  0.6314644351460976 0 0  0.6346861924682795 0 0  0.6379079497904622 0 0  0.6411297071126555 0 0  0.6443514644348465 0 0  0.6475732217570283 0 0  0.650794979079206 0 0  0.6540167364013761 0 0  0.6572384937235518 0 0  0.6604602510457335 0 0  0.6636820083679225 0 0  0.6669037656901158 0 0  0.6701255230123004 0 0  0.6733472803344823 0 0  0.6765690376566641 0 0  0.6797907949788459 0 0  0.6830125523010393 0 0  0.686234309623231 0 0  0.6894560669454127 0 0  0.6926778242675914 0 0  0.6958995815897615 0 0  0.6991213389119363 0 0  0.7023430962341181 0 0  0.7055648535563062 0 0  0.7087866108784994 0 0  0.712008368200685 0 0  0.7152301255228668 0 0  0.7184518828450486 0 0  0.7216736401672305 0 0  0.724895397489423 0 0  0.7281171548116155 0 0  0.7313389121337973 0 0  0.7345606694559768 0 0  0.7377824267781468 0 0  0.7410041841003209 0 0  0.7442259414225026 0 0  0.7474476987446899 0 0  0.7506694560668832 0 0  0.7538912133890696 0 0  0.7571129707112513 0 0  0.760334728033433 0 0  0.7635564853556149 0 0  0.7667782426778067 0 0  0.77 0.001685393258423789 0  0.77 0.003370786516847669 0  0.77 0.005056179775271247 0  0.77 0.006741573033694517 0  0.77 0.008426966292117821 0  0.77 0.01011235955054176 0  0.77 0.01179775280896623 0  0.77 0.0134831460673904 0  0.77 0.01516853932581489 0  0.77 0.01685393258423891 0  0.77 0.01853932584266291 0  0.77 0.02022471910108589 0  0.77 0.02191011235950794 0  0.77 0.02359550561792999 0  0.77 0.02528089887635205 0  0.77 0.02696629213477411 0  0.77 0.02865168539319714 0  0.77 0.03033707865161956 0  0.77 0.03202247191004162 0  0.77 0.03370786516846367 0  0.77 0.03539325842688572 0  0.77 0.03707865168530778 0  0.77 0.03876404494372984 0  0.77 0.0404494382021519 0  0.77 0.04213483146057394 0  0.77 0.04382022471899601 0  0.77 0.04550561797741807 0  0.77 0.04719101123584013 0  0.77 0.04887640449426219 0  0.77 0.05056179775268425 0  0.77 0.0522471910111063 0  0.77 0.05393258426952837 0  0.77 0.05561797752795105 0  0.77 0.05730337078637505 0  0.77 0.05898876404479723 0  0.77 0.0606741573032193 0  0.77 0.06235955056164135 0  0.77 0.06404494382006341 0  0.77 0.06573033707848548 0  0.77 0.06741573033690752 0  0.77 0.06910112359532959 0  0.77 0.07078651685375165 0  0.77 0.0724719101121737 0  0.77 0.07415730337059653 0  0.77 0.07584269662902443 0  0.77 0.07752808988745429 0  0.77 0.07921348314588413 0  0.77 0.08089887640431678 0  0.77 0.08258426966274923 0  0.77 0.08426966292117907 0  0.77 0.08595505617960987 0  0.77 0.08764044943804362 0  0.77 0.08932584269647403 0  0.77 0.09101123595490389 0  0.77 0.09269662921333673 0  0.77 0.09438202247176901 0  0.77 0.09606741573019884 0  0.77 0.09775280898862983 0  0.77 0.09943820224706355 0  0.77 0.1011235955054938 0  0.77 0.1028089887639236 0  0.77 0.1044943820223567 0  0.77 0.1061797752807888 0  0.77 0.1078651685392186 0  0.77 0.1095505617976498 0  0.77 0.1112359550560835 0  0.77 0.1129213483145136 0  0.77 0.1146067415729456 0  0.77 0.1162921348313787 0  0.77 0.1179775280898085 0  0.77 0.1196629213482387 0  0.77 0.1213483146066724 0  0.77 0.1230337078651035 0  0.77 0.1247191011235322 0  0.77 0.1264044943819605 0  0.77 0.1280898876403903 0  0.77 0.1297752808988242 0  0.77 0.1314606741572554 0  0.77 0.1331460674156853 0  0.77 0.1348314606741154 0  0.77 0.1365168539325504 0  0.77 0.1382022471909802 0  0.77 0.13988764044941 0  0.77 0.1415730337078443 0  0.77 0.1432584269662752 0  0.77 0.144943820224705 0  0.77 0.1466292134831355 0  0.77 0.1483146067415701 0  0.7667782426778414 0.15 0  0.7635564853556813 0.15 0  0.7603347280335111 0.15 0  0.757112970711341 0.15 0  0.7538912133891708 0.15 0  0.7506694560670005 0.15 0  0.7474476987448303 0.15 0  0.7442259414226602 0.15 0  0.74100418410049 0.15 0  0.7377824267783197 0.15 0  0.7345606694561496 0.15 0  0.7313389121339794 0.15 0  0.7281171548118092 0.15 0  0.724895397489639 0.15 0  0.7216736401674688 0.15 0  0.7184518828452986 0.15 0  0.7152301255231284 0.15 0  0.7120083682009583 0.15 0  0.708786610878788 0.15 0  0.7055648535566178 0.15 0  0.7023430962344477 0.15 0  0.6991213389122775 0.15 0  0.6958995815901072 0.15 0  0.692677824267937 0.15 0  0.6894560669457669 0.15 0  0.6862343096235967 0.15 0  0.6830125523014264 0.15 0  0.6797907949792563 0.15 0  0.6765690376570861 0.15 0  0.6733472803349159 0.15 0  0.6701255230127456 0.15 0  0.6669037656905755 0.15 0  0.6636820083684053 0.15 0  0.6604602510462351 0.15 0  0.657238493724065 0.15 0  0.6540167364018947 0.15 0  0.6507949790797245 0.15 0  0.6475732217575543 0.15 0  0.644351464435384 0.15 0  0.6411297071132231 0.15 0  0.6379079497910645 0.15 0  0.634686192468906 0.15 0  0.6314644351467468 0.15 0  0.6282426778245765 0.15 0  0.6250209205024085 0.15 0  0.62179916318025 0.15 0  0.6185774058580914 0.15 0  0.6153556485359328 0.15 0  0.6121338912137689 0.15 0  0.6089121338915987 0.15 0  0.6056903765694354 0.15 0  0.6024686192472768 0.15 0  0.5992468619251182 0.15 0  0.5960251046029597 0.15 0  0.5928033472807912 0.15 0  0.589581589958621 0.15 0  0.5863598326364508 0.15 0  0.5831380753142792 0.15 0  0.5799163179920974 0.15 0  0.57669456
[...]
<PointData  Scalars="pressure"> 
<DataArray  type="Float64"  Name="pressure"  format="ascii">1.5155227074040598e+04  1.9573346681121599e+00  -1.7835781137345101e+00  1.5162407290464338e+04  1.5129362489395355e+04  1.5109713773572772e+04  1.5092362862647047e+04  1.0977253702078036e+04  1.0960489120578959e+04  1.0945314484442091e+04  1.0930272713605244e+04  1.0915338381198293e+04  1.0900486882521487e+04  1.0885697995837128e+04  1.0870959524436556e+04  1.0856263797863889e+04  1.0841605854833271e+04  1.0826982515121364e+04  1.0812391841734210e+04  1.0797832809248439e+04  1.0783305090457554e+04  1.0768808914425816e+04  1.0754344969608732e+04  1.0739914336555588e+04  1.0725518440719223e+04  1.0711159019371991e+04  1.0696838098711265e+04  1.0682557978528657e+04  1.0668321222638042e+04  1.0654130653792130e+04  1.0639989352170611e+04  1.0625900656760108e+04  1.0611868169105908e+04  1.0597895759020994e+04  1.0583987571907073e+04  1.0570148037382069e+04  1.0556381878926661e+04  1.0542694124261816e+04  1.0529090116150745e+04  1.0515575523283547e+04  1.0502156350849491e+04  1.0488838950328156e+04  1.0475630027934760e+04  1.0462536651032282e+04  1.0449566251668764e+04  1.0436726626206975e+04  1.0424025929775709e+04  1.0411472663977576e+04  1.0399075655920185e+04  1.0386844026172266e+04  1.0374787142646850e+04  1.0362914556621887e+04  1.0351235916028047e+04  1.0339760849605027e+04  1.0328498813275790e+04  1.0317458886628703e+04  1.0306649501854001e+04  1.0296078078212237e+04  1.0285750518943780e+04  1.0275670498041274e+04  1.0265838407888261e+04  1.0256249724653508e+04  1.0246892301230697e+04  1.0237741521297034e+04  1.0228750829985842e+04  1.0219831804941545e+04  1.0210805085860791e+04  1.0201129400670578e+04  1.0188346370936484e+04  1.0164255640437352e+04  1.0123672629464991e+04  1.0083092530677644e+04  1.0042099338118365e+04  1.0001081394957793e+04  9.9602430144561058e+03  9.9197472437756551e+03  9.8797678023828248e+03  9.8405365130352420e+03  9.8024661624494147e+03  9.7664481891250343e+03  9.7336578576146476e+03  9.6919868241101831e+03  9.6331330942435798e+03  9.5812623462115498e+03  9.5319848977731017e+03  9.4840672228350413e+03  9.4370294586153723e+03  9.3906231173033884e+03  9.3447038481333821e+03  9.2991813675823378e+03  9.2539959587120829e+03  9.2091062774937218e+03  9.1644824761839791e+03  9.1201020655961438e+03  9.0759472978977719e+03  9.0320034464118744e+03  8.9882576419144953e+03  8.9446980689532320e+03  8.9013134034144314e+03  8.8580924167840622e+03  8.8150236989940604e+03  8.7720954682880656e+03  8.7292954472667425e+03  8.6866107913665692e+03  8.6440280606871911e+03  8.6015332290000079e+03  8.5591117253671855e+03  8.5167485043872330e+03  8.4744281409186679e+03  8.4321349444763564e+03  8.3898530876076165e+03  8.3475667416957749e+03  8.3052602130422911e+03  8.2629180719276119e+03  8.2205252677516346e+03  8.1780672243237068e+03  8.1355299108313156e+03  8.0928998858187797e+03  8.0501643134516762e+03  8.0073109532245544e+03  7.9643281259055830e+03  7.9212046597698563e+03  7.8779298219865495e+03  7.8344932403870125e+03  7.7908848208035915e+03  7.7470946648112476e+03  7.7031129921252659e+03  7.6589300712034910e+03  7.6145361608491721e+03  7.5699214648725338e+03  7.5250761011821132e+03  7.4799900860603630e+03  7.4346533338362988e+03  7.3890556716979982e+03  7.3431868689814119e+03  7.2970366799224357e+03  7.2505948985602599e+03  7.2038514242283154e+03  7.1567963358654533e+03  7.1094199732204825e+03  7.0617130229104978e+03  7.0136666072236449e+03  6.9652723735277714e+03  6.9165225821532658e+03  6.8674101906597371e+03  6.8179289324668043e+03  6.7680733879336976e+03  6.7178390461111539e+03  6.6672223555686505e+03  6.6162207629250161e+03  6.5648327379851880e+03  6.5130577847089717e+03  6.4608964376036283e+03  6.4083502435269911e+03  6.3554217292944404e+03  6.3021143558776484e+03  6.2484324603399891e+03  6.1943811869524980e+03  6.1399664091519071e+03  6.0851946441299424e+03  6.0300729618725845e+03  5.9746088904055187e+03  5.9188103188526920e+03  5.8626853996997479e+03  5.8062424513903716e+03  5.7494898620883378e+03  5.6924359951405477e+03  5.6350890964848031e+03  5.5774572039814802e+03  5.5195480584236311e+03  5.4613690157964229e+03  5.4029269602260601e+03  5.3442282169789223e+03  5.2852784648367733e+03  5.2260826471954633e+03  5.1666448812925955e+03  5.1069683650726538e+03  5.0470552813424410e+03  4.9869066990429201e+03  4.9265224716803395e+03  4.8659011332053296e+03  4.8050397919102097e+03  4.7439340232349450e+03  4.6825777627239013e+03  4.6209632007660903e+03  4.5590806811735474e+03  4.4969186061002110e+03  4.4344633502743554e+03  4.3716991879852440e+03  4.3086082367213057e+03  4.2451704217666484e+03  4.1813634663904668e+03  4.1171629124756237e+03  4.0525421764703256e+03  3.9874726453657127e+03  3.9219238169551645e+03  3.8558634878652038e+03  3.7892579917458129e+03  3.7220724885470531e+03  3.6542713040151011e+03  3.5858183164648917e+03  3.5166773856098130e+03  3.4468128158886557e+03  3.3761898444763196e+03  3.3047751421736571e+03  3.2325373138356072e+03  3.1594473840689820e+03  3.0854792537444696e+03  3.0106101134981050e+03  2.9348208018307614e+03  2.8580960975889857e+03  2.7804249393650921e+03  2.7018005674910446e+03  2.6222205875844375e+03  2.5416869577846110e+03  2.4602059046858494e+03  2.3777877753532293e+03  2.2944468345759410e+03  2.2102010176398198e+03  2.1250716493822265e+03  2.0390831401969886e+03  1.9522626690929576e+03  1.8646398629751134e+03  1.7762464801529588e+03  1.6871161047872895e+03  1.5972838576639981e+03  1.5067861274164286e+03  1.4156603251517386e+03  1.3239446644262198e+03  1.2316779676877582e+03  1.1388994996870415e+03  1.0456488280222695e+03  9.5196571102779546e+02  8.5789001391705460e+02  7.6346165616854898e+02  6.6872059838397399e+02  5.7370688848820703e+02  4.7846082551213311e+02  3.8302362806818326e+02  2.8743968457066416e+02  1.9174769818067085e+02  9.5974138710475671e+01  4.0719703601294771e-01  2.0288038141785262e-02  2.9657631187452573e-03  3.5622155385815963e-04  -1.6973017095736830e-03  -3.2310982095684611e-03  -4.4686743792046171e-03  -5.5580266606432777e-03  -6.5690868987103588e-03  -7.5357212373450017e-03  -8.4753054896209417e-03  -9.3971720031138552e-03  -1.0306496578110648e-02  -1.1206192279547148e-02  -1.2097877606088272e-02  -1.2982393292731854e-02  -1.3860089068219152e-02  -1.4730988299513163e-02  -1.5594885377063999e-02  -1.6451404806412676e-02  -1.7300037851463234e-02  -1.8140165683989004e-02  -1.8971074255076794e-02  -1.9791964013143447e-02  -2.0601956391886334e-02  -2.1400098282454160e-02  -2.2185365277347713e-02  -2.2956664209876094e-02  -2.3712835347643388e-02  -2.4452654492746365e-02  -2.5174835171821650e-02  -2.5878031054058049e-02  -2.6560838703195699e-02  -2.7221800748736057e-02  -2.7859409546358280e-02  -2.8472111383615405e-02  -2.9058311281412137e-02  -2.9616378429979950e-02  -3.0144652292908296e-02  -3.0641449404116543e-02  -3.1105070875068887e-02  -3.1533810620562097e-02  -3.1925964301353950e-02  -3.2279838970876953e-02  -3.2593763399410162e-02  -3.2866099037459941e-02  -3.3095251559837280e-02  -3.3279682917185173e-02  -3.3417923803179435e-02  -3.3508586422109285e-02  -3.3550377423009328e-02  -3.3542110845442841e-02  -3.3482720900371542e-02  -3.3371274387857093e-02  -3.3206982540729221e-02  -3.2989212065138128e-02  -3.2717495138584143e-02  -3.2391538121334579e-02  -3.2011228737635893e-02  -3.1576641488001406e-02  -3.1088041063966322e-02  -3.0545883559700414e-02  -2.9950815293786577e-02  -2.9303669080896391e-02  -2.8605457821882625e-02  -2.7857365304246491e-02  -2.7060734121078407e-02  -2.6217050615921014e-02  -2.5327926746686453e-02  -2.4395078701205525e-02  -2.3420302005344566e-02  -2.2405442716680948e-02  -2.1352364101163483e-02  -2.0262907979930241e-02  -1.9138849838737423e-02  -1.7981847135769512e-02  -1.6793381879548895e-02  -1.5574703464583926e-02  -1.4326790093108218e-02  -1.3050371218156991e-02  -1.1746059638915647e-02  -1.0414319806920798e-02  -9.0510475554873085e-03  -7.5695711771800039e-03  -4.6063339409972114e-03  1.4700339565347994e-02  1.3943065860879972e-01  7.9013070271826857e-02  1.1652742073457055e+02  2.3484843455565010e+02  3.5258857680435437e+02  4.7047209624818998e+02  5.8858183778183991e+02  7.0697942455223586e+02  8.2573002503322095e+02  9.4489871103717860e+02  1.0645512268836821e+03  1.1847543933322986e+03  1.3055761016870576e+03  1.4270850155416147e+03  1.5493499502827403e+03  1.6724388481768610e+03  1.7964172339296647e+03  1.9213460160400305e+03  2.0472785122136779e+03  2.1742566729340106e+03  2.3023067744854866e+03  2.4314356228149359e+03  2.5616301503625609e+03  2.6928677903064081e+03  2.8251605283508543e+03  2.9587036692915590e+03  3.0939592465248202e+03  3.2284153814156548e+03  3.3444656225274039e+03  3.4263250961008371e+03  3.4967771534336944e+03  3.5479527485815192e+03  3.5820946263275550e+03  3.6154575167928424e+03  3.6404309783506578e+03  3.6654301339004774e+03  3.6910438326434037e+03  3.7170478779986738e+03  3.7426026148783908e+03  3.7677439761985734e+03  3.7975153373378544e+03  3.8324310761764696e+03  3.8651964958463636e+03  3.8972182127040469e+03  3.9305286646112772e+03  3.9694435522851113e+03  4.0140030024530279e+03  4.0547164359032085e+03  4.0870951945165748e+03  4.1273093554339921e+03  4.1771925693127314e+03  4.2268202797100894e+03  4.2775485896102928e+03  4.3299026475698747e+03  4.3843891787118037e+03  4.4412747656564434e+03  4.5007822034865976e+03  4.5631383073381785e+03  4.6287098821966401e+03  4.6983082055241020e+03  4.7736637289551836e+03  4.8555753004532480e+03  4.9337442159758111e+03  4.9935013390084723e+03  5.0478686061821973e+03  5.1075132168367909e+03  5.1737653467818345e+03  7.1895801490399053e+03  7.2749086968742158e+03  7.3650588532765451e+03  7.4554923377989453e+03  7.5410787038489616e+03  5.5662379109209214e+03  7.7271923701275300e+03  5.6935449742886894e+03  5.7635072086849832e+03  7.9950725665911477e+03  8.0692473171504789e+03  5.9443519998253278e+03  8.2439121763740095e+03  8.3167453438814482e+03  6.1238792726999627e+03  8.4899859281092740e+03  8.5628596286807388e+03  6.3033720168519485e+03  8.7365367068009928e+03  8.8090903635356408e+03  6.4816827359078325e+03  8.9785119489379831e+03  9.0472906457471345e+03  6.6506621767413972e+03  9.2033067698729865e+03  9.2647119032419487e+03  6.8001363597347290e+03  6.8519206291672899e+03  9.4632711602414311e+03  6.9394656783744404e+03  9.5853445473076372e+03  9.6355511806026479e+03  7.0619826761992090e+03  7.1065929871993831e+03  9.8090776833640157e+03  9.8592079361356427e+03  9.9080055708455511e+03  7.2574925125505815e+03  7.2984215523416769e+03  1.0064747841121989e+04  7.3701066839854411e+03  1.0176205279221576e+04  1.0237321940286216e+04  1.0297205963640117e+04  1.0358423400550160e+04  7.5870672069182765e+03  1.0472769072329025e+04  1.0527714765719931e+04  7.7085944900211134e+03  1.0629457586477072e+04  7.7813669220674474e+03  1.0730347284382713e+04  7.8540872799398867e+03  7.8956685231928368e+03  1.0889616837093839e+04  1.0937945361171342e+04  1.0985818297020134e+04  8.0441389727588730e+03  1.1095129384160840e+04  1.1140923990768755e+04  8.1569493855085020e+03  1.1250143454902314e+04  1.1298333066040277e+04  1.1345848826223984e+04  8.3060216072963194e+03  1.1454469572033489e+04  1.1502712018011924e+04  1.1552775407709834e+04  1.1602499531557200e+04  1.1649496474773170e+04  8.5266499270466775e+03  1.1756254713475964e+04  1.1800995536267226e+04  8.6368953363053115e+03  1.1908162890262343e+04  1.1956094037192199e+04  1.2005699868322190e+04  1.2052656697349856e+04  8.8190176373566228e+03  8.8604605353033676e+03  1.2213943945125431e+04  1.2262405491777512e+04  1.2310794283278916e+04  9.0104337216465356e+03  1.2425918549677936e+04  1.2482533179926009e+04  1.2531795460287251e+04  9.1580950488588842e+03  9.1951686547900827e+03  9.2306775440056335e+03  9.2665007667197842e+03  9.3025240380722335e+03  9.3385947287215167e+03  9.3746132658596416e+03  9.4104870558854673e+03  9.4461224723915911e+03  9.4814210575548841e+03  9.5162768425031118e+03  9.5505756620185839e+03  9.5842006984496984e+03  9.6170568746894332e+03  9.6491279143274769e+03  9.6805181386228087e+03  9.7113386112608096e+03  9.7416103139564148e+03  9.7716797612755272e+03  9.8030601846209065e+03  9.8415228836837287e+03  9.8870603287737449e+03  9.9105118428936803e+03  9.9358550310794690e+03  9.9591658405318631e+03  9.9809896157079584e+03  1.0002096698850339e+04  1.0022798203757673e+04  1.0043497788858704e+04  1.0063898290371964e+04  1.0085872079762512e+04  1.0111998768709096e+04  1.0128059471872733e+04  1.0152482129474551e+04  1.0184428818242883e+04  1.0205047257956410e+04  1.4033417753559334e+04  1.0253139809655551e+04  1.0276075495427094e+04  1.4125763295331886e+04  1.0307232605316407e+04  1.0328098623027492e+04  1.4197677991332468e+04  1.0359802231095338e+04  1.0378702486237968e+04  1.4265415571033769e+04  1.4279725743452696e+04  1.0417352502745269e+04  1.4323522467112605e+04  1.4349759720792006e+04  1.0466981117014064e+04  1.0487328387885014e+04  1.0503651984884609e+04  1.4440383361010348e+04  1.0538258904611399e+04  1.0557174725305782e+04  1.0572947665446774e+04  1.4532834989000045e+04  1.0599266014435394e+04  1.0619025063909083e+04  1.0635406224448254e+04  1.0651060832648140e+04  1.0664723104608591e+04  1.0676056806957740e+04  1.0693024300644309e+04  1.0708702370700079e+04  1.0725347628052636e+04  1.0743326902676430e+04  1.0761329719911359e+04  1.0778841844224000e+04  1.0795835032187526e+04  1.0812220945075698e+04  1.0828575554937863e+04  1.0846170699107504e+04  1.0864251930663831e+04  1.0882088391253357e+04  1.0899153151872781e+04  1.0915308279127654e+04  1.0931696419855238e+04  1.0947154099319245e+04  1.0958609640710672e+04  1.0972446702862122e+04  1.0988113898429861e+04  1.5102219659829630e+04  1.5119757702706018e+04  1.5139458507191604e+04  1.5160044006654396e+04  1.5158935353014856e+04  1.5158166985130863e+04  1.5157446599994968e+04  1.5156712478925436e+04  1.5155958747085044e+04  1.5155190399513158e+04  1.5154414018763813e+04  1.5153635905143232e+04  1.5152861673828020e+04  1.5152096188128102e+04  1.5151343585393743e+04  1.5150607329843551e+04  1.5149890272764036e+04  1.5149194714247169e+04  1.5148522464348514e+04  1.5147874902365355e+04  1.5147253033155972e+04  1.5146657539636448e+04  1.5146088830862936e+04  1.5145547085386066e+04  1.5145032289808431e+04  1.5144544272666490e+04  1.5144082733892672e+04  1.5143647270198337e+04  1.5143237396763465e+04  1.5142852565634132e+04  1.5142492181223093e+04  1.5142155613288796e+04  1.5141842207739761e+04  1.5141551295579169e+04  1.5141282200269769e+04  1.5141034243766499e+04  1.5140806751432103e+04  1.5140599056022249e+04  1.5140410500900291e+04  1.5140240442618595e+04  1.5140088252983265e+04  1.5139953320701001e+04  1.5139835052692262e+04  1.5139732875141593e+04  1.5139646234345508e+04  1.5139574597408851e+04  1.5139517452833234e+04  1.5139474311035019e+04  1.5139444704824979e+04  1.5139428189878314e+04  1.5139424345220141e+04  1.5139432773749697e+04  1.5139453102825015e+04  1.5139484984929093e+04  1.5139528098438303e+04  1.5139582148514788e+04  1.5139646868145788e+04  1.5139722019354578e+04  1.5139807394610829e+04  1.5139902818471881e+04  1.5140008149490706e+04  1.5140123282432389e+04  1.5140248150847616e+04  1.5140382730060081e+04  1.5140527040634623e+04  1.5140681152404337e+04  1.5140845189148065e+04  1.5141019334025139e+04  1.5141203835889341e+04  1.5141399016621124e+04  1.5141605279630166e+04  1.5141823119688146e+04  1.5142053134244103e+04  1.5142296036338603e+04  1.5142552669142784e+04  1.5142824021959650e+04  1.5143111247160554e+04  1.5143415676858782e+04  1.5143738836921268e+04  1.5144082453834004e+04  1.5144448446438968e+04  1.5144838889064848e+04  1.5145255925091929e+04  1.5145701603547852e+04  1.5146177617847772e+04  1.5146684972125769e+04  1.5147223713945994e+04  1.5147793189400987e+04  1.5148396771756381e+04  1.5149093374759557e+04  1.5150381060777408e+04  1.5129731373788418e+04  1.5129178315038247e+04  1.5128554339682265e+04  1.5127952602042566e+04  1.5127380227672229e+04  1.5126839661900633e+04  1.5126332331310141e+04  1.5125857861528480e+04  1.5125414632603053e+04  1.5125000430773351e+04  1.5124612868624870e+04  1.5124249613842689e+04  1.5123908501077392e+04  1.5123587578078888e+04  1.5123285116435021e+04  1.5122999604224047e+04  1.5122729730259314e+04  1.5122474365214268e+04  1.5122232542417265e+04  1.5122003439700717e+04  1.5121786362911829e+04  1.5121580731272858e+04  1.5121386064561917e+04  1.5121201971981527e+04  1.5121028142540599e+04  1.5120864336767101e+04  1.5120710379576754e+04  1.5120566154139362e+04  1.5120431596602306e+04  1.5120306691549720e+04  1.5120191468092655e+04  1.5120085996500977e+04  1.5119990385301146e+04  1.5119904778775182e+04  1.5119829354806172e+04  1.5119764323023355e+04  1.5119709923206703e+04  1.5119666423916522e+04  1.5119634121317806e+04  1.5119613338172758e+04  1.5119604422977562e+04  1.5119607749221455e+04  1.5119623714747415e+04  1.5119652741194326e+04  1.5119695273500549e+04  1.5119751779448154e+04  1.5119822749225475e+04  1.5119908694983855e+04  1.5120010150361306e+04  1.5120127669942056e+04  1.5120261828616271e+04  1.5120413220797993e+04  1.5120582459452371e+04  1.5120770174874109e+04  1.5120977013148893e+04  1.5121203634216639e+04  1.5121450709440893e+04  1.5121718918571387e+04  1.5122008945966545e+04  1.5122321475919800e+04  1.5122657186907227e+04  1.5123016744544610e+04  1.5123400793009472e+04  1.5123809944648892e+04  1.5124244767457320e+04  1.5124705770072422e+04  1.5125193383903525e+04  1.5125707941980148e+04  1.5126249654092982e+04  1.5126818577803013e+04  1.5127414584925998e+04  1.5128037323170027e+04  1.5128686172725947e+04  1.5129360197797458e+04  1.5130058093318243e+04  1.5130778127433716e+04  1.5131518080690870e+04  1.5132275183178472e+04  1.5133046050868523e+04  1.5133826621746997e+04  1.5134612090672301e+04  1.5135396839969220e+04  1.5136174361418794e+04  1.5136937127056182e+04  1.5137675908965492e+04  1.5138374981611747e+04  1.5138986712834934e+04  1.5139348379121324e+04  1.5109680314327263e+04  1.5109208210981018e+04  1.5108627518340112e+04  1.5108007869139981e+04  1.5107415948876309e+04  1.5106868157683402e+04  1.5106363660013809e+04  1.5105897827084498e+04  1.5105465876611428e+04  1.5105063668997889e+04  1.5104687760743949e+04  1.5104335298233067e+04  1.5104003902361508e+04  1.5103691575053632e+04  1.5103396628301118e+04  1.5103117630542378e+04  1.5102853365489003e+04  1.5102602799829599e+04  1.5102365057381612e+04  1.5102139398053529e+04  1.5101925200494772e+04  1.5101721947640795e+04  1.5101529214576065e+04  1.5101346658281054e+04  1.5101174008928803e+04  1.5101011062467691e+04  1.5100857674279650e+04  1.5100713753743170e+04  1.5100579259561440e+04  1.5100454195740693e+04  1.5100338608123378e+04  1.5100232581396946e+04  1.5100136236511802e+04  1.5100049728452690e+04  1.5099973244316472e+04  1.5099907001656316e+04  1.5099851247058203e+04  1.5099806254920410e+04  1.5099772326410328e+04  1.5099749788576175e+04  1.5099738993593322e+04  1.5099740318126749e+04  1.5099754162792258e+04  1.5099780951699529e+04  1.5099821132060224e+04  1.5099875173843817e+04  1.5099943569462603e+04  1.5100026833465627e+04  1.5100125502218936e+04  1.5100240133546200e+04  1.5100371306299687e+04  1.5100519619826526e+04  1.5100685693288737e+04  1.5100870164788003e+04  1.5101073690236619e+04  1.5101296941905110e+04  1.5101540606563305e+04  1.5101805383116018e+04  1.5102091979615263e+04  1.5102401109508741e+04  1.5102733486958094e+04  1.5103089821030002e+04  1.5103470808527924e+04  1.5103877125192321e+04  1.5104309414952295e+04  1.5104768276862196e+04  1.5105254249304075e+04  1.5105767790983627e+04  1.5106309258195928e+04  1.5106878877795662e+04  1.5107476715282008e+04  1.5108102637416485e+04  1.5108756268852307e+04  1.5109436942398983e+04  1.5110143642821173e+04  1.5110874944540503e+04  1.5111628944336415e+04  1.5112403191100277e+04  1.5113194615428547e+04  1.5113999460376510e+04  1.5114813204436254e+04  1.5115630429342757e+04  1