<?xml version="1.0"?>
<VTKFile type="UnstructuredGrid"  version="0.1"  >
<UnstructuredGrid>
<Piece  NumberOfPoints="21600" NumberOfCells="42542">
<Points>
<DataArray  type="Float64"  NumberOfComponents="3"  format="ascii">0 0 0  0.77 0 0  0.77 0.15 0  0 0.15 0  0.003221757322170014 0 0  0.006443514644340046 0 0  0.009665271966510193 0 0  0.01288702928868034 0 0  0.01610878661085048 0 0  0.01933054393302049 0 0  0.02255230125519027 0 0  0.02577405857735967 0 0  0.02899581589952872 0 0  0.03221757322169801 0 0  0.03543933054386744 0 0  0.03866108786603686 0 0  0.04188284518820627 0 0  0.0451046025103757 0 0  0.04832635983254521 0 0  0.05154811715471607 0 0  0.05476987447688695 0 0  0.05799163179905782 0 0  0.06121338912122846 0 0  0.06443514644339859 0 0  0.06765690376556875 0 0  0.0708786610877389 0 0  0.07410041840990904 0 0  0.0773221757320792 0 0  0.08054393305425039 0 0  0.08376569037642198 0 0  0.0869874476985936 0 0  0.09020920502076518 0 0  0.0934309623429339 0 0  0.0966527196651024 0 0  0.09987447698726967 0 0  0.1030962343094369 0 0  0.1063179916316041 0 0  0.1095397489537714 0 0  0.1127615062759386 0 0  0.1159832635981051 0 0  0.1192050209202709 0 0  0.1224267782424358 0 0  0.1256485355646001 0 0  0.1288702928867644 0 0  0.1320920502089288 0 0  0.1353138075310958 0 0  0.1385355648532632 0 0  0.1417573221754333 0 0  0.1449790794976035 0 0  0.1482008368197736 0 0  0.1514225941419428 0 0  0.1546443514641101 0 0  0.157866108786276 0 0  0.1610878661084403 0 0  0.1643096234306047 0 0  0.167531380752769 0 0  0.1707531380749333 0 0  0.1739748953970977 0 0  0.177196652719262 0 0  0.1804184100414264 0 0  0.1836401673635935 0 0  0.1868619246857611 0 0  0.1900836820079313 0 0  0.1933054393301014 0 0  0.1965271966522716 0 0  0.1997489539744406 0 0  0.2029707112966078 0 0  0.2061924686187736 0 0  0.209414225940938 0 0  0.2126359832631022 0 0  0.2158577405852666 0 0  0.219079497907431 0 0  0.2223012552295953 0 0  0.2255230125517597 0 0  0.2287447698739242 0 0  0.2319665271960914 0 0  0.2351882845182592 0 0  0.2384100418404293 0 0  0.2416317991625994 0 0  0.2448535564847696 0 0  0.2480753138069371 0 0  0.2512970711291014 0 0  0.2545188284512658 0 0  0.2577405857734302 0 0  0.2609623430955986 0 0  0.2641841004177688 0 0  0.2674058577399389 0 0  0.270627615062109 0 0  0.2738493723842792 0 0  0.2770711297064487 0 0  0.280292887028613 0 0  0.2835146443507774 0 0  0.2867364016729417 0 0  0.2899581589951061 0 0  0.2931799163172705 0 0  0.2964016736394348 0 0  0.2996234309615992 0 0  0.3028451882837672 0 0  0.3060669456059373 0 0  0.3092887029281075 0 0  0.3125104602502776 0 0  0.3157322175724478 0 0  0.3189539748946177 0 0  0.322175732216782 0 0  0.3253974895389464 0 0  0.3286192468611107 0 0  0.3318410041832751 0 0  0.3350627615054395 0 0  0.3382845188276038 0 0  0.3415062761497681 0 0  0.3447280334719325 0 0  0.3479497907940968 0 0  0.3511715481162612 0 0  0.3543933054384255 0 0  0.3576150627605947 0 0  0.3608368200827649 0 0  0.364058577404935 0 0  0.3672803347271051 0 0  0.3705020920492753 0 0  0.373723849371444 0 0  0.3769456066936084 0 0  0.3801673640157748 0 0  0.383389121337945 0 0  0.3866108786601209 0 0  0.3898326359823028 0 0  0.3930543933044846 0 0  0.3962761506266662 0 0  0.399497907948848 0 0  0.4027196652710298 0 0  0.4059414225932116 0 0  0.4091631799153934 0 0  0.4123849372375751 0 0  0.4156066945597569 0 0  0.4188284518819387 0 0  0.4220502092041222 0 0  0.4252719665263097 0 0  0.4284937238484974 0 0  0.4317154811706849 0 0  0.4349372384928725 0 0  0.4381589958150601 0 0  0.4413807531372476 0 0  0.4446025104594352 0 0  0.4478242677816181 0 0  0.4510460251037998 0 0  0.4542677824259815 0 0  0.4574895397481634 0 0  0.4607112970703451 0 0  0.4639330543925269 0 0  0.4671548117147087 0 0  0.4703765690368904 0 0  0.4735983263590722 0 0  0.4768200836812568 0 0  0.4800418410034444 0 0  0.483263598325632 0 0  0.4864853556478196 0 0  0.4897071129700028 0 0  0.4929288702921845 0 0  0.4961506276143663 0 0  0.4993723849365479 0 0  0.5025941422587239 0 0  0.5058158995809008 0 0  0.5090376569030826 0 0  0.5122594142252677 0 0  0.515481171547461 0 0  0.5187029288696494 0 0  0.5219246861918312 0 0  0.525146443514013 0 0  0.5283682008361947 0 0  0.5315899581583845 0 0  0.5348117154805778 0 0  0.5380334728027617 0 0  0.5412552301249435 0 0  0.5444769874471141 0 0  0.5476987447692853 0 0  0.550920502091467 0 0  0.5541422594136513 0 0  0.5573640167358447 0 0  0.560585774058034 0 0  0.5638075313802158 0 0  0.5670292887023975 0 0  0.5702510460245793 0 0  0.5734728033467682 0 0  0.5766945606689615 0 0  0.579916317991155 0 0  0.5831380753133483 0 0  0.5863598326355314 0 0  0.5895815899577131 0 0  0.5928033472798949 0 0  0.5960251046020785 0 0  0.5992468619242718 0 0  0.6024686192464619 0 0  0.6056903765686437 0 0  0.6089121338908206 0 0  0.6121338912129908 0 0  0.6153556485351673 0 0  0.618577405857349 0 0  0.6217991631795386 0 0  0.625020920501732 0 0  0.6282426778239159 0 0  0.6314644351460976 0 0  0.6346861924682795 0 0  0.6379079497904622 0 0  0.6411297071126555 0 0  0.6443514644348465 0 0  0.6475732217570283 0 0  0.650794979079206 0 0  0.6540167364013761 0 0  0.6572384937235518 0 0  0.6604602510457335 0 0  0.6636820083679225 0 0  0.6669037656901158 0 0  0.6701255230123004 0 0  0.6733472803344823 0 0  0.6765690376566641 0 0  0.6797907949788459 0 0  0.6830125523010393 0 0  0.686234309623231 0 0  0.6894560669454127 0 0  0.6926778242675914 0 0  0.6958995815897615 0 0  0.6991213389119363 0 0  0.7023430962341181 0 0  0.7055648535563062 0 0  0.7087866108784994 0 0  0.712008368200685 0 0  0.7152301255228668 0 0  0.7184518828450486 0 0  0.7216736401672305 0 0  0.724895397489423 0 0  0.7281171548116155 0 0  0.7313389121337973 0 0  0.7345606694559768 0 0  0.7377824267781468 0 0  0.7410041841003209 0 0  0.7442259414225026 0 0  0.7474476987446899 0 0  0.7506694560668832 0 0  0.7538912133890696 0 0  0.7571129707112513 0 0  0.760334728033433 0 0  0.7635564853556149 0 0  0.7667782426778067 0 0  0.77 0.001685393258423789 0  0.77 0.003370786516847669 0  0.77 0.005056179775271247 0  0.77 0.006741573033694517 0  0.77 0.008426966292117821 0  0.77 0.01011235955054176 0  0.77 0.01179775280896623 0  0.77 0.0134831460673904 0  0.77 0.01516853932581489 0  0.77 0.01685393258423891 0  0.77 0.01853932584266291 0  0.77 0.02022471910108589 0  0.77 0.02191011235950794 0  0.77 0.02359550561792999 0  0.77 0.02528089887635205 0  0.77 0.02696629213477411 0  0.77 0.02865168539319714 0  0.77 0.03033707865161956 0  0.77 0.03202247191004162 0  0.77 0.03370786516846367 0  0.77 0.03539325842688572 0  0.77 0.03707865168530778 0  0.77 0.03876404494372984 0  0.77 0.0404494382021519 0  0.77 0.04213483146057394 0  0.77 0.04382022471899601 0  0.77 0.04550561797741807 0  0.77 0.04719101123584013 0  0.77 0.04887640449426219 0  0.77 0.05056179775268425 0  0.77 0.0522471910111063 0  0.77 0.05393258426952837 0  0.77 0.05561797752795105 0  0.77 0.05730337078637505 0  0.77 0.05898876404479723 0  0.77 0.0606741573032193 0  0.77 0.06235955056164135 0  0.77 0.06404494382006341 0  0.77 0.06573033707848548 0  0.77 0.06741573033690752 0  0.77 0.06910112359532959 0  0.77 0.07078651685375165 0  0.77 0.0724719101121737 0  0.77 0.07415730337059653 0  0.77 0.07584269662902443 0  0.77 0.07752808988745429 0  0.77 0.07921348314588413 0  0.77 0.08089887640431678 0  0.77 0.08258426966274923 0  0.77 0.08426966292117907 0  0.77 0.08595505617960987 0  0.77 0.08764044943804362 0  0.77 0.08932584269647403 0  0.77 0.09101123595490389 0  0.77 0.09269662921333673 0  0.77 0.09438202247176901 0  0.77 0.09606741573019884 0  0.77 0.09775280898862983 0  0.77 0.09943820224706355 0  0.77 0.1011235955054938 0  0.77 0.1028089887639236 0  0.77 0.1044943820223567 0  0.77 0.1061797752807888 0  0.77 0.1078651685392186 0  0.77 0.1095505617976498 0  0.77 0.1112359550560835 0  0.77 0.1129213483145136 0  0.77 0.1146067415729456 0  0.77 0.1162921348313787 0  0.77 0.1179775280898085 0  0.77 0.1196629213482387 0  0.77 0.1213483146066724 0  0.77 0.1230337078651035 0  0.77 0.1247191011235322 0  0.77 0.1264044943819605 0  0.77 0.1280898876403903 0  0.77 0.1297752808988242 0  0.77 0.1314606741572554 0  0.77 0.1331460674156853 0  0.77 0.1348314606741154 0  0.77 0.1365168539325504 0  0.77 0.1382022471909802 0  0.77 0.13988764044941 0  0.77 0.1415730337078443 0  0.77 0.1432584269662752 0  0.77 0.144943820224705 0  0.77 0.1466292134831355 0  0.77 0.1483146067415701 0  0.7667782426778414 0.15 0  0.7635564853556813 0.15 0  0.7603347280335111 0.15 0  0.757112970711341 0.15 0  0.7538912133891708 0.15 0  0.7506694560670005 0.15 0  0.7474476987448303 0.15 0  0.7442259414226602 0.15 0  0.74100418410049 0.15 0  0.7377824267783197 0.15 0  0.7345606694561496 0.15 0  0.7313389121339794 0.15 0  0.7281171548118092 0.15 0  0.724895397489639 0.15 0  0.7216736401674688 0.15 0  0.7184518828452986 0.15 0  0.7152301255231284 0.15 0  0.7120083682009583 0.15 0  0.708786610878788 0.15 0  0.7055648535566178 0.15 0  0.7023430962344477 0.15 0  0.6991213389122775 0.15 0  0.6958995815901072 0.15 0  0.692677824267937 0.15 0  0.6894560669457669 0.15 0  0.6862343096235967 0.15 0  0.6830125523014264 0.15 0  0.6797907949792563 0.15 0  0.6765690376570861 0.15 0  0.6733472803349159 0.15 0  0.6701255230127456 0.15 0  0.6669037656905755 0.15 0  0.6636820083684053 0.15 0  0.6604602510462351 0.15 0  0.657238493724065 0.15 0  0.6540167364018947 0.15 0  0.6507949790797245 0.15 0  0.6475732217575543 0.15 0  0.644351464435384 0.15 0  0.6411297071132231 0.15 0  0.6379079497910645 0.15 0  0.634686192468906 0.15 0  0.6314644351467468 0.15 0  0.6282426778245765 0.15 0  0.6250209205024085 0.15 0  0.62179916318025 0.15 0  0.6185774058580914 0.15 0  0.6153556485359328 0.15 0  0.6121338912137689 0.15 0  0.6089121338915987 0.15 0  0.6056903765694354 0.15 0  0.6024686192472768 0.15 0  0.5992468619251182 0.15 0  0.5960251046029597 0.15 0  0.5928033472807912 0.15 0  0.589581589958621 0.15 0  0.5863598326364508 0.15 0  0.5831380753142792 0.15 0  0.5799163179920974 0.15 0  0.57669456
[...]
<PointData  Scalars="pressure"> 
<DataArray  type="Float64"  Name="pressure"  format="ascii">2.7644386477208267e+04  2.1662694172068018e+00  -1.6080538454749953e+00  2.7632094087876078e+04  2.7618533950330271e+04  2.7598932343791763e+04  2.7581652931819030e+04  2.0075347832682295e+04  2.0058719843807325e+04  2.0043703732141461e+04  2.0028850453589464e+04  2.0014134939730538e+04  1.9999533061087724e+04  1.9985025136792054e+04  1.9970599527392897e+04  1.9956249135522863e+04  1.9941969581812849e+04  1.9927758265178705e+04  1.9913613810234041e+04  1.9899535717877341e+04  1.9885524130967813e+04  1.9871579667765756e+04  1.9857703296171137e+04  1.9843896232409934e+04  1.9830159853494089e+04  1.9816495615761112e+04  1.9802904973121822e+04  1.9789389288745570e+04  1.9775949732803663e+04  1.9762587156025143e+04  1.9749301923065905e+04  1.9736093680654438e+04  1.9722961021172516e+04  1.9709900955800746e+04  1.9696907963581583e+04  1.9683972154375515e+04  1.9671076022690471e+04  1.9658192822753332e+04  1.9645289335411639e+04  1.9632255727485899e+04  1.9616993761911428e+04  1.9577409055916618e+04  1.9490946324401855e+04  1.9404655213263737e+04  1.9318045241836826e+04  1.9231333256235455e+04  1.9144618591945782e+04  1.9057951387405657e+04  1.8971360176551654e+04  1.8884862479087868e+04  1.8798469494387165e+04  1.8712188371881293e+04  1.8626023404538311e+04  1.8539976703450851e+04  1.8454048603783183e+04  1.8368237924141620e+04  1.8282542143143750e+04  1.8196957528396604e+04  1.8111479238209355e+04  1.8026101408198778e+04  1.7940817230256478e+04  1.7855619028545141e+04  1.7770498335448265e+04  1.7685445969271634e+04  1.7600452114725333e+04  1.7515506406662971e+04  1.7430598017125965e+04  1.7345715745389993e+04  1.7260848110408671e+04  1.7175983444785026e+04  1.7091109989174023e+04  1.7006215985833682e+04  1.6921289769906220e+04  1.6836319856933624e+04  1.6751295025098192e+04  1.6666204390733190e+04  1.6581037475767931e+04  1.6495784265949555e+04  1.6410435258912021e+04  1.6324981501423590e+04  1.6239414615427502e+04  1.6153726812775558e+04  1.6067910898831788e+04  1.5981960265376210e+04  1.5895868873459653e+04  1.5809631227045291e+04  1.5723242338412492e+04  1.5636697686401494e+04  1.5549993168639321e+04  1.5463125048916669e+04  1.5376089900886725e+04  1.5288884549236142e+04  1.5201506009443910e+04  1.5113951427195407e+04  1.5026218018468884e+04  1.4938303011256692e+04  1.4850203589828625e+04  1.4761916842389612e+04  1.4673439712929247e+04  1.4584768958002031e+04  1.4495901109117165e+04  1.4406832441349428e+04  1.4317558948707278e+04  1.4228076326709768e+04  1.4138379962527688e+04  1.4048464932939947e+04  1.3958326010236724e+04  1.3867957676077860e+04  1.3777354143182538e+04  1.3686509384591704e+04  1.3595417170109939e+04  1.3504071109402621e+04  1.3412464701100394e+04  1.3320591387149729e+04  1.3228444611548470e+04  1.3136017882521912e+04  1.3043304837126729e+04  1.2950299307225303e+04  1.2856995385744316e+04  1.2763387492125625e+04  1.2669470435891617e+04  1.2575239477282488e+04  1.2480690383979272e+04  1.2385819482999434e+04  1.2290623706946499e+04  1.2195100633904050e+04  1.2099248520387559e+04  1.2003066326904547e+04  1.1906553735815616e+04  1.1809711161338531e+04  1.1712539751686983e+04  1.1615041383482956e+04  1.1517218648721397e+04  1.1419074834695679e+04  1.1320613897407711e+04  1.1221840429085649e+04  1.1122759620511921e+04  1.1023377218922808e+04  1.0923699482280937e+04  1.0823733130737928e+04  1.0723485296102528e+04  1.0622963470108421e+04  1.0522175452238567e+04  1.0421129297810665e+04  1.0319833266967680e+04  1.0218295775144088e+04  1.0116525345503414e+04  1.0014530563762783e+04  9.9123200357407732e+03  9.8099023478865674e+03  9.7072860309742919e+03  9.6044795270770301e+03  9.5014911598724248e+03  9.3983291082747237e+03  9.2950013833398025e+03  9.1915158083489569e+03  9.0878800019415212e+03  8.9841013641418358e+03  8.8801870651033860e+03  8.7761440363799375e+03  8.6719789645234723e+03  8.5676982868067298e+03  8.4633081888651923e+03  8.3588146040575157e+03  8.2542232143512956e+03  8.1495394525446736e+03  8.0447685056494174e+03  7.9399153192690756e+03  7.8349846028164266e+03  7.7299808354302095e+03  7.6249082724593300e+03  7.5197709523966860e+03  7.4145727041596792e+03  7.3093171546182966e+03  7.2040077362912962e+03  7.0986476951348523e+03  6.9932400983580956e+03  6.8877878422139765e+03  6.7822936597138814e+03  6.6767601282290070e+03  6.5711896769447603e+03  6.4655845941391308e+03  6.3599470342648610e+03  6.2542790248162519e+03  6.1485824729681581e+03  6.0428591719780679e+03  5.9371108073428422e+03  5.8313389627094512e+03  5.7255451255354747e+03  5.6197306925011098e+03  5.5138969746759603e+03  5.4080452024414471e+03  5.3021765301763317e+03  5.1962920407107440e+03  5.0903927495536782e+03  4.9844796089036681e+03  4.8785535114471550e+03  4.7726152939548028e+03  4.6666657406825898e+03  4.5607055865851517e+03  4.4547355203523366e+03  4.3487561872744936e+03  4.2427681919452616e+03  4.1367721008115095e+03  4.0307684445749314e+03  3.9247577204556537e+03  3.8187403943255708e+03  3.7127169027162922e+03  3.6066876547121769e+03  3.5006530337322083e+03  3.3946133992095524e+03  3.2885690881748474e+03  3.1825204167487627e+03  3.0764676815530675e+03  2.9704111610445470e+03  2.8643511167787897e+03  2.7582877946129961e+03  2.6522214258516337e+03  2.5461522283460936e+03  2.4400804075584956e+03  2.3340061575978998e+03  2.2279296622467086e+03  2.1218510959920181e+03  2.0157706250869994e+03  1.9096884086751538e+03  1.8036046000220504e+03  1.6975193479248173e+03  1.5914327983997048e+03  1.4853450968061488e+03  1.3792563906641749e+03  1.2731668335853467e+03  1.1670765910502064e+03  1.0609858493533923e+03  9.5489483021978344e+02  8.4880381619159152e+02  7.4271319788636936e+02  6.3662356723137361e+02  5.3053592344075366e+02  4.2445242256613454e+02  3.1837885670572399e+02  2.1231481065837772e+02  1.0624661204325889e+02  4.5039977564687139e-01  2.3095501260139754e-02  4.8755895182259965e-03  2.9817890876946505e-03  1.7028306561531518e-03  9.9808520839594428e-04  6.2016054059793320e-04  4.0498146558627738e-04  2.7484219554315688e-04  1.9193819690255416e-04  1.3669308809456096e-04  9.8404066602071990e-05  7.0935418977249322e-05  5.0618583909332455e-05  3.5177061502707778e-05  2.3151124137597428e-05  1.3577321042064127e-05  5.8033016684190091e-06  -6.2275056823028045e-07  -6.0201200286898300e-06  -1.0618514371206004e-05  -1.4585861624719989e-05  -1.8046696141974377e-05  -2.1094563338326503e-05  -2.3800542675415438e-05  -2.6219200597402415e-05  -2.8392812527134119e-05  -3.0354398834773873e-05  -3.2129936377715746e-05  -3.3739988558764277e-05  -3.5200919690397137e-05  -3.6525809095942270e-05  -3.7725145036152802e-05  -3.8807356244994587e-05  -3.9779221712994101e-05  -4.0646188592493439e-05  -4.1412620202226960e-05  -4.2081989838500199e-05  -4.2657032627482816e-05  -4.3139864082608506e-05  -4.3532072027712661e-05  -4.3834786946203210e-05  -4.4048734476652386e-05  -4.4174272391878599e-05  -4.4211414487230034e-05  -4.4159842067558289e-05  -4.4018904188911987e-05  -4.3787606460790799e-05  -4.3464588229241747e-05  -4.3048087374752411e-05  -4.2535891181805847e-05  -4.1925271384546104e-05  -4.1212900735112166e-05  -4.0394747126534413e-05  -3.9465940819825491e-05  -3.8420608118234122e-05  -3.7251663600775994e-05  -3.5950549912026010e-05  -3.4506911327769756e-05  -3.2908182333931168e-05  -3.1139067275860394e-05  -2.9180878245036454e-05  -2.7010688488310265e-05  -2.4600242805380190e-05  -2.1914547299538528e-05  -1.8910031283213952e-05  -1.5532137368597264e-05  -1.1712140456768231e-05  -7.3629245956120116e-06  -2.3733446856894103e-06  3.3993329231440129e-06  1.0139592071850415e-05  1.8087319267258215e-05  2.7556045157488099e-05  3.8956969944518215e-05  5.2829647146128865e-05  6.9878694951975277e-05  9.1011405372998556e-05  1.1735984273239328e-04  1.5024890524740529e-04  1.9106485427120858e-04  2.4126203640569544e-04  3.0625770936688098e-04  4.6521173868575399e-04  1.9460311707415333e-03  1.8158037522706037e-02  1.2964671000244649e-01  7.3277292478937522e-02  1.0525191385574517e+02  2.1206950541971580e+02  3.1825741394194426e+02  4.2441692440584467e+02  5.3056893775006824e+02  6.3671436136691921e+02  7.4285618338080121e+02  8.4899604296399730e+02  9.5513485821104678e+02  1.0612732159865734e+03  1.1674115250733187e+03  1.2735500917382494e+03  1.3796891610433688e+03  1.4858289406834931e+03  1.5919696154848111e+03  1.6981113566646891e+03  1.8042543280230375e+03  1.9103986902719425e+03  2.0165446042033259e+03  2.1226922331155333e+03  2.2288417447606648e+03  2.3349933129804049e+03  2.4411471191410947e+03  2.5473033534432680e+03  2.6534622161582042e+03  2.7596239188293684e+03  2.8657886854669146e+03  2.9719567537570974e+03  3.0781283763040033e+03  3.1843038219182195e+03  3.2904833769651741e+03  3.3966673467846667e+03  3.5028560571924345e+03  3.6090498560742408e+03  3.7152491150830110e+03  3.8214542314496621e+03  3.9276656299186611e+03  4.0338837648199074e+03  4.1401091222892592e+03  4.2463422226504244e+03  4.3525836229738652e+03  4.4588339198251542e+03  4.5650937522216909e+03  4.6713638048150442e+03  4.7776448113168999e+03  4.8839375581933209e+03  4.9902428886481648e+03  5.0965617069206373e+03  5.2028949829277808e+03  5.3092437572808267e+03  5.4156091467105271e+03  5.5219923499405995e+03  5.6283946540487150e+03  5.7348174413631004e+03  5.8412621969471384e+03  5.9477305167275890e+03  6.0542241163339231e+03  6.1607448407182901e+03  6.2672946746379539e+03  6.3738757540897768e+03  6.4804903788016663e+03  6.5871410258931764e+03  6.6938303648376386e+03  6.8005612738732789e+03  6.9073368580305796e+03  7.0141604689689202e+03  7.1210357268418165e+03  7.2279665444403590e+03  7.3349571539048011e+03  7.4420121363377220e+03  7.5491364547019639e+03  7.6563354904534781e+03  7.7636150844281156e+03  7.8709815825888300e+03  7.9784418873499480e+03  8.0860035153165772e+03  8.1936746624320185e+03  8.3014642777138961e+03  8.4093821469817613e+03  8.5174389882591477e+03  8.6256465608783601e+03  8.7340177907360685e+03  8.8425669146819691e+03  8.9513096476872925e+03  9.0602633772778881e+03  9.1694473907932970e+03  9.2788831424031941e+03  9.3885945685913903e+03  9.4986084631342692e+03  9.6089549256571572e+03  9.7196679019122366e+03  9.8307858393862334e+03  9.9423524892809146e+03  1.0054417896157071e+04  1.0167039630854706e+04  1.0280284342628551e+04  1.0394229735769415e+04  1.0508967119105802e+04  1.0624604741505267e+04  1.0741272225913985e+04  1.0859126571236498e+04  1.0978360446014616e+04  1.1099213926019964e+04  1.1221991577002613e+04  1.1347088158083727e+04  1.1475028900705098e+04  1.1606535924707763e+04  1.1742644207022919e+04  1.1884919434678737e+04  1.2036017965728197e+04  1.2201792592074547e+04  1.2391332373588581e+04  1.2558482567857753e+04  1.2653823935883438e+04  1.2716345983857427e+04  1.2769855042137780e+04  1.2820285501597140e+04  1.2872143944762071e+04  1.2925301215604573e+04  1.2978700423499315e+04  1.3031626320734351e+04  1.3084429974221026e+04  1.3137674522544608e+04  1.3191604613947715e+04  1.3246416056714372e+04  1.3302547581978426e+04  1.3360455856773320e+04  1.3419808103029935e+04  1.3479380670795725e+04  1.3538387880211561e+04  1.3597242707820524e+04  1.3657334676224673e+04  1.3719997797609223e+04  1.3786047711085674e+04  1.3855950093056566e+04  1.3930157477996278e+04  1.4011237370255867e+04  1.4105845596962381e+04  1.4234334497554162e+04  1.4350556882085284e+04  1.4451549914188961e+04  1.4538572105635891e+04  1.4663483610261172e+04  1.4764362008596641e+04  1.4866193116811706e+04  1.4973506769142326e+04  1.5071627203562157e+04  1.5162006487442000e+04  1.5254472584815590e+04  1.5353746417354374e+04  1.5454269812941595e+04  1.5522830335459488e+04  1.5596586190761438e+04  1.5668378207255186e+04  1.5736006477304785e+04  1.5808923965374219e+04  1.5909823519053309e+04  1.6006031324677082e+04  1.6103997255435583e+04  1.6197492378212259e+04  1.6288146958925079e+04  1.6367571924335412e+04  1.6433361351989413e+04  1.6526298113221477e+04  1.6607337931859165e+04  1.6686055913631310e+04  1.6762510205122158e+04  1.6827824288291413e+04  1.6881171302440460e+04  1.6960668993026738e+04  1.7029729220658050e+04  1.7093769568515203e+04  1.7189080336626539e+04  1.7266889738785874e+04  1.7311997723110780e+04  1.7376778057533909e+04  1.7466985453066900e+04  1.7524340647332778e+04  1.7595657491268055e+04  1.7687572737040235e+04  1.7742508899412755e+04  1.7804564605065952e+04  1.7880604198999550e+04  1.7951872277385421e+04  1.8046385239941428e+04  1.8117402992945070e+04  2.4950427684216422e+04  1.8277876810486876e+04  1.8352693952829170e+04  1.8435586130873497e+04  2.5428388108693707e+04  1.8589470492960554e+04  1.8678123525725812e+04  2.5761620589140926e+04  1.8828807759228064e+04  1.8921330713339874e+04  2.6101749921044600e+04  1.9104553642955212e+04  1.9179277013812767e+04  2.6424792075719895e+04  1.9308862748839492e+04  1.9359677146825456e+04  2.6636447028476898e+04  2.6718045891898048e+04  1.9494029822269236e+04  2.6797763518110190e+04  2.6844756524036493e+04  1.9579588859604399e+04  1.9605976597889967e+04  2.6954888230946588e+04  1.9655866799952575e+04  1.9674901856088221e+04  2.7030483825459905e+04  1.9710301200250920e+04  1.9729267024240507e+04  1.9742372560234155e+04  1.9761702376637524e+04  1.9779225598527672e+04  1.9797544055244955e+04  1.9817127492360218e+04  1.9836575222961026e+04  1.9855344239359463e+04  1.9873426875837496e+04  1.9890741314651790e+04  1.9907895623773540e+04  1.9926248256778810e+04  1.9945029026512537e+04  1.9963482709140691e+04  1.9981070081150516e+04  1.9997648150044413e+04  2.0014399861625738e+04  2.0030154684840094e+04  2.0041783598969607e+04  2.0055793071540265e+04  2.0071613164248160e+04  2.7571747052286231e+04  2.7589372089673747e+04  2.7609129929077040e+04  2.7629734532711114e+04  2.7628641266230672e+04  2.7627900102765110e+04  2.7627218880258879e+04  2.7626536106979962e+04  2.7625846143783165e+04  2.7625154187084820e+04  2.7624466972367914e+04  2.7623790901598593e+04  2.7623131640777916e+04  2.7622494054326457e+04  2.7621882232269691e+04  2.7621299544521065e+04  2.7620748702794986e+04  2.7620231824344140e+04  2.7619750495379427e+04  2.7619305832818394e+04  2.7618898543220268e+04  2.7618528977983358e+04  2.7618197184160184e+04  2.7617902950533604e+04  2.7617645848852299e+04  2.7617425270321619e+04  2.7617240457588505e+04  2.7617090532549380e+04  2.7616974520359447e+04  2.7616891370041292e+04  2.7616839972086345e+04  2.7616819173425134e+04  2.7616827790115291e+04  2.7616864618064043e+04  2.7616928442068922e+04  2.7617018043426451e+04  2.7617132206327951e+04  2.7617269723231850e+04  2.7617429399375684e+04  2.7617610056567781e+04  2.7617810536378307e+04  2.7618029702831136e+04  2.7618266444682922e+04  2.7618519677363576e+04  2.7618788344639830e+04  2.7619071420056032e+04  2.7619367908197655e+04  2.7619676845817452e+04  2.7619997302858352e+04  2.7620328383404631e+04  2.7620669226588063e+04  2.7621019007475312e+04  2.7621376937960365e+04  2.7621742267685226e+04  2.7622114285012849e+04  2.7622492318075751e+04  2.7622875735926205e+04  2.7623263949815388e+04  2.7623656414631929e+04  2.7624052630533650e+04  2.7624452144811698e+04  2.7624854554031110e+04  2.7625259506499493e+04  2.7625666705123480e+04  2.7626075910722586e+04  2.7626486945882112e+04  2.7626899699439404e+04  2.7627314131713640e+04  2.7627730280604999e+04  2.7628148268705794e+04  2.7628568311580475e+04  2.7628990727379460e+04  2.7629415947945719e+04  2.7629844531538456e+04  2.7630277177211014e+04  2.7630714740695297e+04  2.7631158251287103e+04  2.7631608928565816e+04  2.7632068196596232e+04  2.7632537691199792e+04  2.7633019252423564e+04  2.7633514888898189e+04  2.7634026693380365e+04  2.7634556682433074e+04  2.7635106539762786e+04  2.7635677288824361e+04  2.7636269032673477e+04  2.7636881215064775e+04  2.7637517357095203e+04  2.7638236594095946e+04  2.7639537349371320e+04  2.7618899844642307e+04  2.7618334216469324e+04  2.7617687922733323e+04  2.7617053874950630e+04  2.7616438983933898e+04  2.7615845542006682e+04  2.7615274882921007e+04  2.7614726588523976e+04  2.7614199030815464e+04  2.7613690014160165e+04  2.7613197189290997e+04  2.7612718278185454e+04  2.7612251183500626e+04  2.7611794033197024e+04  2.7611345190359672e+04  2.7610903245318812e+04  2.7610466999617627e+04  2.7610035447030696e+04  2.7609607754367826e+04  2.7609183243411248e+04  2.7608761374568679e+04  2.7608341732412740e+04  2.7607924013065411e+04  2.7607508013285431e+04  2.7607093621077205e+04  2.7606680807632572e+04  2.7606269620426217e+04  2.7605860177301827e+04  2.7605452661405085e+04  2.7605047316838365e+04  2.7604644444929250e+04  2.7604244401020536e+04  2.7603847591702812e+04  2.7603454472422029e+04  2.7603065545404548e+04  2.7602681357849771e+04  2.7602302500347665e+04  2.7601929605483791e+04  2.7601563346598919e+04  2.7601204436674059e+04  2.7600853627314220e+04  2.7600511707806538e+04  2.7600179504229309e+04  2.7599857878589723e+04  2.7599547727967405e+04  2.7599249983640788e+04  2.7598965610171734e+04  2.7598695604421828e+04  2.7598440994470900e+04  2.7598202838404439e+04  2.7597982222931885e+04  2.7597780261791711e+04  2.7597598093891909e+04  2.7597436881125523e+04  2.7597297805790462e+04  2.7597182067530004e+04  2.7597090879695475e+04  2.7597025465015417e+04  2.7596987050435011e+04  2.7596976860966461e+04  2.7596996112364668e+04  2.7597046002412841e+04  2.7597127700570552e+04  2.7597242335701405e+04  2.7597390981562083e+04  2.7597574639698410e+04  2.7597794219361585e+04  2.7598050514032737e+04  2.7598344174130401e+04  2.7598675675482449e+04  2.7599045283179566e+04  2.7599453010503556e+04  2.7599898572752933e+04  2.7600381335984166e+04  2.7600900260958049e+04  2.7601453842922627e+04  2.7602040048242332e+04  2.7602656249191619e+04  2.7603299158242542e+04  2.7603964762497093e+04  2.7604648257213568e+04  2.7605343975326996e+04  2.7606045308297678e+04  2.7606744575050841e+04  2.7607432338277624e+04  2.7608092601426662e+04  2.7608677398935321e+04  2.7609023658120288e+04  2.7598896110375961e+04  2.7598412966223801e+04  2.7597811252526350e+04  2.7597160395714989e+04  2.7596526711219343e+04  2.7595926481927454e+04  2.7595358857275394e+04  2.7594819228874272e+04  2.7594302850929951e+04  2.7593805631167168e+04  2.7593324182924676e+04  2.7592855718682498e+04  2.7592397934690158e+04  2.7591948917541158e+04  2.7591507073295972e+04  2.7591071073969062e+04  2.7590639816490366e+04  2.7590212390571778e+04  2.7589788053047210e+04  2.7589366207044583e+04  2.7588946384863146e+04  2.7588528233759000e+04  2.7588111504057419e+04  2.7587696039153980e+04  2.7587281767066550e+04  2.7586868693271044e+04  2.7586456894607087e+04  2.7586046514079506e+04  2.7585637756413209e+04  2.7585230884243174e+04  2.7584826214841582e+04  2.7584424117299655e+04  2.7584025010095127e+04  2.7583629358986607e+04  2.7583237675185013e+04  2.7582850513759331e+04  2.7582468472239761e+04  2.7582092189386163e+04  2.7581722344093563e+04  2.7581359654409407e+04  2.7581004876639756e+04  2.7580658804523460e+04  2.7580322268454154e+04  2.7579996134730940e+04  2.7579681304818379e+04  2.7579378714596201e+04  2.7579089333577860e+04  2.7578814164075400e+04  2.7578554240285896e+04  2.7578310627271225e+04  2.7578084419799052e+04  2.7577876741007862e+04  2.7577688740852158e+04  2.7577521594276604e+04  2.7577376499058359e+04  2.7577254673245319e+04  2.7577157352104838e+04  2.7577085784480987e+04  2.7577041228439470e+04  2.7577024946056536e+04  2.7577038197182163e+04  2.7577082231976405e+04  2.7577158281983255e+04  2.7577267549465159e+04  2.7577411194677010e+04  2.7577590320709041e+04  2.7577805955475400e+04  2.7578059030372686e+04  2.7578350355083101e+04  2.7578680587956609e+04  2.7579050201385606e+04  2.7579459441597985e+04  2.7579908282361579e+04  2.7580396372246945e+04  2.7580922975383557e+04  2.7581486906131635e+04  2.7582086458843554e+04  2.7582719334881855e+04  2.7583382569838690e+04  2.7584072462492451e+04  2.7584784496808708e+04  2.7585513209724955e+04  2.7586251839842360e+04  2.7586