<?xml version="1.0"?>
<VTKFile type="UnstructuredGrid"  version="0.1"  >
<UnstructuredGrid>
<Piece  NumberOfPoints="21600" NumberOfCells="42542">
<Points>
<DataArray  type="Float64"  NumberOfComponents="3"  format="ascii">0 0 0  0.77 0 0  0.77 0.15 0  0 0.15 0  0.003221757322170014 0 0  0.006443514644340046 0 0  0.009665271966510193 0 0  0.01288702928868034 0 0  0.01610878661085048 0 0  0.01933054393302049 0 0  0.02255230125519027 0 0  0.02577405857735967 0 0  0.02899581589952872 0 0  0.03221757322169801 0 0  0.03543933054386744 0 0  0.03866108786603686 0 0  0.04188284518820627 0 0  0.0451046025103757 0 0  0.04832635983254521 0 0  0.05154811715471607 0 0  0.05476987447688695 0 0  0.05799163179905782 0 0  0.06121338912122846 0 0  0.06443514644339859 0 0  0.06765690376556875 0 0  0.0708786610877389 0 0  0.07410041840990904 0 0  0.0773221757320792 0 0  0.08054393305425039 0 0  0.08376569037642198 0 0  0.0869874476985936 0 0  0.09020920502076518 0 0  0.0934309623429339 0 0  0.0966527196651024 0 0  0.09987447698726967 0 0  0.1030962343094369 0 0  0.1063179916316041 0 0  0.1095397489537714 0 0  0.1127615062759386 0 0  0.1159832635981051 0 0  0.1192050209202709 0 0  0.1224267782424358 0 0  0.1256485355646001 0 0  0.1288702928867644 0 0  0.1320920502089288 0 0  0.1353138075310958 0 0  0.1385355648532632 0 0  0.1417573221754333 0 0  0.1449790794976035 0 0  0.1482008368197736 0 0  0.1514225941419428 0 0  0.1546443514641101 0 0  0.157866108786276 0 0  0.1610878661084403 0 0  0.1643096234306047 0 0  0.167531380752769 0 0  0.1707531380749333 0 0  0.1739748953970977 0 0  0.177196652719262 0 0  0.1804184100414264 0 0  0.1836401673635935 0 0  0.1868619246857611 0 0  0.1900836820079313 0 0  0.1933054393301014 0 0  0.1965271966522716 0 0  0.1997489539744406 0 0  0.2029707112966078 0 0  0.2061924686187736 0 0  0.209414225940938 0 0  0.2126359832631022 0 0  0.2158577405852666 0 0  0.219079497907431 0 0  0.2223012552295953 0 0  0.2255230125517597 0 0  0.2287447698739242 0 0  0.2319665271960914 0 0  0.2351882845182592 0 0  0.2384100418404293 0 0  0.2416317991625994 0 0  0.2448535564847696 0 0  0.2480753138069371 0 0  0.2512970711291014 0 0  0.2545188284512658 0 0  0.2577405857734302 0 0  0.2609623430955986 0 0  0.2641841004177688 0 0  0.2674058577399389 0 0  0.270627615062109 0 0  0.2738493723842792 0 0  0.2770711297064487 0 0  0.280292887028613 0 0  0.2835146443507774 0 0  0.2867364016729417 0 0  0.2899581589951061 0 0  0.2931799163172705 0 0  0.2964016736394348 0 0  0.2996234309615992 0 0  0.3028451882837672 0 0  0.3060669456059373 0 0  0.3092887029281075 0 0  0.3125104602502776 0 0  0.3157322175724478 0 0  0.3189539748946177 0 0  0.322175732216782 0 0  0.3253974895389464 0 0  0.3286192468611107 0 0  0.3318410041832751 0 0  0.3350627615054395 0 0  0.3382845188276038 0 0  0.3415062761497681 0 0  0.3447280334719325 0 0  0.3479497907940968 0 0  0.3511715481162612 0 0  0.3543933054384255 0 0  0.3576150627605947 0 0  0.3608368200827649 0 0  0.364058577404935 0 0  0.3672803347271051 0 0  0.3705020920492753 0 0  0.373723849371444 0 0  0.3769456066936084 0 0  0.3801673640157748 0 0  0.383389121337945 0 0  0.3866108786601209 0 0  0.3898326359823028 0 0  0.3930543933044846 0 0  0.3962761506266662 0 0  0.399497907948848 0 0  0.4027196652710298 0 0  0.4059414225932116 0 0  0.4091631799153934 0 0  0.4123849372375751 0 0  0.4156066945597569 0 0  0.4188284518819387 0 0  0.4220502092041222 0 0  0.4252719665263097 0 0  0.4284937238484974 0 0  0.4317154811706849 0 0  0.4349372384928725 0 0  0.4381589958150601 0 0  0.4413807531372476 0 0  0.4446025104594352 0 0  0.4478242677816181 0 0  0.4510460251037998 0 0  0.4542677824259815 0 0  0.4574895397481634 0 0  0.4607112970703451 0 0  0.4639330543925269 0 0  0.4671548117147087 0 0  0.4703765690368904 0 0  0.4735983263590722 0 0  0.4768200836812568 0 0  0.4800418410034444 0 0  0.483263598325632 0 0  0.4864853556478196 0 0  0.4897071129700028 0 0  0.4929288702921845 0 0  0.4961506276143663 0 0  0.4993723849365479 0 0  0.5025941422587239 0 0  0.5058158995809008 0 0  0.5090376569030826 0 0  0.5122594142252677 0 0  0.515481171547461 0 0  0.5187029288696494 0 0  0.5219246861918312 0 0  0.525146443514013 0 0  0.5283682008361947 0 0  0.5315899581583845 0 0  0.5348117154805778 0 0  0.5380334728027617 0 0  0.5412552301249435 0 0  0.5444769874471141 0 0  0.5476987447692853 0 0  0.550920502091467 0 0  0.5541422594136513 0 0  0.5573640167358447 0 0  0.560585774058034 0 0  0.5638075313802158 0 0  0.5670292887023975 0 0  0.5702510460245793 0 0  0.5734728033467682 0 0  0.5766945606689615 0 0  0.579916317991155 0 0  0.5831380753133483 0 0  0.5863598326355314 0 0  0.5895815899577131 0 0  0.5928033472798949 0 0  0.5960251046020785 0 0  0.5992468619242718 0 0  0.6024686192464619 0 0  0.6056903765686437 0 0  0.6089121338908206 0 0  0.6121338912129908 0 0  0.6153556485351673 0 0  0.618577405857349 0 0  0.6217991631795386 0 0  0.625020920501732 0 0  0.6282426778239159 0 0  0.6314644351460976 0 0  0.6346861924682795 0 0  0.6379079497904622 0 0  0.6411297071126555 0 0  0.6443514644348465 0 0  0.6475732217570283 0 0  0.650794979079206 0 0  0.6540167364013761 0 0  0.6572384937235518 0 0  0.6604602510457335 0 0  0.6636820083679225 0 0  0.6669037656901158 0 0  0.6701255230123004 0 0  0.6733472803344823 0 0  0.6765690376566641 0 0  0.6797907949788459 0 0  0.6830125523010393 0 0  0.686234309623231 0 0  0.6894560669454127 0 0  0.6926778242675914 0 0  0.6958995815897615 0 0  0.6991213389119363 0 0  0.7023430962341181 0 0  0.7055648535563062 0 0  0.7087866108784994 0 0  0.712008368200685 0 0  0.7152301255228668 0 0  0.7184518828450486 0 0  0.7216736401672305 0 0  0.724895397489423 0 0  0.7281171548116155 0 0  0.7313389121337973 0 0  0.7345606694559768 0 0  0.7377824267781468 0 0  0.7410041841003209 0 0  0.7442259414225026 0 0  0.7474476987446899 0 0  0.7506694560668832 0 0  0.7538912133890696 0 0  0.7571129707112513 0 0  0.760334728033433 0 0  0.7635564853556149 0 0  0.7667782426778067 0 0  0.77 0.001685393258423789 0  0.77 0.003370786516847669 0  0.77 0.005056179775271247 0  0.77 0.006741573033694517 0  0.77 0.008426966292117821 0  0.77 0.01011235955054176 0  0.77 0.01179775280896623 0  0.77 0.0134831460673904 0  0.77 0.01516853932581489 0  0.77 0.01685393258423891 0  0.77 0.01853932584266291 0  0.77 0.02022471910108589 0  0.77 0.02191011235950794 0  0.77 0.02359550561792999 0  0.77 0.02528089887635205 0  0.77 0.02696629213477411 0  0.77 0.02865168539319714 0  0.77 0.03033707865161956 0  0.77 0.03202247191004162 0  0.77 0.03370786516846367 0  0.77 0.03539325842688572 0  0.77 0.03707865168530778 0  0.77 0.03876404494372984 0  0.77 0.0404494382021519 0  0.77 0.04213483146057394 0  0.77 0.04382022471899601 0  0.77 0.04550561797741807 0  0.77 0.04719101123584013 0  0.77 0.04887640449426219 0  0.77 0.05056179775268425 0  0.77 0.0522471910111063 0  0.77 0.05393258426952837 0  0.77 0.05561797752795105 0  0.77 0.05730337078637505 0  0.77 0.05898876404479723 0  0.77 0.0606741573032193 0  0.77 0.06235955056164135 0  0.77 0.06404494382006341 0  0.77 0.06573033707848548 0  0.77 0.06741573033690752 0  0.77 0.06910112359532959 0  0.77 0.07078651685375165 0  0.77 0.0724719101121737 0  0.77 0.07415730337059653 0  0.77 0.07584269662902443 0  0.77 0.07752808988745429 0  0.77 0.07921348314588413 0  0.77 0.08089887640431678 0  0.77 0.08258426966274923 0  0.77 0.08426966292117907 0  0.77 0.08595505617960987 0  0.77 0.08764044943804362 0  0.77 0.08932584269647403 0  0.77 0.09101123595490389 0  0.77 0.09269662921333673 0  0.77 0.09438202247176901 0  0.77 0.09606741573019884 0  0.77 0.09775280898862983 0  0.77 0.09943820224706355 0  0.77 0.1011235955054938 0  0.77 0.1028089887639236 0  0.77 0.1044943820223567 0  0.77 0.1061797752807888 0  0.77 0.1078651685392186 0  0.77 0.1095505617976498 0  0.77 0.1112359550560835 0  0.77 0.1129213483145136 0  0.77 0.1146067415729456 0  0.77 0.1162921348313787 0  0.77 0.1179775280898085 0  0.77 0.1196629213482387 0  0.77 0.1213483146066724 0  0.77 0.1230337078651035 0  0.77 0.1247191011235322 0  0.77 0.1264044943819605 0  0.77 0.1280898876403903 0  0.77 0.1297752808988242 0  0.77 0.1314606741572554 0  0.77 0.1331460674156853 0  0.77 0.1348314606741154 0  0.77 0.1365168539325504 0  0.77 0.1382022471909802 0  0.77 0.13988764044941 0  0.77 0.1415730337078443 0  0.77 0.1432584269662752 0  0.77 0.144943820224705 0  0.77 0.1466292134831355 0  0.77 0.1483146067415701 0  0.7667782426778414 0.15 0  0.7635564853556813 0.15 0  0.7603347280335111 0.15 0  0.757112970711341 0.15 0  0.7538912133891708 0.15 0  0.7506694560670005 0.15 0  0.7474476987448303 0.15 0  0.7442259414226602 0.15 0  0.74100418410049 0.15 0  0.7377824267783197 0.15 0  0.7345606694561496 0.15 0  0.7313389121339794 0.15 0  0.7281171548118092 0.15 0  0.724895397489639 0.15 0  0.7216736401674688 0.15 0  0.7184518828452986 0.15 0  0.7152301255231284 0.15 0  0.7120083682009583 0.15 0  0.708786610878788 0.15 0  0.7055648535566178 0.15 0  0.7023430962344477 0.15 0  0.6991213389122775 0.15 0  0.6958995815901072 0.15 0  0.692677824267937 0.15 0  0.6894560669457669 0.15 0  0.6862343096235967 0.15 0  0.6830125523014264 0.15 0  0.6797907949792563 0.15 0  0.6765690376570861 0.15 0  0.6733472803349159 0.15 0  0.6701255230127456 0.15 0  0.6669037656905755 0.15 0  0.6636820083684053 0.15 0  0.6604602510462351 0.15 0  0.657238493724065 0.15 0  0.6540167364018947 0.15 0  0.6507949790797245 0.15 0  0.6475732217575543 0.15 0  0.644351464435384 0.15 0  0.6411297071132231 0.15 0  0.6379079497910645 0.15 0  0.634686192468906 0.15 0  0.6314644351467468 0.15 0  0.6282426778245765 0.15 0  0.6250209205024085 0.15 0  0.62179916318025 0.15 0  0.6185774058580914 0.15 0  0.6153556485359328 0.15 0  0.6121338912137689 0.15 0  0.6089121338915987 0.15 0  0.6056903765694354 0.15 0  0.6024686192472768 0.15 0  0.5992468619251182 0.15 0  0.5960251046029597 0.15 0  0.5928033472807912 0.15 0  0.589581589958621 0.15 0  0.5863598326364508 0.15 0  0.5831380753142792 0.15 0  0.5799163179920974 0.15 0  0.57669456
[...]
<PointData  Scalars="pressure"> 
<DataArray  type="Float64"  Name="pressure"  format="ascii">1.1459340676208851e+04  1.2788054058914244e+00  -1.3853184646684966e+00  1.1474342806801353e+04  1.1433470360470697e+04  1.1413799227020689e+04  1.1396414248707553e+04  8.2848411947412278e+03  8.2680111934869892e+03  8.2527603185988555e+03  8.2376274586890195e+03  8.2225867841084000e+03  8.2076131787056183e+03  8.1926858240301444e+03  8.1777918583434957e+03  8.1629228705446403e+03  8.1480730778111747e+03  8.1332383931500344e+03  8.1184158833159436e+03  8.1036034327563993e+03  8.0887995256086087e+03  8.0740030987943974e+03  8.0592134398393728e+03  8.0444301139111067e+03  8.0296529105875143e+03  8.0148818043450237e+03  8.0001169248440774e+03  7.9853585343843843e+03  7.9706070107273290e+03  7.9558628340227087e+03  7.9411265769371203e+03  7.9263988973265386e+03  7.9116805329661693e+03  7.8969722979698772e+03  7.8822750806181502e+03  7.8675898423752760e+03  7.8529176179233900e+03  7.8382595160756537e+03  7.8236167214580182e+03  7.8089904968705787e+03  7.7943821862571094e+03  7.7797932182263648e+03  7.7652251100820376e+03  7.7506794723303456e+03  7.7361580136457169e+03  7.7216625462863212e+03  7.7071949919621984e+03  7.6927573881694789e+03  7.6783518950158277e+03  7.6639808025720886e+03  7.6496465387962016e+03  7.6353516780844711e+03  7.6210989505132866e+03  7.6068912518407433e+03  7.5927316543399220e+03  7.5786234185349776e+03  7.5645700059037963e+03  7.5505750925976490e+03  7.5366425842049894e+03  7.5227766315532926e+03  7.5089816474957697e+03  7.4952623245687601e+03  7.4816236533267329e+03  7.4680709410660420e+03  7.4546098305324149e+03  7.4412463180726190e+03  7.4279867705358956e+03  7.4148379400572967e+03  7.4018069756617397e+03  7.3889014304134434e+03  7.3761292625952119e+03  7.3634988291271784e+03  7.3510188691082112e+03  7.3386984749583953e+03  7.3265470481153106e+03  7.3145742355223283e+03  7.3027898421378741e+03  7.2912037132159612e+03  7.2798255778690173e+03  7.2686648419148305e+03  7.2577303123194597e+03  7.2470298259798119e+03  7.2365697388737854e+03  7.2263542011575510e+03  7.2163840856764546e+03  7.2066553201597708e+03  7.1971561202815319e+03  7.1878620318156891e+03  7.1787262424021737e+03  7.1696592032416720e+03  7.1604784857989671e+03  7.1506325392482386e+03  7.1376162782424244e+03  7.1130741510447124e+03  7.0717193071884240e+03  7.0303398653595759e+03  6.9884876805757985e+03  6.9465246683276337e+03  6.9046079800817233e+03  6.8628260403690638e+03  6.8212372617537821e+03  6.7798807496486743e+03  6.7387827127152768e+03  6.6979602985007614e+03  6.6574239137047816e+03  6.6171786760429140e+03  6.5772253404774101e+03  6.5375608915079374e+03  6.4981789169432441e+03  6.4590698389987465e+03  6.4202210587433947e+03  6.3816170615888132e+03  6.3432395304767160e+03  6.3050675175036467e+03  6.2670777327952001e+03  6.2292450210052948e+03  6.1915431110047539e+03  6.1539457443564634e+03  6.1164283163498094e+03  6.0789702082936856e+03  6.0415580763655289e+03  6.0041905476790389e+03  5.9668850977440679e+03  5.9296881580696800e+03  5.8926898972084282e+03  5.8560613485291597e+03  5.8201689796569035e+03  5.7858633026376174e+03  5.7542927721686201e+03  5.7136576042713314e+03  5.6556949264447185e+03  5.6039460913852599e+03  5.5541800682730118e+03  5.5052415501217556e+03  5.4567097660196805e+03  5.4083895626293133e+03  5.3601874945896216e+03  5.3120625872875071e+03  5.2640028588962659e+03  5.2160129093029000e+03  5.1681068005046509e+03  5.1203037303498477e+03  5.0726253045783269e+03  5.0250937822663800e+03  4.9777309428093358e+03  4.9305573636398103e+03  4.8835919758521686e+03  4.8368518106649362e+03  4.7903518779271344e+03  4.7441051360925358e+03  4.6981225252148824e+03  4.6524130427909504e+03  4.6069838480229228e+03  4.5618403841077934e+03  4.5169865110197643e+03  4.4724246432819591e+03  4.4281558886619587e+03  4.3841801847372753e+03  4.3404964309715797e+03  4.2971026144035786e+03  4.2539959273334589e+03  4.2111728755413587e+03  4.1686293756170962e+03  4.1263608399493378e+03  4.0843622478330676e+03  4.0426282010191308e+03  4.0011529618656527e+03  3.9599304720571963e+03  3.9189543496395904e+03  3.8782178618741618e+03  3.8377138711309399e+03  3.7974347507083889e+03  3.7573722670676239e+03  3.7175174244794721e+03  3.6778602674977597e+03  3.6383896359775449e+03  3.5990928665797137e+03  3.5599554339023139e+03  3.5209605236659609e+03  3.4820885299745810e+03  3.4433164688953234e+03  3.4046173019539028e+03  3.3659591663299934e+03  3.3273045145010919e+03  3.2886091760078925e+03  3.2498213692365175e+03  3.2108807129339311e+03  3.1717173164726987e+03  3.1322510644609229e+03  3.0923912529197073e+03  3.0520367752839365e+03  3.0110770863328239e+03  2.9693941741736180e+03  2.9268657227444551e+03  2.8833695282730146e+03  2.8387890328126273e+03  2.7930195744862917e+03  2.7459746857694158e+03  2.6975915908098546e+03  2.6478350544797031e+03  2.5966989637828588e+03  2.5442054324529818e+03  2.4904016869313587e+03  2.4353553662263844e+03  2.3791490456063216e+03  2.3218747579979026e+03  2.2636290975536035e+03  2.2045092398057873e+03  2.1446099822950528e+03  2.0840217430402222e+03  2.0228293611035770e+03  1.9611115110964913e+03  1.8989405511106854e+03  1.8363826519415711e+03  1.7734980905796267e+03  1.7103416244552186e+03  1.6469628909052781e+03  1.5834067977026864e+03  1.5197138857198804e+03  1.4559206549838495e+03  1.3920598517693400e+03  1.3281607181022005e+03  1.2642492069957182e+03  1.2003481676093500e+03  1.1364775047630187e+03  1.0726543171747726e+03  1.0088930186105396e+03  9.4520544594061198e+02  8.8160095795014263e+02  8.1808652866798002e+02  7.5466683896262600e+02  6.9134437023170187e+02  6.2811950422657696e+02  5.6499063356378281e+02  5.0195428873587002e+02  4.3900529059717354e+02  3.7613694446867186e+02  3.1334131654624855e+02  2.5060984773333442e+02  1.8793500425107302e+02  1.2530464537698511e+02  6.2698056180606038e+01  2.6581620449656007e-01  1.3858422687674189e-02  3.3587726002576178e-03  2.5498551458477455e-03  2.1090506819226263e-03  2.0114664295006620e-03  2.1133180978450093e-03  2.3196413839029189e-03  2.5863064813915915e-03  2.8927242993644388e-03  3.2291010431714623e-03  3.5909405922382371e-03  3.9765199432489507e-03  4.3856656002148279e-03  4.8191354536113546e-03  5.2782972790326229e-03  5.7649599436142450e-03  6.2812874278418444e-03  6.8297604928393447e-03  7.4131678412278808e-03  8.0346173443414798e-03  8.6975626128502209e-03  9.4058428933024730e-03  1.0163735978044510e-02  1.0976025040659945e-02  1.1848081345463640e-02  1.2785965815669134e-02  1.3796553628553029e-02  1.4887687486254795e-02  1.6068367185220665e-02  1.7348985987358762e-02  1.8741629413612428e-02  2.0260458576743121e-02  2.1922189507361627e-02  2.3746699250488182e-02  2.5757364722052260e-02  2.7982298547535409e-02  3.0459224941331114e-02  3.3214124502952989e-02  3.6165408260990434e-02  3.9061012536910543e-02  4.2948444140749685e-02  4.9478478968258841e-02  3.5607425140354407e-02  5.2201861156503694e-02  5.0049068238028092e-02  6.3021243538279925e-02  7.8191411762295909e-02  9.1944710963331414e-02  8.7741207173077720e-02  1.2327436178432793e-01  1.5047731809384174e-01  -1.1143368465616315e+00  -1.7416206983577445e+00  -1.5693948724279974e+00  -1.1725415072175729e+00  -5.7271309023570187e-02  -2.0791666346385330e-02  -1.6108703246841979e-01  -1.7311303551817905e-01  -1.3646526769707532e-01  -1.5709946576738892e-01  -1.7862374395610359e-01  -1.8154379737315987e-01  -1.7736827098620095e-01  -1.7225352862026277e-01  -1.6632550520065911e-01  -1.6012840864021013e-01  -1.5370037802913494e-01  -1.4697392437666965e-01  -1.3995024270495157e-01  -1.3266024600055693e-01  -1.2516031281540213e-01  -1.1751179504876033e-01  -1.0975932243652803e-01  -1.0192438815841040e-01  -9.4010825472579385e-02  -8.6012908906816565e-02  -7.7920592104832251e-02  -6.9720365150123212e-02  -6.1391160878371299e-02  -5.2886123041305848e-02  -4.3993248563719091e-02  -3.3491893963591035e-02  -1.7719985905563628e-02  -8.9508559451257574e-02  1.2936420371473973e+00  -1.8881211816217898e+00  5.1034513076097085e+01  1.0418314014064433e+02  1.5390351211974479e+02  1.5560662696726502e+02  2.7031187451503365e+02  3.2129998626256810e+02  2.8154277610646346e+02  4.4959343935868225e+02  5.0706002756057671e+02  4.2343827309666193e+02  6.5431153267894626e+02  7.2515046899871129e+02  8.0236479497930065e+02  8.8354822452985138e+02  9.6856451442209095e+02  1.0572991884232326e+03  1.1495404407893479e+03  1.2450229196906287e+03  1.3434741375531667e+03  1.4445640873948350e+03  1.5477532621901105e+03  1.6522846417230021e+03  1.7574223563163457e+03  1.8626544635247778e+03  1.9676994707459924e+03  2.0724234613970366e+03  2.1767670136489369e+03  2.2807018445487092e+03  2.3842052850863333e+03  2.4872378975613965e+03  2.5897129251266360e+03  2.6914490955302895e+03  2.7921173473830499e+03  2.8912402634456344e+03  2.9883379397233803e+03  3.0832038967354251e+03  3.1760497351731078e+03  3.2673044582017533e+03  3.3572990166828954e+03  3.4461038554877355e+03  3.5335014181955539e+03  3.6190096423952245e+03  3.7019338549652989e+03  3.7811598067124701e+03  3.8525902537567022e+03  2.8628054846934315e+03  2.9188986923020693e+03  4.0713075016837147e+03  4.1295466043499919e+03  4.1847401877024586e+03  3.0927581944675644e+03  3.1380367486000632e+03  4.3608892269741227e+03  4.4075821437584354e+03  3.2505410025485680e+03  3.2916625957930069e+03  4.5670957105900779e+03  4.6097417714567819e+03  3.3943875642332378e+03  3.4320297409998975e+03  4.7558281732616733e+03  4.7951784053709061e+03  3.5268896943889786e+03  3.5622110262625711e+03  4.9325943064246267e+03  4.9727126808995681e+03  5.0120663535937056e+03  3.6838044320839608e+03  3.7183367572088637e+03  5.1465010366729448e+03  5.1866250231893546e+03  5.2263120490038364e+03  3.8404142452376900e+03  3.8757695663204327e+03  5.3638758235836913e+03  5.4053659732573869e+03  5.4465246347848715e+03  4.0021490831963210e+03  4.0389778882786927e+03  5.5897897622380078e+03  5.6330983706356101e+03  5.6760776904632157e+03  4.1709072332098367e+03  4.2093775674001963e+03  5.8257216414392942e+03  5.8709508182574455e+03  5.9158270863636890e+03  4.3471414315160055e+03  4.3872955964604625e+03  6.0720267323112339e+03  6.1192372868961047e+03  6.1660905804163249e+03  4.5311261153534979e+03  4.5730875041795780e+03  6.3289596981665700e+03  6.3754935085660891e+03  4.6852864529164817e+03  4.7293263699050030e+03  6.5466754990742775e+03  6.5991395558292679e+03  6.6515690167204903e+03  4.8898360496355372e+03  4.9376779053283190e+03  6.8377230961356991e+03  6.8952966472427679e+03  6.9530988307620046e+03  5.1143232688221424e+03  5.1677698925708974e+03  7.1611339904589495e+03  7.2265136992982234e+03  7.2925189041354070e+03  5.3686705432574036e+03  5.4294129548961118e+03  7.5281119443098705e+03  7.5993936309772043e+03  7.6698219513441127e+03  5.6479104643587962e+03  7.8303024693197676e+03  7.9004757287220355e+03  7.9697684236160512e+03  5.8669412719195025e+03  8.1372463797734399e+03  8.2010253496029818e+03  6.0132023894292843e+03  6.0625479140403022e+03  6.1095173839789622e+03  6.1560798824645499e+03  6.2019999828004129e+03  6.2468780836871210e+03  6.2902212166778336e+03  6.3314677601355543e+03  6.3702258563302667e+03  6.4063985768258281e+03  6.4401533118636044e+03  6.4718535787733144e+03  6.5019429984132530e+03  6.5308327499523321e+03  6.5588490562973111e+03  6.5862281200702500e+03  6.6131287902161584e+03  6.6396495956571025e+03  6.6658466070504019e+03  6.6917491473697537e+03  6.7173708163190404e+03  6.7427158878432929e+03  6.7677828280722988e+03  6.7925664380579919e+03  6.8170593545425581e+03  6.8412532154275959e+03  6.8651395698927417e+03  6.8887104617098003e+03  6.9119586375217878e+03  6.9348774880931724e+03  6.9574609331875345e+03  6.9797034183333026e+03  7.0016000717445722e+03  7.0231469772330029e+03  7.0443414930998524e+03  7.0651825615026337e+03  7.0856709694258743e+03  7.1058095267129620e+03  7.1256031270811545e+03  7.1450586672310938e+03  7.1641848197955487e+03  7.1829916800196925e+03  7.2014903229458396e+03  7.2196923112977183e+03  7.2376091846400059e+03  7.2552519421019197e+03  7.2726305083450143e+03  7.2897531470006916e+03  7.3066257548188569e+03  7.3232509257799647e+03  7.3396266044756758e+03  7.3557440322963348e+03  7.3715845402845662e+03  7.3871153555352048e+03  7.4022929169029667e+03  7.4171195237187294e+03  7.4318044836858508e+03  7.4466536275568888e+03  7.4614576671318137e+03  7.4776634066889992e+03  7.4971637820156820e+03  7.5094798163033111e+03  7.5284820865675165e+03  7.5535500801746448e+03  7.5700086088872531e+03  1.0411508161421818e+04  7.6091638382633437e+03  7.6281457376217149e+03  1.0487684032339313e+04  7.6544199728747317e+03  7.6723044229441521e+03  1.0549254965628417e+04  7.6998288624418110e+03  7.7164307277250582e+03  1.0608731596797776e+04  1.0621510765593250e+04  7.7509588691596027e+03  1.0661072078107234e+04  1.0684965676980471e+04  7.7961997845043907e+03  7.8149722455903757e+03  7.8301815079671796e+03  1.0768953824921804e+04  7.8625703095186655e+03  7.8803758010705778e+03  7.8953190007151761e+03  1.0856153659592370e+04  7.9203513676268149e+03  7.9392424307600595e+03  7.9549606291703230e+03  7.9700246287091868e+03  7.9832044427683604e+03  7.9941826275745807e+03  8.0106454789393529e+03  8.0258956486628294e+03  8.0421246074914643e+03  8.0596853408900897e+03  8.0772979986693736e+03  8.0944599209424823e+03  8.1111410514164609e+03  8.1272540715401537e+03  8.1433671137834281e+03  8.1607284043300633e+03  8.1785904530832904e+03  8.1962310136635861e+03  8.2131279692002281e+03  8.2291456142307852e+03  8.2454142074446263e+03  8.2607734116304873e+03  8.2721709382081681e+03  8.2859500106824926e+03  8.3015655742557065e+03  1.1414209305529052e+04  1.1431717823411651e+04  1.1451399250020466e+04  1.1471978255376938e+04  1.1470864368869827e+04  1.1470086745760669e+04  1.1469353029533655e+04  1.1468601416123647e+04  1.1467825939583461e+04  1.1467031512665231e+04  1.1466224649226997e+04  1.1465411595443396e+04  1.1464597926834997e+04  1.1463788481249720e+04  1.1462987384474884e+04  1.1462198102747618e+04  1.1461423502583815e+04  1.1460665912078808e+04  1.1459927181566312e+04  1.1459208742348786e+04  1.1458511662437151e+04  1.1457836698452380e+04  1.1457184343110357e+04  1.1456554867987226e+04  1.1455948361503690e+04  1.1455364762254443e+04  1.1454803887941480e+04  1.1454265460252995e+04  1.1453749126073675e+04  1.1453254475426873e+04  1.1452781056542208e+04  1.1452328388422404e+04  1.1451895971254440e+04  1.1451483294977679e+04  1.1451089846287610e+04  1.1450715114320421e+04  1.1450358595232374e+04  1.1450019795858847e+04  1.1449698236612003e+04  1.1449393453752760e+04  1.1449105001152993e+04  1.1448832451645929e+04  1.1448575398048015e+04  1.1448333453922811e+04  1.1448106254146629e+04  1.1447893455326492e+04  1.1447694736113974e+04  1.1447509797451845e+04  1.1447338362785764e+04  1.1447180178269547e+04  1.1447035012989054e+04  1.1446902659227997e+04  1.1446782932797483e+04  1.1446675673450329e+04  1.1446580745401046e+04  1.1446498037973395e+04  1.1446427466398318e+04  1.1446368972787444e+04  1.1446322527309892e+04  1.1446288129603958e+04  1.1446265810459710e+04  1.1446255633814393e+04  1.1446257699109196e+04  1.1446272144064404e+04  1.1446299147939699e+04  1.1446338935357946e+04  1.1446391780783742e+04  1.1446458013763224e+04  1.1446538025047072e+04  1.1446632273734887e+04  1.1446741295592479e+04  1.1446865712700484e+04  1.1447006244584958e+04  1.1447163720943456e+04  1.1447339095988569e+04  1.1447533464240278e+04  1.1447748077230952e+04  1.1447984359910890e+04  1.1448243924334183e+04  1.1448528576107128e+04  1.1448840305565587e+04  1.1449181250123534e+04  1.1449553606713178e+04  1.1449959466744474e+04  1.1450400552506615e+04  1.1450877880383179e+04  1.1451391490055952e+04  1.1451940696664386e+04  1.1452528815653863e+04  1.1453214664580313e+04  1.1454496139005027e+04  1.1433840662794299e+04  1.1433293581305241e+04  1.1432680218689498e+04  1.1432093838283976e+04  1.1431541658681310e+04  1.1431026185561410e+04  1.1430548874115009e+04  1.1430109352187777e+04  1.1429705982075100e+04  1.1429336516964284e+04  1.1428998524155213e+04  1.1428689615814426e+04  1.1428407562168368e+04  1.1428150338540827e+04  1.1427916136727226e+04  1.1427703358112562e+04  1.1427510598272800e+04  1.1427336628387193e+04  1.1427180376276114e+04  1.1427040908465506e+04  1.1426917413895791e+04  1.1426809189470550e+04  1.1426715627420637e+04  1.1426636204354281e+04  1.1426570471821009e+04  1.1426518048208178e+04  1.1426478611796498e+04  1.1426451894816695e+04  1.1426437678367516e+04  1.1426435788073641e+04  1.1426446090379090e+04  1.1426468489386914e+04  1.1426502924169266e+04  1.1426549366483212e+04  1.1426607818837447e+04  1.1426678312862885e+04  1.1426760907947004e+04  1.1426855690097183e+04  1.1426962771002711e+04  1.1427082287268779e+04  1.1427214399798331e+04  1.1427359293299698e+04  1.1427517175899253e+04  1.1427688278838827e+04  1.1427872856237724e+04  1.1428071184898550e+04  1.1428283564134523e+04  1.1428510315594060e+04  1.1428751783055566e+04  1.1429008332161438e+04  1.1429280350055704e+04  1.1429568244883802e+04  1.1429872445105626e+04  1.1430193398564534e+04  1.1430531571244343e+04  1.1430887445634024e+04  1.1431261518605143e+04  1.1431654298690079e+04  1.1432066302628866e+04  1.1432498051029868e+04  1.1432950062963264e+04  1.1433422849277009e+04  1.1433916904392765e+04  1.1434432696304451e+04  1.1434970654465609e+04  1.1435531155215853e+04  1.1436114504362677e+04  1.1436720916508022e+04  1.1437350490693054e+04  1.1438003181937409e+04  1.1438678768279515e+04  1.1439376812993469e+04  1.1440096621778137e+04  1.1440837194898360e+04  1.1441597174515407e+04  1.1442374787770534e+04  1.1443167786547181e+04  1.1443973385133155e+04  1.1444788197011707e+04  1.1445608171352769e+04  1.1446428528143224e+04  1.1447243689003884e+04  1.1448047199466289e+04  1.1448831600342324e+04  1.1449587748687089e+04  1.1450300021968776e+04  1.1450920909401399e+04  1.1451287811559336e+04  1.1413767088695417e+04  1.1413300252383753e+04  1.1412729588199390e+04  1.1412124819198883e+04  1.1411552798854151e+04  1.1411029970742482e+04  1.1410555490552713e+04  1.1410124700663115e+04  1.1409732779226155e+04  1.1409375538998134e+04  1.1409049481518203e+04  1.1408751691176627e+04  1.1408479720018400e+04  1.1408231494418662e+04  1.1408005244284948e+04  1.1407799449601716e+04  1.1407612799421760e+04  1.1407444159733859e+04  1.1407292547777250e+04  1.1407157111166274e+04  1.1407037110703321e+04  1.1406931906088797e+04  1.1406840943951525e+04  1.1406763747766496e+04  1.1406699909326075e+04  1.1406649081501653e+04  1.1406610972085398e+04  1.1406585338541503e+04  1.1406571983527465e+04  1.1406570751070463e+04  1.1406581523303505e+04  1.1406604217681997e+04  1.1406638784614277e+04  1.1406685205450232e+04  1.1406743490780837e+04  1.1406813679008488e+04  1.1406895835153931e+04  1.1406990049870172e+04  1.1407096438637713e+04  1.1407215141118368e+04  1.1407346320647346e+04  1.1407490163844863e+04  1.1407646880329803e+04  1.1407816702518434e+04  1.1407999885491223e+04  1.1408196706910327e+04  1.1408407466969235e+04  1.1408632488354233e+04  1.1408872116195109e+04  1.1409126717979270e+04  1.1409396683399335e+04  1.1409682424099388e+04  1.1409984373278694e+04  1.1410302985104072e+04  1.1410638733873069e+04  1.1410992112858838e+04  1.1411363632754434e+04  1.1411753819618396e+04  1.1412163212204807e+04  1.1412592358538650e+04  1.1413041811571647e+04  1.1413512123723114e+04  1.1414003840075809e+04  1.1414517489956648e+04  1.1415053576587668e+04  1.1415612564443338e+04  1.1416194863898023e+04  1.1416800812693737e+04  1.1417430653707446e+04  1.1418084508454729e+04  1.1418762345741705e+04  1.1419463944883897e+04  1.1420188852969370e+04  1.1420936335785793e+04  1.1421705322302658e+04  1.1422494343063905e+04  1.1423301463565756e+04  1.1424124214641199e+04  1.1424959522588486e+04  1.1425803640298396e+04  1.1426652070366859e+04  1.1427499432756123e+04  1.1428339112701169e+04  1.1429162223426212e+04 