<?xml version="1.0"?>
<VTKFile type="UnstructuredGrid"  version="0.1"  >
<UnstructuredGrid>
<Piece  NumberOfPoints="21600" NumberOfCells="42542">
<Points>
<DataArray  type="Float64"  NumberOfComponents="3"  format="ascii">0 0 0  0.77 0 0  0.77 0.15 0  0 0.15 0  0.003221757322170014 0 0  0.006443514644340046 0 0  0.009665271966510193 0 0  0.01288702928868034 0 0  0.01610878661085048 0 0  0.01933054393302049 0 0  0.02255230125519027 0 0  0.02577405857735967 0 0  0.02899581589952872 0 0  0.03221757322169801 0 0  0.03543933054386744 0 0  0.03866108786603686 0 0  0.04188284518820627 0 0  0.0451046025103757 0 0  0.04832635983254521 0 0  0.05154811715471607 0 0  0.05476987447688695 0 0  0.05799163179905782 0 0  0.06121338912122846 0 0  0.06443514644339859 0 0  0.06765690376556875 0 0  0.0708786610877389 0 0  0.07410041840990904 0 0  0.0773221757320792 0 0  0.08054393305425039 0 0  0.08376569037642198 0 0  0.0869874476985936 0 0  0.09020920502076518 0 0  0.0934309623429339 0 0  0.0966527196651024 0 0  0.09987447698726967 0 0  0.1030962343094369 0 0  0.1063179916316041 0 0  0.1095397489537714 0 0  0.1127615062759386 0 0  0.1159832635981051 0 0  0.1192050209202709 0 0  0.1224267782424358 0 0  0.1256485355646001 0 0  0.1288702928867644 0 0  0.1320920502089288 0 0  0.1353138075310958 0 0  0.1385355648532632 0 0  0.1417573221754333 0 0  0.1449790794976035 0 0  0.1482008368197736 0 0  0.1514225941419428 0 0  0.1546443514641101 0 0  0.157866108786276 0 0  0.1610878661084403 0 0  0.1643096234306047 0 0  0.167531380752769 0 0  0.1707531380749333 0 0  0.1739748953970977 0 0  0.177196652719262 0 0  0.1804184100414264 0 0  0.1836401673635935 0 0  0.1868619246857611 0 0  0.1900836820079313 0 0  0.1933054393301014 0 0  0.1965271966522716 0 0  0.1997489539744406 0 0  0.2029707112966078 0 0  0.2061924686187736 0 0  0.209414225940938 0 0  0.2126359832631022 0 0  0.2158577405852666 0 0  0.219079497907431 0 0  0.2223012552295953 0 0  0.2255230125517597 0 0  0.2287447698739242 0 0  0.2319665271960914 0 0  0.2351882845182592 0 0  0.2384100418404293 0 0  0.2416317991625994 0 0  0.2448535564847696 0 0  0.2480753138069371 0 0  0.2512970711291014 0 0  0.2545188284512658 0 0  0.2577405857734302 0 0  0.2609623430955986 0 0  0.2641841004177688 0 0  0.2674058577399389 0 0  0.270627615062109 0 0  0.2738493723842792 0 0  0.2770711297064487 0 0  0.280292887028613 0 0  0.2835146443507774 0 0  0.2867364016729417 0 0  0.2899581589951061 0 0  0.2931799163172705 0 0  0.2964016736394348 0 0  0.2996234309615992 0 0  0.3028451882837672 0 0  0.3060669456059373 0 0  0.3092887029281075 0 0  0.3125104602502776 0 0  0.3157322175724478 0 0  0.3189539748946177 0 0  0.322175732216782 0 0  0.3253974895389464 0 0  0.3286192468611107 0 0  0.3318410041832751 0 0  0.3350627615054395 0 0  0.3382845188276038 0 0  0.3415062761497681 0 0  0.3447280334719325 0 0  0.3479497907940968 0 0  0.3511715481162612 0 0  0.3543933054384255 0 0  0.3576150627605947 0 0  0.3608368200827649 0 0  0.364058577404935 0 0  0.3672803347271051 0 0  0.3705020920492753 0 0  0.373723849371444 0 0  0.3769456066936084 0 0  0.3801673640157748 0 0  0.383389121337945 0 0  0.3866108786601209 0 0  0.3898326359823028 0 0  0.3930543933044846 0 0  0.3962761506266662 0 0  0.399497907948848 0 0  0.4027196652710298 0 0  0.4059414225932116 0 0  0.4091631799153934 0 0  0.4123849372375751 0 0  0.4156066945597569 0 0  0.4188284518819387 0 0  0.4220502092041222 0 0  0.4252719665263097 0 0  0.4284937238484974 0 0  0.4317154811706849 0 0  0.4349372384928725 0 0  0.4381589958150601 0 0  0.4413807531372476 0 0  0.4446025104594352 0 0  0.4478242677816181 0 0  0.4510460251037998 0 0  0.4542677824259815 0 0  0.4574895397481634 0 0  0.4607112970703451 0 0  0.4639330543925269 0 0  0.4671548117147087 0 0  0.4703765690368904 0 0  0.4735983263590722 0 0  0.4768200836812568 0 0  0.4800418410034444 0 0  0.483263598325632 0 0  0.4864853556478196 0 0  0.4897071129700028 0 0  0.4929288702921845 0 0  0.4961506276143663 0 0  0.4993723849365479 0 0  0.5025941422587239 0 0  0.5058158995809008 0 0  0.5090376569030826 0 0  0.5122594142252677 0 0  0.515481171547461 0 0  0.5187029288696494 0 0  0.5219246861918312 0 0  0.525146443514013 0 0  0.5283682008361947 0 0  0.5315899581583845 0 0  0.5348117154805778 0 0  0.5380334728027617 0 0  0.5412552301249435 0 0  0.5444769874471141 0 0  0.5476987447692853 0 0  0.550920502091467 0 0  0.5541422594136513 0 0  0.5573640167358447 0 0  0.560585774058034 0 0  0.5638075313802158 0 0  0.5670292887023975 0 0  0.5702510460245793 0 0  0.5734728033467682 0 0  0.5766945606689615 0 0  0.579916317991155 0 0  0.5831380753133483 0 0  0.5863598326355314 0 0  0.5895815899577131 0 0  0.5928033472798949 0 0  0.5960251046020785 0 0  0.5992468619242718 0 0  0.6024686192464619 0 0  0.6056903765686437 0 0  0.6089121338908206 0 0  0.6121338912129908 0 0  0.6153556485351673 0 0  0.618577405857349 0 0  0.6217991631795386 0 0  0.625020920501732 0 0  0.6282426778239159 0 0  0.6314644351460976 0 0  0.6346861924682795 0 0  0.6379079497904622 0 0  0.6411297071126555 0 0  0.6443514644348465 0 0  0.6475732217570283 0 0  0.650794979079206 0 0  0.6540167364013761 0 0  0.6572384937235518 0 0  0.6604602510457335 0 0  0.6636820083679225 0 0  0.6669037656901158 0 0  0.6701255230123004 0 0  0.6733472803344823 0 0  0.6765690376566641 0 0  0.6797907949788459 0 0  0.6830125523010393 0 0  0.686234309623231 0 0  0.6894560669454127 0 0  0.6926778242675914 0 0  0.6958995815897615 0 0  0.6991213389119363 0 0  0.7023430962341181 0 0  0.7055648535563062 0 0  0.7087866108784994 0 0  0.712008368200685 0 0  0.7152301255228668 0 0  0.7184518828450486 0 0  0.7216736401672305 0 0  0.724895397489423 0 0  0.7281171548116155 0 0  0.7313389121337973 0 0  0.7345606694559768 0 0  0.7377824267781468 0 0  0.7410041841003209 0 0  0.7442259414225026 0 0  0.7474476987446899 0 0  0.7506694560668832 0 0  0.7538912133890696 0 0  0.7571129707112513 0 0  0.760334728033433 0 0  0.7635564853556149 0 0  0.7667782426778067 0 0  0.77 0.001685393258423789 0  0.77 0.003370786516847669 0  0.77 0.005056179775271247 0  0.77 0.006741573033694517 0  0.77 0.008426966292117821 0  0.77 0.01011235955054176 0  0.77 0.01179775280896623 0  0.77 0.0134831460673904 0  0.77 0.01516853932581489 0  0.77 0.01685393258423891 0  0.77 0.01853932584266291 0  0.77 0.02022471910108589 0  0.77 0.02191011235950794 0  0.77 0.02359550561792999 0  0.77 0.02528089887635205 0  0.77 0.02696629213477411 0  0.77 0.02865168539319714 0  0.77 0.03033707865161956 0  0.77 0.03202247191004162 0  0.77 0.03370786516846367 0  0.77 0.03539325842688572 0  0.77 0.03707865168530778 0  0.77 0.03876404494372984 0  0.77 0.0404494382021519 0  0.77 0.04213483146057394 0  0.77 0.04382022471899601 0  0.77 0.04550561797741807 0  0.77 0.04719101123584013 0  0.77 0.04887640449426219 0  0.77 0.05056179775268425 0  0.77 0.0522471910111063 0  0.77 0.05393258426952837 0  0.77 0.05561797752795105 0  0.77 0.05730337078637505 0  0.77 0.05898876404479723 0  0.77 0.0606741573032193 0  0.77 0.06235955056164135 0  0.77 0.06404494382006341 0  0.77 0.06573033707848548 0  0.77 0.06741573033690752 0  0.77 0.06910112359532959 0  0.77 0.07078651685375165 0  0.77 0.0724719101121737 0  0.77 0.07415730337059653 0  0.77 0.07584269662902443 0  0.77 0.07752808988745429 0  0.77 0.07921348314588413 0  0.77 0.08089887640431678 0  0.77 0.08258426966274923 0  0.77 0.08426966292117907 0  0.77 0.08595505617960987 0  0.77 0.08764044943804362 0  0.77 0.08932584269647403 0  0.77 0.09101123595490389 0  0.77 0.09269662921333673 0  0.77 0.09438202247176901 0  0.77 0.09606741573019884 0  0.77 0.09775280898862983 0  0.77 0.09943820224706355 0  0.77 0.1011235955054938 0  0.77 0.1028089887639236 0  0.77 0.1044943820223567 0  0.77 0.1061797752807888 0  0.77 0.1078651685392186 0  0.77 0.1095505617976498 0  0.77 0.1112359550560835 0  0.77 0.1129213483145136 0  0.77 0.1146067415729456 0  0.77 0.1162921348313787 0  0.77 0.1179775280898085 0  0.77 0.1196629213482387 0  0.77 0.1213483146066724 0  0.77 0.1230337078651035 0  0.77 0.1247191011235322 0  0.77 0.1264044943819605 0  0.77 0.1280898876403903 0  0.77 0.1297752808988242 0  0.77 0.1314606741572554 0  0.77 0.1331460674156853 0  0.77 0.1348314606741154 0  0.77 0.1365168539325504 0  0.77 0.1382022471909802 0  0.77 0.13988764044941 0  0.77 0.1415730337078443 0  0.77 0.1432584269662752 0  0.77 0.144943820224705 0  0.77 0.1466292134831355 0  0.77 0.1483146067415701 0  0.7667782426778414 0.15 0  0.7635564853556813 0.15 0  0.7603347280335111 0.15 0  0.757112970711341 0.15 0  0.7538912133891708 0.15 0  0.7506694560670005 0.15 0  0.7474476987448303 0.15 0  0.7442259414226602 0.15 0  0.74100418410049 0.15 0  0.7377824267783197 0.15 0  0.7345606694561496 0.15 0  0.7313389121339794 0.15 0  0.7281171548118092 0.15 0  0.724895397489639 0.15 0  0.7216736401674688 0.15 0  0.7184518828452986 0.15 0  0.7152301255231284 0.15 0  0.7120083682009583 0.15 0  0.708786610878788 0.15 0  0.7055648535566178 0.15 0  0.7023430962344477 0.15 0  0.6991213389122775 0.15 0  0.6958995815901072 0.15 0  0.692677824267937 0.15 0  0.6894560669457669 0.15 0  0.6862343096235967 0.15 0  0.6830125523014264 0.15 0  0.6797907949792563 0.15 0  0.6765690376570861 0.15 0  0.6733472803349159 0.15 0  0.6701255230127456 0.15 0  0.6669037656905755 0.15 0  0.6636820083684053 0.15 0  0.6604602510462351 0.15 0  0.657238493724065 0.15 0  0.6540167364018947 0.15 0  0.6507949790797245 0.15 0  0.6475732217575543 0.15 0  0.644351464435384 0.15 0  0.6411297071132231 0.15 0  0.6379079497910645 0.15 0  0.634686192468906 0.15 0  0.6314644351467468 0.15 0  0.6282426778245765 0.15 0  0.6250209205024085 0.15 0  0.62179916318025 0.15 0  0.6185774058580914 0.15 0  0.6153556485359328 0.15 0  0.6121338912137689 0.15 0  0.6089121338915987 0.15 0  0.6056903765694354 0.15 0  0.6024686192472768 0.15 0  0.5992468619251182 0.15 0  0.5960251046029597 0.15 0  0.5928033472807912 0.15 0  0.589581589958621 0.15 0  0.5863598326364508 0.15 0  0.5831380753142792 0.15 0  0.5799163179920974 0.15 0  0.57669456
[...]
<PointData  Scalars="pressure"> 
<DataArray  type="Float64"  Name="pressure"  format="ascii">2.1593823708702610e+04  2.1525866481029872e+00  -1.6186708106967862e+00  2.1593202330928452e+04  2.1567964585240439e+04  2.1548337204636940e+04  2.1531018702868168e+04  1.5667625836342164e+04  1.5650923400654525e+04  1.5635821103080489e+04  1.5620865638594785e+04  1.5606031903074623e+04  1.5591295699143477e+04  1.5576637278270835e+04  1.5562044964451585e+04  1.5547511659877162e+04  1.5533033030088882e+04  1.5518606576780581e+04  1.5504231100295397e+04  1.5489906367887146e+04  1.5475632899909810e+04  1.5461411827013741e+04  1.5447244791952213e+04  1.5433133880435242e+04  1.5419081571459565e+04  1.5405090700998991e+04  1.5391164435006171e+04  1.5377306248946883e+04  1.5363519911887752e+04  1.5349809473666714e+04  1.5336179254001749e+04  1.5322633832596926e+04  1.5309178039427148e+04  1.5295816944444157e+04  1.5282555845962976e+04  1.5269400256964122e+04  1.5256355888487398e+04  1.5243428629193526e+04  1.5230624520024601e+04  1.5217949722687325e+04  1.5205410480392942e+04  1.5193013068872366e+04  1.5180763735078013e+04  1.5168668620072136e+04  1.5156733661182734e+04  1.5144964466228219e+04  1.5133366148812480e+04  1.5121943107143692e+04  1.5110698717086369e+04  1.5099634888041108e+04  1.5088751386673870e+04  1.5078044744672719e+04  1.5067506371777094e+04  1.5057119008421318e+04  1.5046849425102388e+04  1.5036632545030787e+04  1.5026327870408915e+04  1.5015464058519110e+04  1.5001716908103008e+04  1.4977357129272987e+04  1.4938266387071202e+04  1.4886866331070712e+04  1.4812375834697086e+04  1.4745172729796084e+04  1.4680325689145935e+04  1.4616591344438953e+04  1.4553540601167608e+04  1.4490966062804506e+04  1.4428752399989127e+04  1.4366828819280267e+04  1.4305148145629568e+04  1.4243676691456481e+04  1.4182388916323114e+04  1.4121264412148126e+04  1.4060286103554190e+04  1.3999439122048445e+04  1.3938710073036842e+04  1.3878086541812514e+04  1.3817556750233125e+04  1.3757109311272501e+04  1.3696733048670334e+04  1.3636416860696580e+04  1.3576149614274940e+04  1.3515920060319768e+04  1.3455716764199142e+04  1.3395528047345768e+04  1.3335341937536736e+04  1.3275146126460124e+04  1.3214927933997520e+04  1.3154674279250006e+04  1.3094371658763444e+04  1.3034006132691542e+04  1.2973563319787527e+04  1.2913028402141836e+04  1.2852386140496645e+04  1.2791620900770111e+04  1.2730716692129221e+04  1.2669657216574806e+04  1.2608425929571324e+04  1.2547006110794682e+04  1.2485380943621934e+04  1.2423533601581457e+04  1.2361447339657991e+04  1.2299105588133461e+04  1.2236492046562103e+04  1.2173590775537550e+04  1.2110386284100505e+04  1.2046863610947445e+04  1.1983008397999009e+04  1.1918806955338876e+04  1.1854246316999761e+04  1.1789314287515785e+04  1.1723999479546452e+04  1.1658291343183524e+04  1.1592180187762049e+04  1.1525657197107086e+04  1.1458714439160112e+04  1.1391344870860368e+04  1.1323542339019192e+04  1.1255301577744227e+04  1.1186618202766322e+04  1.1117488702816274e+04  1.1047910428011277e+04  1.0977881575053621e+04  1.0907401168932602e+04  1.0836469040756281e+04  1.0765085801325751e+04  1.0693252810099697e+04  1.0620972139271107e+04  1.0548246532786690e+04  1.0475079360269488e+04  1.0401474565946965e+04  1.0327436612828651e+04  1.0252970422510722e+04  1.0178081311100479e+04  1.0102774921847447e+04  1.0027057155134349e+04  9.9509340965206393e+03  9.8744119435460834e+03  9.7974969319916800e+03  9.7201952622679437e+03  9.6425130265599273e+03  9.5644561373108736e+03  9.4860302575765381e+03  9.4072407337389141e+03  9.3280925310295388e+03  9.2485901722885737e+03  9.1687376803743828e+03  9.0885385246412879e+03  9.0079955719194822e+03  8.9271110424595736e+03  8.8458864713408584e+03  8.7643226758840119e+03  8.6824197296495950e+03  8.6001769436395625e+03  8.5175928553440881e+03  8.4346652262824518e+03  8.3513910486742334e+03  8.2677665618338815e+03  8.1837872788101604e+03  8.0994480236842501e+03  8.0147429797996783e+03  7.9296657490164580e+03  7.8442094218706707e+03  7.7583666582805809e+03  7.6721297781716603e+03  7.5854908611176215e+03  7.4984418538077689e+03  7.4109746838736846e+03  7.3230813783552067e+03  7.2347541848602405e+03  7.1459856932994117e+03  7.0567689559618266e+03  6.9670976036425172e+03  6.8769659555630642e+03  6.7863691209215094e+03  6.6953030900821077e+03  6.6037648136630278e+03  6.5117522680756447e+03  6.4192645064245735e+03  6.3263016940559128e+03  6.2328651284365396e+03  6.1389572434455540e+03  6.0445815985331983e+03  5.9497428535505142e+03  5.8544467303543806e+03  5.7586999625389999e+03  5.6625102348395312e+03  5.5658861138773427e+03  5.4688369719884722e+03  5.3713729058887093e+03  5.2735046518854424e+03  5.1752434992678964e+03  5.0766012033849311e+03  4.9775898997715685e+03  4.8782220205237609e+03  4.7785102139392129e+03  4.6784672682675837e+03  4.5781060402329003e+03  4.4774393888225650e+03  4.3764801146833097e+03  4.2752409053168149e+03  4.1737342861447187e+03  4.0719725774048366e+03  3.9699678567443834e+03  3.8677319273073440e+03  3.7652762910523484e+03  3.6626121269914011e+03  3.5597502740147715e+03  3.4567012179424528e+03  3.3534750824387161e+03  3.2500816234234380e+03  3.1465302266198237e+03  3.0428299078938935e+03  2.9389893160523861e+03  2.8350167377876746e+03  2.7309201044816409e+03  2.6267070005978899e+03  2.5223846734220215e+03  2.4179600439319424e+03  2.3134397186012043e+03  2.2088300019697440e+03  2.1041369098346545e+03  1.9993661829435978e+03  1.8945233010999596e+03  1.7896134976176807e+03  1.6846417741051853e+03  1.5796129156021473e+03  1.4745315061638362e+03  1.3694019450974401e+03  1.2642284642278282e+03  1.1590151468905417e+03  1.0537659499428257e+03  9.4848473126574811e+02  8.4317528781730971e+02  7.3784141526470091e+02  6.3248701315287178e+02  5.2711630195379814e+02  4.2173458010500667e+02  3.1635070023938169e+02  2.1096730211261328e+02  1.0557380299240333e+02  4.4757339977042726e-01  2.2904669516484788e-02  4.7342114857805316e-03  2.7835597026784221e-03  1.4440485484300573e-03  6.7540831964245861e-04  2.3186566334783935e-04  -4.9544179598973611e-05  -2.4596111818645249e-04  -3.9487658477300758e-04  -5.1566958815602677e-04  -6.1890210593498664e-04  -7.1059834702202451e-04  -7.9433143469300783e-04  -8.7229173653630349e-04  -9.4585856109041311e-04  -1.0159186770190107e-03  -1.0830503727967187e-03  -1.1476333806714140e-03  -1.2099165079152673e-03  -1.2700603826514168e-03  -1.3281651396123745e-03  -1.3842887566726805e-03  -1.4384594505746438e-03  -1.4906842175601970e-03  -1.5409548229978216e-03  -1.5892520731544937e-03  -1.6355489109408769e-03  -1.6798126945062808e-03  -1.7220069004082285e-03  -1.7620924156035731e-03  -1.8000285330917046e-03  -1.8357737306066888e-03  -1.8692862894331161e-03  -1.9005247936607524e-03  -1.9294485394935313e-03  -1.9560178758157103e-03  -1.9801944918769652e-03  -2.0019416634893946e-03  -2.0212244663918035e-03  -2.0380099629707404e-03  -2.0522673670403968e-03  -2.0639681898681973e-03  -2.0730863699214811e-03  -2.0795983875253029e-03  -2.0834833656573275e-03  -2.0847231568584734e-03  -2.0833024161425653e-03  -2.0792086588811080e-03  -2.0724323030595427e-03  -2.0629666931437193e-03  -2.0508081039988112e-03  -2.0359557211151722e-03  -2.0184115931284321e-03  -1.9981805516595019e-03  -1.9752700912341855e-03  -1.9496902010909846e-03  -1.9214531373192990e-03  -1.8905731210738361e-03  -1.8570659439742681e-03  -1.8209484555847151e-03  -1.7822379003251819e-03  -1.7409510599668090e-03  -1.6971031433624616e-03  -1.6507063436433296e-03  -1.6017679565410675e-03  -1.5502879132963268e-03  -1.4962555284691961e-03  -1.4396451889681305e-03  -1.3804106096212659e-03  -1.3184771452735354e-03  -1.2537314742695550e-03  -1.1860077589716674e-03  -1.1150691776224810e-03  -1.0405836248817610e-03  -9.6209270010210281e-04  -8.7897461667219999e-04  -7.9040619121956959e-04  -6.9534041723937708e-04  -5.9253836717712755e-04  -4.8070108349736900e-04  -3.5846148348987511e-04  -2.2045696648248831e-04  1.2954330757492062e-05  1.5779524532337787e-03  1.7971822742192639e-02  1.3025489002018301e-01  7.3631135862871747e-02  1.0593360493197112e+02  2.1344642824877664e+02  3.2033203993569430e+02  4.2719892176762687e+02  5.3407148599565414e+02  6.4095408248391936e+02  7.4785324299123806e+02  8.5477424848578221e+02  9.6172178055827419e+02  1.0687003343949991e+03  1.1757143946103984e+03  1.2827685342531297e+03  1.3898674807901427e+03  1.4970161661734526e+03  1.6042197694126169e+03  1.7114837560434296e+03  1.8188139169722429e+03  1.9262164082422676e+03  2.0336977928010936e+03  2.1412650851183234e+03  2.2489257994010700e+03  2.3566880021295824e+03  2.4645603696590083e+03  2.5725522516932087e+03  2.6806737415262555e+03  2.7889357540657197e+03  2.8973501127996678e+03  3.0059296470500981e+03  3.1146883010737688e+03  3.2236412568340320e+03  3.3328050725827597e+03  3.4421978397702455e+03  3.5518393612561608e+03  3.6617513543420055e+03  3.7719576828042345e+03  3.8824846228994097e+03  3.9933611692650306e+03  4.1046193877811602e+03  4.2162948238193603e+03  4.3284269759157578e+03  4.4410598467850659e+03  4.5542425857275348e+03  4.6680302388240743e+03  4.7824846256732926e+03  4.8976753634116712e+03  5.0136810595569577e+03  5.1305906931690552e+03  5.2485051957503601e+03  5.3675392229818217e+03  5.4878230637036077e+03  5.6095045398333878e+03  5.7327505633553292e+03  5.8577476405955031e+03  5.9846998610071096e+03  6.1138213944579229e+03  6.2453174766433067e+03  6.3793418304459792e+03  6.5159073621570069e+03  6.6547109759878431e+03  6.7948240099773020e+03  6.9341996184028958e+03  7.0687522859341516e+03  7.1901061359780051e+03  7.2834223151254600e+03  7.3375256265652633e+03  7.3682128757997743e+03  7.3969742703904258e+03  7.4309320564366417e+03  7.4707135417945037e+03  7.5079605333008403e+03  7.5456624640138816e+03  7.5885502827536184e+03  7.6372470358135770e+03  7.6877029625719706e+03  7.7406677562910700e+03  7.7990890088106662e+03  7.8669888112628296e+03  7.9434537965304098e+03  8.0201374816871185e+03  8.0925904414412371e+03  8.1682299233951981e+03  8.2481591672853356e+03  8.3312894579120129e+03  8.4149994836047626e+03  8.4962061382908942e+03  8.5785808902464378e+03  8.6695038263843890e+03  8.7630326636615337e+03  8.8601219893882953e+03  8.9640418378411141e+03  1.2418446255232158e+04  1.2508848136069008e+04  1.2615541513258499e+04  9.3042956069656648e+03  1.2904427084838575e+04  1.3011406599789920e+04  9.5737498043105643e+03  9.6715635910826459e+03  9.7713979838987234e+03  1.3537466390655709e+04  1.3649546280897364e+04  1.3752872301942249e+04  1.3854710634800465e+04  1.3946681835034604e+04  1.4041628582687450e+04  1.4135281697245708e+04  1.4230721735348670e+04  1.0467911486804267e+04  1.4510610218103839e+04  1.4611813791923601e+04  1.4726555005194290e+04  1.4858300387008547e+04  1.4983659423207417e+04  1.5093541221530322e+04  1.1082595453591493e+04  1.5320128454547499e+04  1.5409073695587540e+04  1.1297782653953274e+04  1.5585904393237382e+04  1.5640662115948118e+04  1.5700207152101042e+04  1.5771810024347285e+04  1.5859175302735843e+04  1.5949578709447367e+04  1.1685531201524551e+04  1.1729624680427612e+04  1.6189728155738121e+04  1.1849939393499291e+04  1.1913681513097819e+04  1.6445242798921958e+04  1.2046697507021183e+04  1.2108752764175544e+04  1.6688586126272381e+04  1.6756327184577731e+04  1.2243890645757527e+04  1.6881441698838546e+04  1.6934238444144994e+04  1.2385358379771415e+04  1.2440119077654579e+04  1.7141820578096365e+04  1.7213120762461869e+04  1.2600659827894997e+04  1.2655143211605806e+04  1.7429660821611968e+04  1.2746240402416917e+04  1.2804786637868476e+04  1.7640300656544176e+04  1.2896415640476396e+04  1.7767077357860482e+04  1.7828518835946154e+04  1.7899412534267994e+04  1.7974832568050482e+04  1.8045891787765864e+04  1.8111013230585642e+04  1.3247139225073963e+04  1.3308476581105706e+04  1.8359873473651900e+04  1.8449799758258188e+04  1.3502201595271137e+04  1.8603927776643159e+04  1.8664840399007615e+04  1.8737881555277978e+04  1.8815134439413083e+04  1.3761558404946860e+04  1.8975182179585678e+04  1.9042162700047127e+04  1.3909473763866416e+04  1.9148259617241751e+04  1.4001513896476148e+04  1.4051066020983315e+04  1.4091105291797461e+04  1.4133464103831146e+04  1.4190705620812863e+04  1.4260734623539161e+04  1.4298871861556952e+04  1.4341064679060262e+04  1.4381525149253688e+04  1.4426132963747590e+04  1.4476184154907240e+04  1.4507780049005922e+04  1.4550897912896491e+04  1.4578399472798412e+04  1.4616988037138679e+04  1.4666068736124298e+04  1.4695239276597335e+04  1.4730867826464995e+04  1.4776162265461136e+04  1.4805214598818273e+04  2.0357952326047212e+04  1.4871861239066844e+04  1.4902834643708677e+04  2.0483262508833090e+04  1.4943278938809068e+04  1.4969493034408832e+04  2.0573840968966513e+04  1.5008432128115575e+04  1.5031187209971698e+04  2.0655458391144468e+04  2.0672202772922210e+04  1.5076385916477208e+04  2.0722438015334170e+04  2.0752114090646242e+04  1.5132433343955225e+04  1.5154965230020813e+04  1.5172764660904264e+04  2.0851773510423249e+04  1.5210252380273638e+04  1.5230575716926782e+04  1.5247370810848373e+04  2.0950835306029174e+04  1.5275250214526619e+04  1.5296041664365310e+04  1.5313200353748663e+04  1.5329539790256624e+04  1.5343756438550630e+04  1.5355492779561408e+04  1.5373028293773075e+04  1.5389184175993274e+04  1.5406290489018471e+04  1.5424730547046865e+04  1.5443160700552993e+04  1.5461054420393204e+04  1.5478385974125793e+04  1.5495066360918077e+04  1.5511680229585139e+04  1.5529525235616275e+04  1.5547839888505890e+04  1.5565884377770763e+04  1.5583126866855608e+04  1.5599427198540012e+04  1.5615941256749022e+04  1.5631502470058680e+04  1.5643018907915104e+04  1.5656916728207460e+04  1.5672637977628372e+04  2.1532958109751333e+04  2.1550527024140411e+04  2.1570248082426908e+04  2.1590840376279590e+04  2.1589737194712921e+04  2.1588978500380203e+04  2.1588272044875699e+04  2.1587556196540037e+04  2.1586825172767931e+04  2.1586084050833953e+04  2.1585339480534836e+04  2.1584597813406392e+04  2.1583864699941278e+04  2.1583145023162895e+04  2.1582442924867504e+04  2.1581761858820384e+04  2.1581104651387825e+04  2.1580473563785054e+04  2.1579870353817412e+04  2.1579296335799154e+04  2.1578752437552692e+04  2.1578239253606844e+04  2.1577757093987304e+04  2.1577306028273622e+04  2.1576885924845490e+04  2.1576496485433359e+04  2.1576137275225628e+04  2.1575807748870870e+04  2.1575507272760580e+04  2.1575235143993381e+04  2.1574990606417232e+04  2.1574772864125698e+04  2.1574581092757177e+04  2.1574414448912878e+04  2.1574272077975711e+04  2.1574153120578205e+04  2.1574056717936735e+04  2.1573982016239072e+04  2.1573928170246927e+04  2.1573894346250996e+04  2.1573879724496168e+04  2.1573883501176355e+04  2.1573904890083559e+04  2.1573943123982604e+04  2.1573997455772027e+04  2.1574067159482747e+04  2.1574151531158041e+04  2.1574249889652674e+04  2.1574361577383414e+04  2.1574485961059789e+04  2.1574622432420325e+04  2.1574770408997640e+04  2.1574929334934299e+04  2.1575098681870491e+04  2.1575277949924424e+04  2.1575466668787489e+04  2.1575664398956898e+04  2.1575870733131076e+04  2.1576085297795460e+04  2.1576307755030619e+04  2.1576537804578489e+04  2.1576775186209044e+04  2.1577019682435890e+04  2.1577271121638416e+04  2.1577529381657114e+04  2.1577794393941243e+04  2.1578066148340775e+04  2.1578344698649380e+04  2.1578630169022254e+04  2.1578922761407834e+04  2.1579222764147165e+04  2.1579530561902360e+04  2.1579846647068458e+04  2.1580171632788206e+04  2.1580506267599802e+04  2.1580851451561375e+04  2.1581208253333923e+04  2.1581577927038597e+04  2.1581961926509721e+04  2.1582361912491273e+04  2.1582779744843894e+04  2.1583217446361246e+04  2.1583677117350628e+04  2.1584160773735697e+04  2.1584670087977953e+04  2.1585206058336553e+04  2.1585768744884797e+04  2.1586357527373715e+04  2.1586975837555907e+04  2.1587682683134539e+04  2.1588976285121393e+04  2.1568332114171561e+04  2.1567773362206412e+04  2.1567139281544318e+04  2.1566522920688636e+04  2.1565931314337031e+04  2.1565366846986672e+04  2.1564830913784601e+04  2.1564323133230231e+04  2.1563841896450918e+04  2.1563385014567702e+04  2.1562950135974537e+04  2.1562534973235513e+04  2.1562137413738983e+04  2.1561755565026793e+04  2.1561387764987056e+04  2.1561032574126606e+04  2.1560688759542303e+04  2.1560355275841914e+04  2.1560031245779461e+04  2.1559715941973827e+04  2.1559408770307047e+04  2.1559109255183106e+04  2.1558817026613273e+04  2.1558531808991673e+04  2.1558253411384252e+04  2.1557981719146577e+04  2.1557716686694428e+04  2.1557458331267619e+04  2.1557206727545934e+04  2.1556962002994791e+04  2.1556724333835467e+04  2.1556493941550267e+04  2.1556271089846086e+04  2.1556056082011681e+04  2.1555849258613365e+04  2.1555650995482087e+04  2.1555461701951517e+04  2.1555281819312419e+04  2.1555111819452792e+04  2.1554952203657260e+04  2.1554803501541322e+04  2.1554666270098547e+04  2.1554541092839925e+04  2.1554428579005020e+04  2.1554329362824818e+04  2.1554244102815308e+04  2.1554173481079531e+04  2.1554118202593581e+04  2.1554078994449443e+04  2.1554056605023168e+04  2.1554051803032744e+04  2.1554065376443235e+04  2.1554098131170238e+04  2.1554150889522945e+04  2.1554224488318341e+04  2.1554319776584744e+04  2.1554437612758509e+04  2.1554578861260030e+04  2.1554744388315012e+04  2.1554935056863877e+04  2.1555151720375627e+04  2.1555395215352928e+04  2.1555666352282657e+04  2.1555965904750934e+04  2.1556294596405529e+04  2.1556653085411945e+04  2.1557041946016241e+04  2.1557461646801163e+04  2.1557912525207070e+04  2.1558394757893708e+04  2.1558908326551405e+04  2.1559452978842361e+04  2.1560028184277227e+04  2.1560633085021695e+04  2.1561266441891967e+04  2.1561926576132166e+04  2.1562611307936586e+04  2.1563317892981959e+04  2.1564042958244339e+04  2.1564782437707025e+04  2.1565531506898100e+04  2.1566284513224262e+04  2.1567034897643887e+04  2.1567775064861155e+04  2.1568495701904696e+04  2.1569180978556229e+04  2.1569783138026491e+04  2.1570139328600231e+04  2.1548302485211410e+04  2.1547825369151156e+04  2.1547235136882064e+04  2.1546601331397687e+04  2.1545990476775674e+04  2.1545418928593532e+04  2.1544885855321078e+04  2.1544386650426273e+04  2.1543916563266554e+04  2.1543471492801753e+04  2.1543048040312799e+04  2.1542643402967140e+04  2.1542255258334513e+04  2.1541881670806091e+04  2.1541521020539283e+04  2.1541171949744312e+04  2.1540833321421429e+04  2.1540504186979917e+04  2.1540183760308715e+04  2.1539871396660263e+04  2.1539566575223296e+04  2.1539268884590907e+04  2.1538978010545168e+04  2.1538693725723533e+04  2.1538415880831446e+04  2.1538144397137046e+04  2.1537879260036585e+04  2.1537620513519087e+04  2.1537368255390302e+04  2.1537122633140283e+04  2.1536883840359100e+04  2.1536652113620799e+04  2.1536427729768984e+04  2.1536211003548004e+04  2.1536002285532337e+04  2.1535801960313929e+04  2.1535610444913353e+04  2.1535428187384943e+04  2.1535255665590394e+04  2.1535093386118002e+04  2.1534941883327210e+04  2.1534801718499853e+04  2.1534673479080608e+04  2.1534557777989568e+04  2.1534455252990243e+04  2.1534366566095301e+04  2.1534292402991650e+04  2.1534233472464439e+04  2.1534190505797207e+04  2.1534164256122185e+04  2.1534155497690634e+04  2.1534165025027763e+04  2.1534193651930793e+04  2.1534242210260531e+04  2.1534311548467773e+04  2.1534402529784387e+04  2.1534516029995473e+04  2.1534652934692942e+04  2.1534814135891669e+04  2.1535000527866941e+04  2.1535213002045577e+04  2.1535452440752320e+04  2.1535719709577883e+04  2.1536015648094508e+04  2.1536341058600137e+04  2.1536696692522404e+04  2.1537083234061327e+04  2.1537501280595709e+04  2.1537951319327774e+04  2.1538433699598714e+04  2.1538948600284697e+04  2.1539495991691576e+04  2.1540075591429402e+04  2.1540686813895405e+04  2.1541328713273422e+04  2.1541999920433816e+04  2.1542698574852922e+04  2.1543422253641686e+04  2.1544167900520821e+04  2.1544931756134876e+04  2.1545709280849991e+04  2.1546495022682520e+04  2.1547