<?xml version="1.0"?>
<VTKFile type="UnstructuredGrid"  version="0.1"  >
<UnstructuredGrid>
<Piece  NumberOfPoints="21600" NumberOfCells="42542">
<Points>
<DataArray  type="Float64"  NumberOfComponents="3"  format="ascii">0 0 0  0.77 0 0  0.77 0.15 0  0 0.15 0  0.003221757322170014 0 0  0.006443514644340046 0 0  0.009665271966510193 0 0  0.01288702928868034 0 0  0.01610878661085048 0 0  0.01933054393302049 0 0  0.02255230125519027 0 0  0.02577405857735967 0 0  0.02899581589952872 0 0  0.03221757322169801 0 0  0.03543933054386744 0 0  0.03866108786603686 0 0  0.04188284518820627 0 0  0.0451046025103757 0 0  0.04832635983254521 0 0  0.05154811715471607 0 0  0.05476987447688695 0 0  0.05799163179905782 0 0  0.06121338912122846 0 0  0.06443514644339859 0 0  0.06765690376556875 0 0  0.0708786610877389 0 0  0.07410041840990904 0 0  0.0773221757320792 0 0  0.08054393305425039 0 0  0.08376569037642198 0 0  0.0869874476985936 0 0  0.09020920502076518 0 0  0.0934309623429339 0 0  0.0966527196651024 0 0  0.09987447698726967 0 0  0.1030962343094369 0 0  0.1063179916316041 0 0  0.1095397489537714 0 0  0.1127615062759386 0 0  0.1159832635981051 0 0  0.1192050209202709 0 0  0.1224267782424358 0 0  0.1256485355646001 0 0  0.1288702928867644 0 0  0.1320920502089288 0 0  0.1353138075310958 0 0  0.1385355648532632 0 0  0.1417573221754333 0 0  0.1449790794976035 0 0  0.1482008368197736 0 0  0.1514225941419428 0 0  0.1546443514641101 0 0  0.157866108786276 0 0  0.1610878661084403 0 0  0.1643096234306047 0 0  0.167531380752769 0 0  0.1707531380749333 0 0  0.1739748953970977 0 0  0.177196652719262 0 0  0.1804184100414264 0 0  0.1836401673635935 0 0  0.1868619246857611 0 0  0.1900836820079313 0 0  0.1933054393301014 0 0  0.1965271966522716 0 0  0.1997489539744406 0 0  0.2029707112966078 0 0  0.2061924686187736 0 0  0.209414225940938 0 0  0.2126359832631022 0 0  0.2158577405852666 0 0  0.219079497907431 0 0  0.2223012552295953 0 0  0.2255230125517597 0 0  0.2287447698739242 0 0  0.2319665271960914 0 0  0.2351882845182592 0 0  0.2384100418404293 0 0  0.2416317991625994 0 0  0.2448535564847696 0 0  0.2480753138069371 0 0  0.2512970711291014 0 0  0.2545188284512658 0 0  0.2577405857734302 0 0  0.2609623430955986 0 0  0.2641841004177688 0 0  0.2674058577399389 0 0  0.270627615062109 0 0  0.2738493723842792 0 0  0.2770711297064487 0 0  0.280292887028613 0 0  0.2835146443507774 0 0  0.2867364016729417 0 0  0.2899581589951061 0 0  0.2931799163172705 0 0  0.2964016736394348 0 0  0.2996234309615992 0 0  0.3028451882837672 0 0  0.3060669456059373 0 0  0.3092887029281075 0 0  0.3125104602502776 0 0  0.3157322175724478 0 0  0.3189539748946177 0 0  0.322175732216782 0 0  0.3253974895389464 0 0  0.3286192468611107 0 0  0.3318410041832751 0 0  0.3350627615054395 0 0  0.3382845188276038 0 0  0.3415062761497681 0 0  0.3447280334719325 0 0  0.3479497907940968 0 0  0.3511715481162612 0 0  0.3543933054384255 0 0  0.3576150627605947 0 0  0.3608368200827649 0 0  0.364058577404935 0 0  0.3672803347271051 0 0  0.3705020920492753 0 0  0.373723849371444 0 0  0.3769456066936084 0 0  0.3801673640157748 0 0  0.383389121337945 0 0  0.3866108786601209 0 0  0.3898326359823028 0 0  0.3930543933044846 0 0  0.3962761506266662 0 0  0.399497907948848 0 0  0.4027196652710298 0 0  0.4059414225932116 0 0  0.4091631799153934 0 0  0.4123849372375751 0 0  0.4156066945597569 0 0  0.4188284518819387 0 0  0.4220502092041222 0 0  0.4252719665263097 0 0  0.4284937238484974 0 0  0.4317154811706849 0 0  0.4349372384928725 0 0  0.4381589958150601 0 0  0.4413807531372476 0 0  0.4446025104594352 0 0  0.4478242677816181 0 0  0.4510460251037998 0 0  0.4542677824259815 0 0  0.4574895397481634 0 0  0.4607112970703451 0 0  0.4639330543925269 0 0  0.4671548117147087 0 0  0.4703765690368904 0 0  0.4735983263590722 0 0  0.4768200836812568 0 0  0.4800418410034444 0 0  0.483263598325632 0 0  0.4864853556478196 0 0  0.4897071129700028 0 0  0.4929288702921845 0 0  0.4961506276143663 0 0  0.4993723849365479 0 0  0.5025941422587239 0 0  0.5058158995809008 0 0  0.5090376569030826 0 0  0.5122594142252677 0 0  0.515481171547461 0 0  0.5187029288696494 0 0  0.5219246861918312 0 0  0.525146443514013 0 0  0.5283682008361947 0 0  0.5315899581583845 0 0  0.5348117154805778 0 0  0.5380334728027617 0 0  0.5412552301249435 0 0  0.5444769874471141 0 0  0.5476987447692853 0 0  0.550920502091467 0 0  0.5541422594136513 0 0  0.5573640167358447 0 0  0.560585774058034 0 0  0.5638075313802158 0 0  0.5670292887023975 0 0  0.5702510460245793 0 0  0.5734728033467682 0 0  0.5766945606689615 0 0  0.579916317991155 0 0  0.5831380753133483 0 0  0.5863598326355314 0 0  0.5895815899577131 0 0  0.5928033472798949 0 0  0.5960251046020785 0 0  0.5992468619242718 0 0  0.6024686192464619 0 0  0.6056903765686437 0 0  0.6089121338908206 0 0  0.6121338912129908 0 0  0.6153556485351673 0 0  0.618577405857349 0 0  0.6217991631795386 0 0  0.625020920501732 0 0  0.6282426778239159 0 0  0.6314644351460976 0 0  0.6346861924682795 0 0  0.6379079497904622 0 0  0.6411297071126555 0 0  0.6443514644348465 0 0  0.6475732217570283 0 0  0.650794979079206 0 0  0.6540167364013761 0 0  0.6572384937235518 0 0  0.6604602510457335 0 0  0.6636820083679225 0 0  0.6669037656901158 0 0  0.6701255230123004 0 0  0.6733472803344823 0 0  0.6765690376566641 0 0  0.6797907949788459 0 0  0.6830125523010393 0 0  0.686234309623231 0 0  0.6894560669454127 0 0  0.6926778242675914 0 0  0.6958995815897615 0 0  0.6991213389119363 0 0  0.7023430962341181 0 0  0.7055648535563062 0 0  0.7087866108784994 0 0  0.712008368200685 0 0  0.7152301255228668 0 0  0.7184518828450486 0 0  0.7216736401672305 0 0  0.724895397489423 0 0  0.7281171548116155 0 0  0.7313389121337973 0 0  0.7345606694559768 0 0  0.7377824267781468 0 0  0.7410041841003209 0 0  0.7442259414225026 0 0  0.7474476987446899 0 0  0.7506694560668832 0 0  0.7538912133890696 0 0  0.7571129707112513 0 0  0.760334728033433 0 0  0.7635564853556149 0 0  0.7667782426778067 0 0  0.77 0.001685393258423789 0  0.77 0.003370786516847669 0  0.77 0.005056179775271247 0  0.77 0.006741573033694517 0  0.77 0.008426966292117821 0  0.77 0.01011235955054176 0  0.77 0.01179775280896623 0  0.77 0.0134831460673904 0  0.77 0.01516853932581489 0  0.77 0.01685393258423891 0  0.77 0.01853932584266291 0  0.77 0.02022471910108589 0  0.77 0.02191011235950794 0  0.77 0.02359550561792999 0  0.77 0.02528089887635205 0  0.77 0.02696629213477411 0  0.77 0.02865168539319714 0  0.77 0.03033707865161956 0  0.77 0.03202247191004162 0  0.77 0.03370786516846367 0  0.77 0.03539325842688572 0  0.77 0.03707865168530778 0  0.77 0.03876404494372984 0  0.77 0.0404494382021519 0  0.77 0.04213483146057394 0  0.77 0.04382022471899601 0  0.77 0.04550561797741807 0  0.77 0.04719101123584013 0  0.77 0.04887640449426219 0  0.77 0.05056179775268425 0  0.77 0.0522471910111063 0  0.77 0.05393258426952837 0  0.77 0.05561797752795105 0  0.77 0.05730337078637505 0  0.77 0.05898876404479723 0  0.77 0.0606741573032193 0  0.77 0.06235955056164135 0  0.77 0.06404494382006341 0  0.77 0.06573033707848548 0  0.77 0.06741573033690752 0  0.77 0.06910112359532959 0  0.77 0.07078651685375165 0  0.77 0.0724719101121737 0  0.77 0.07415730337059653 0  0.77 0.07584269662902443 0  0.77 0.07752808988745429 0  0.77 0.07921348314588413 0  0.77 0.08089887640431678 0  0.77 0.08258426966274923 0  0.77 0.08426966292117907 0  0.77 0.08595505617960987 0  0.77 0.08764044943804362 0  0.77 0.08932584269647403 0  0.77 0.09101123595490389 0  0.77 0.09269662921333673 0  0.77 0.09438202247176901 0  0.77 0.09606741573019884 0  0.77 0.09775280898862983 0  0.77 0.09943820224706355 0  0.77 0.1011235955054938 0  0.77 0.1028089887639236 0  0.77 0.1044943820223567 0  0.77 0.1061797752807888 0  0.77 0.1078651685392186 0  0.77 0.1095505617976498 0  0.77 0.1112359550560835 0  0.77 0.1129213483145136 0  0.77 0.1146067415729456 0  0.77 0.1162921348313787 0  0.77 0.1179775280898085 0  0.77 0.1196629213482387 0  0.77 0.1213483146066724 0  0.77 0.1230337078651035 0  0.77 0.1247191011235322 0  0.77 0.1264044943819605 0  0.77 0.1280898876403903 0  0.77 0.1297752808988242 0  0.77 0.1314606741572554 0  0.77 0.1331460674156853 0  0.77 0.1348314606741154 0  0.77 0.1365168539325504 0  0.77 0.1382022471909802 0  0.77 0.13988764044941 0  0.77 0.1415730337078443 0  0.77 0.1432584269662752 0  0.77 0.144943820224705 0  0.77 0.1466292134831355 0  0.77 0.1483146067415701 0  0.7667782426778414 0.15 0  0.7635564853556813 0.15 0  0.7603347280335111 0.15 0  0.757112970711341 0.15 0  0.7538912133891708 0.15 0  0.7506694560670005 0.15 0  0.7474476987448303 0.15 0  0.7442259414226602 0.15 0  0.74100418410049 0.15 0  0.7377824267783197 0.15 0  0.7345606694561496 0.15 0  0.7313389121339794 0.15 0  0.7281171548118092 0.15 0  0.724895397489639 0.15 0  0.7216736401674688 0.15 0  0.7184518828452986 0.15 0  0.7152301255231284 0.15 0  0.7120083682009583 0.15 0  0.708786610878788 0.15 0  0.7055648535566178 0.15 0  0.7023430962344477 0.15 0  0.6991213389122775 0.15 0  0.6958995815901072 0.15 0  0.692677824267937 0.15 0  0.6894560669457669 0.15 0  0.6862343096235967 0.15 0  0.6830125523014264 0.15 0  0.6797907949792563 0.15 0  0.6765690376570861 0.15 0  0.6733472803349159 0.15 0  0.6701255230127456 0.15 0  0.6669037656905755 0.15 0  0.6636820083684053 0.15 0  0.6604602510462351 0.15 0  0.657238493724065 0.15 0  0.6540167364018947 0.15 0  0.6507949790797245 0.15 0  0.6475732217575543 0.15 0  0.644351464435384 0.15 0  0.6411297071132231 0.15 0  0.6379079497910645 0.15 0  0.634686192468906 0.15 0  0.6314644351467468 0.15 0  0.6282426778245765 0.15 0  0.6250209205024085 0.15 0  0.62179916318025 0.15 0  0.6185774058580914 0.15 0  0.6153556485359328 0.15 0  0.6121338912137689 0.15 0  0.6089121338915987 0.15 0  0.6056903765694354 0.15 0  0.6024686192472768 0.15 0  0.5992468619251182 0.15 0  0.5960251046029597 0.15 0  0.5928033472807912 0.15 0  0.589581589958621 0.15 0  0.5863598326364508 0.15 0  0.5831380753142792 0.15 0  0.5799163179920974 0.15 0  0.57669456
[...]
<PointData  Scalars="pressure"> 
<DataArray  type="Float64"  Name="pressure"  format="ascii">1.0958606452914188e+04  7.8476129731981570e-01  -1.4016829830704438e+00  1.0970900319256300e+04  1.0932738128068335e+04  1.0913074782184845e+04  1.0895701638732704e+04  7.9201073461332498e+03  7.9033000740222187e+03  7.8880756895777895e+03  7.8729744834422163e+03  7.8579707677616616e+03  7.8430396063501057e+03  7.8281603908205834e+03  7.8133204937820319e+03  7.7985117653869274e+03  7.7837287129087517e+03  7.7689675699231111e+03  7.7542257558464189e+03  7.7395015415779944e+03  7.7247938333122065e+03  7.7101020275912006e+03  7.6954259112421751e+03  7.6807655907080480e+03  7.6661214412960589e+03  7.6514940703470938e+03  7.6368842904168578e+03  7.6222930998554548e+03  7.6077216689982770e+03  7.5931713307211694e+03  7.5786435744744258e+03  7.5641400431559205e+03  7.5496625323547451e+03  7.5352129916164122e+03  7.5207935274664587e+03  7.5064064079905856e+03  7.4920540688135416e+03  7.4777391203504549e+03  7.4634643562262527e+03  7.4492327627726991e+03  7.4350475295205279e+03  7.4209120606063007e+03  7.4068299870106985e+03  7.3928051795376314e+03  7.3788417624315207e+03  7.3649441275144254e+03  7.3511169487045354e+03  7.3373651967541273e+03  7.3236941540178059e+03  7.3101094290298315e+03  7.2966169706327646e+03  7.2832230813548640e+03  7.2699344296787904e+03  7.2567580607735326e+03  7.2437014051681144e+03  7.2307722847218829e+03  7.2179789150793149e+03  7.2053299035754289e+03  7.1928342412628726e+03  7.1805012873439127e+03  7.1683407437823253e+03  7.1563626172040631e+03  7.1445771643152184e+03  7.1329948158839798e+03  7.1216260727019344e+03  7.1104813646084285e+03  7.0995708601801152e+03  7.0889042092385480e+03  7.0784901913704043e+03  7.0683362281914115e+03  7.0584476890514024e+03  7.0488268663996769e+03  7.0394713890230532e+03  7.0303716076716973e+03  7.0215059428604745e+03  7.0128318450165270e+03  7.0042668552805953e+03  6.9956421322586411e+03  6.9864466047792557e+03  6.9743578366665797e+03  6.9516283982250998e+03  6.9133425101432094e+03  6.8750402847985897e+03  6.8363003453374149e+03  6.7974470486091341e+03  6.7586149611184164e+03  6.7198746794099088e+03  6.6812691769728817e+03  6.6428242539468920e+03  6.6045551221126771e+03  6.5664707869260665e+03  6.5285772758282374e+03  6.4908804060854427e+03  6.4533885515209304e+03  6.4161158199430856e+03  6.3790861712150545e+03  6.3423392868079090e+03  6.3059392489750089e+03  6.2699874517991384e+03  6.2346563891307460e+03  6.2002955544179549e+03  6.1677001359839842e+03  6.1379356239279541e+03  6.0999623340908338e+03  6.0461670032921538e+03  5.9985552061817407e+03  5.9531391174896607e+03  5.9088067884674856e+03  5.8651340126797368e+03  5.8219082870618913e+03  5.7790127398133627e+03  5.7363802242763395e+03  5.6939715775670957e+03  5.6517641943132712e+03  5.6097454832288458e+03  5.5679088700297589e+03  5.5262512420005742e+03  5.4847712668593340e+03  5.4434682732140445e+03  5.4023415088372549e+03  5.3613896621196191e+03  5.3206105711497958e+03  5.2800010681230533e+03  5.2395569213307417e+03  5.1992728465609371e+03  5.1591425663722466e+03  5.1191589005308015e+03  5.0793138745863162e+03  5.0395988364926470e+03  5.0000045735823669e+03  4.9605214242124521e+03  4.9211393800819578e+03  4.8818481766216528e+03  4.8426373699923579e+03  4.8034964001217204e+03  4.7644146398775219e+03  4.7253814309425888e+03  4.6863861072490508e+03  4.6474180069777913e+03  4.6084664741590477e+03  4.5695208508505020e+03  4.5305704607429298e+03  4.4916045848724316e+03  4.4526124299235225e+03  4.4135830894125511e+03  4.3745054978684702e+03  4.3353683780097881e+03  4.2961601808819914e+03  4.2568690190034831e+03  4.2174825928013806e+03  4.1779881110282231e+03  4.1383722064530102e+03  4.0986208489174378e+03  4.0587192588236499e+03  4.0186518252361966e+03  3.9784020339759222e+03  3.9379524122693701e+03  3.8972844975852049e+03  3.8563788391017347e+03  3.8152150406581436e+03  3.7737718538827562e+03  3.7320273293092264e+03  3.6899590315492783e+03  3.6475443219094313e+03  3.6047607082172603e+03  3.5615862571711591e+03  3.5180000595050697e+03  3.4739827330587818e+03  3.4295169439979877e+03  3.3845879225443509e+03  3.3391839472522129e+03  3.2932967716033727e+03  3.2469219687598102e+03  3.2000591746887958e+03  3.1527122162132205e+03  3.1048891181757845e+03  3.0566019919937617e+03  3.0078668155077867e+03  2.9587031203687675e+03  2.9091336076855332e+03  2.8591837149755124e+03  2.8088811576562525e+03  2.7582554666820788e+03  2.7073375409290616e+03  2.6561592291079005e+03  2.6047529518514370e+03  2.5531513706116680e+03  2.5013871064247055e+03  2.4494925086341668e+03  2.3974994713849828e+03  2.3454392940881958e+03  2.2933425810407812e+03  2.2412391748660957e+03  2.1891581182982277e+03  2.1371276389635418e+03  2.0851751521207830e+03  2.0333272767203598e+03  1.9816098605824177e+03  1.9300480109164919e+03  1.8786661267879999e+03  1.8274879304584654e+03  1.7765364947713972e+03  1.7258342639312186e+03  1.6754030651281037e+03  1.6252641085073228e+03  1.5754379729939135e+03  1.5259445754778649e+03  1.4768031208779933e+03  1.4280320306778228e+03  1.3796488477017961e+03  1.3316701152395863e+03  1.2841112291786133e+03  1.2369862626319818e+03  1.1903077637032075e+03  1.1440865285410764e+03  1.0983313537275853e+03  1.0530487742812431e+03  1.0082427960716946e+03  9.6391463410599385e+02  9.2006247075145347e+02  8.7668125023491370e+02  8.3376252736750996e+02  7.9129438898670116e+02  7.4926146568845888e+02  7.0764504867183439e+02  6.6642332169785891e+02  6.2557171126022934e+02  5.8506334937552060e+02  5.4486963362928975e+02  5.0496085934959689e+02  4.6530689039537509e+02  4.2587782949273873e+02  3.8664464752839120e+02  3.4757973440232331e+02  3.0865734201873369e+02  2.6985390242541757e+02  2.3114822063517852e+02  1.9252156843785261e+02  1.5395784696442729e+02  1.1544427414321798e+02  7.6967511433655645e+01  3.8510392358991531e+01  1.6322206620983257e-01  8.5105532044378526e-03  2.1634866327328935e-03  1.7189317190387287e-03  1.4902182018736397e-03  1.4586652412009614e-03  1.5316746095610366e-03  1.6467741875569445e-03  1.7725939505791959e-03  1.8920605720120229e-03  1.9945650850699929e-03  2.0725909379590876e-03  2.1201790391332086e-03  2.1322067722231103e-03  2.1040584969303612e-03  2.0315033115322423e-03  1.9106980768270766e-03  1.7382800901794345e-03  1.5115359447271542e-03  1.2286440811343112e-03  8.8899384032760397e-04  4.9358569839298759e-04  4.5516560264214324e-05  -4.4944946355811175e-04  -9.8223076176550610e-04  -1.5397140129696403e-03  -2.1040045788538048e-03  -2.6516855307124904e-03  -3.1531456246183870e-03  -3.5720500749395110e-03  -3.8650329646917787e-03  -3.9816776039759416e-03  -3.8648336183397924e-03  -3.4512666411151615e-03  -2.6725044648470593e-03  -1.4556711423409114e-03  2.7586167332188904e-04  2.6020222441820373e-03  5.6054410489494678e-03  9.3696271982498247e-03  1.3973168302145794e-02  1.9475184305615026e-02  2.5884629145743625e-02  3.3092191146544776e-02  4.0791249801233220e-02  4.8499971255983182e-02  6.8764770952145893e-02  3.0802774823418283e-01  -1.0282293156219311e+00  3.2896588152774315e+00  3.3172225831471069e-01  4.5546947362866164e-01  -9.6087466284057108e-02  2.3907184775097146e+00  -4.6149888552935087e-02  7.3821980953426292e-01  1.7807988278751663e-01  -3.0928678371752766e-01  8.6692410492599747e-01  -2.5193064621679171e+00  3.1511620090276860e-01  1.5520128109352924e+00  -2.7746151207261591e+00  2.6094380121221490e+00  -2.7165779792766451e+00  2.5605216412099026e+00  -2.6132177504191909e+00  2.5375720799330574e+00  -2.5449566792118639e-01  3.3286770574738154e+00  9.9425678791505312e-01  1.4517598436996646e+00  4.0410067516351980e+00  6.5507743928689588e-01  9.5945331706782200e-01  4.3902649556139745e-01  2.3047674123659509e-01  1.2591297801135873e-01  6.9491239681063119e-02  3.5326391442392913e-02  1.1974108221386951e-02  -4.3571759921859181e-03  -1.2212853398357655e-02  -1.0676023519783365e-01  1.2126134423450217e+00  -2.4534480889524688e+00  2.3194118201946075e+00  -1.9410667445884990e+00  5.2324882769437792e+01  1.0408947351541059e+02  1.1745824019781837e+02  1.5702597211053759e+02  2.5421941009497860e+02  2.8985275276608536e+02  2.4281497559066625e+02  2.7682712943163386e+02  4.2138762685654001e+02  4.5889985388068959e+02  3.6825160835694095e+02  5.4886650720522130e+02  5.8657856850222197e+02  4.5994282022746194e+02  4.9310460136566672e+02  5.2517561388424770e+02  5.5748279339757391e+02  5.9009415274531602e+02  6.2306690078533279e+02  6.5646173536493859e+02  6.9033978936324354e+02  7.2476356310948347e+02  7.5979551914995625e+02  7.9549447940661082e+02  8.3190856870039181e+02  8.6906056959270313e+02  9.0690951151333229e+02  9.4521568987975172e+02  9.8329225045063720e+02  1.0217509478526448e+03  1.0697138613588963e+03  1.1282751017250700e+03  1.1798804030467586e+03  1.2237423156676014e+03  1.2741212777652784e+03  1.8159971886163532e+03  1.8820039769378866e+03  1.9494267196376638e+03  1.4802906009331462e+03  2.1113604040694545e+03  2.1864392860819939e+03  2.2663625198274722e+03  2.3480297776785892e+03  2.4310716605804946e+03  2.5152890740871717e+03  2.6004609674518606e+03  2.6863496596425771e+03  2.7727194084340663e+03  2.8593648098915378e+03  2.9461270420249839e+03  3.0328931438124705e+03  3.1195854431305479e+03  3.2061481450643632e+03  3.2925328985138153e+03  3.3786775601798877e+03  3.4644475005255827e+03  3.5492068557620451e+03  3.6286966758481431e+03  2.7090417110475078e+03  2.7780134765219213e+03  3.8969457844627664e+03  3.9754716636949506e+03  4.0520822368778317e+03  3.0147948228160635e+03  3.0802352034040809e+03  4.3059609033887009e+03  4.3743800162505186e+03  3.2449364755200422e+03  3.3051994402535561e+03  4.6078684050825823e+03  4.6695002788346947e+03  3.4534387581677875e+03  3.5061553732771531e+03  4.8740057298175479e+03  4.9267115300341884e+03  3.6331685487542923e+03  3.6782951056933816e+03  5.1024740797269087e+03  5.1515523535230468e+03  5.1989174869300705e+03  3.8259502412578609e+03  3.8662334943030905e+03  5.3558754632905930e+03  5.4015444171869731e+03  5.4462956658259218e+03  4.0045392594251366e+03  4.0435799928453052e+03  5.5980550316841609e+03  5.6407195825762283e+03  4.1475146791240149e+03  5.7425044718211402e+03  5.7852433962119339e+03  4.2527540260078122e+03  5.8868271320131353e+03  5.9291774802515010e+03  4.3558601630356343e+03  4.3946717929687775e+03  6.0800210462231253e+03  6.1248213471778627e+03  6.1691355663745107e+03  4.5322659302865231e+03  6.2706235366521123e+03  6.3157482937996938e+03  6.3625840894485209e+03  6.4090878432051095e+03  6.4530014880641211e+03  4.7384789650370185e+03  6.5524618419885328e+03  6.5939462667615599e+03  4.8406671655484415e+03  6.6921666211297870e+03  6.7329246543172449e+03  4.9399264362728600e+03  4.9769289073584432e+03  6.8745371722770005e+03  5.0427670560802217e+03  6.9665735916385165e+03  5.1100285807258406e+03  7.0614611992099481e+03  7.1022402643335936e+03  5.2104856881961059e+03  7.1996943116640705e+03  7.2408595672540341e+03  5.3119121769520461e+03  7.3396552661267233e+03  7.3816053528289904e+03  5.4153061249174452e+03  7.4832936493696034e+03  7.5294329356810558e+03  7.5779326664215514e+03  7.6267616736532482e+03  7.6735389268200634e+03  5.6307000175123612e+03  7.7820955274404168e+03  7.8285752105475212e+03  5.7452888064999870e+03  7.9424382823839978e+03  7.9950365483785727e+03  8.0522923260101579e+03  8.1143773622120643e+03  8.1665224286433750e+03  5.9798105304983455e+03  6.0188889937283629e+03  6.0562902245783607e+03  6.0938801575022680e+03  6.1314919040057857e+03  6.1689380994079611e+03  6.2060846219920695e+03  6.2428187609762062e+03  6.2790430091840090e+03  6.3146729497333708e+03  6.3496361118619616e+03  6.3838715632044104e+03  6.4173299767498529e+03  6.4499738319871649e+03  6.4817774308949683e+03  6.5127265381317438e+03  6.5428176013255752e+03  6.5720566066608089e+03  6.6004576730646077e+03  6.6280415054646137e+03  6.6548338270756276e+03  6.6808638946443298e+03  6.7061631708144105e+03  6.7307641915291451e+03  6.7546996326481258e+03  6.7780015541180419e+03  6.8007007827535272e+03  6.8228263834102190e+03  6.8444051589424289e+03  6.8654611067744463e+03  6.8860147377337325e+03  6.9060821215934502e+03  6.9256734490978415e+03  6.9447907690288066e+03  6.9634243806873583e+03  6.9815480145825113e+03  6.9991223247861799e+03  7.0161589793213770e+03  7.0329056219827125e+03  7.0497268382007796e+03  7.0664016241537274e+03  7.0845248631658469e+03  7.1062242147762508e+03  7.1197808072493717e+03  7.1405800809464054e+03  7.1679314863296995e+03  7.1857749626550813e+03  9.8856037214117387e+03  7.2279169711502091e+03  7.2482252115591809e+03  9.9671987260141286e+03  7.2761437047501704e+03  7.2950356315640001e+03  1.0032263703360279e+04  7.3239755957208899e+03  7.3413575412475029e+03  1.0094543611191675e+04  1.0107843688940964e+04  7.3772880495180070e+03  1.0148848147084384e+04  1.0173541161813855e+04  7.4240256112336110e+03  7.4433360313749581e+03  7.4589264161185602e+03  1.0259797048826900e+04  7.4920741935595179e+03  7.5102599090110789e+03  7.5254874786979117e+03  1.0348795638468326e+04  7.5509607875370284e+03  7.5701496921573707e+03  7.5860954976959265e+03  7.6013623460909375e+03  7.6147079263591431e+03  7.6258083395545891e+03  7.6424447287913781e+03  7.6578421029558685e+03  7.6742143262214395e+03  7.6919191357865166e+03  7.7096661327857928e+03  7.7269486672899457e+03  7.7437372992711908e+03  7.7599443527509375e+03  7.7761406581914707e+03  7.7935825720838220e+03  7.8115201989006482e+03  7.8292283197862034e+03  7.8461831549606341e+03  7.8622482282706733e+03  7.8785580689317267e+03  7.8939512536314805e+03  7.9053688021947482e+03  7.9191678892002028e+03  7.9348012741105622e+03  1.0910748133137116e+04  1.0928266842630868e+04  1.0947954958305283e+04  1.0968536205441316e+04  1.0967424125336460e+04  1.0966649697150249e+04  1.0965920582868073e+04  1.0965175007941258e+04  1.0964407037929905e+04  1.0963621614062786e+04  1.0962825273998338e+04  1.0962024282699542e+04  1.0961224229494122e+04  1.0960429961152890e+04  1.0959645607603356e+04  1.0958874634549278e+04  1.0958119903426877e+04  1.0957383732855498e+04  1.0956667959467886e+04  1.0955973996828508e+04  1.0955302891372101e+04  1.0954655374509315e+04  1.0954031910316395e+04  1.0953432738502281e+04  1.0952857912589106e+04  1.0952307333430754e+04  1.0951780778326853e+04  1.0951277926073944e+04  1.0950798378339492e+04  1.0950341677759334e+04  1.0949907323152966e+04  1.0949494782230819e+04  1.0949103502139331e+04  1.0948732918157260e+04  1.0948382460822335e+04  1.0948051561734283e+04  1.0947739658248593e+04  1.0947446197246583e+04  1.0947170638140933e+04  1.0946912455253085e+04  1.0946671139678545e+04  1.0946446200738264e+04  1.0946237167100064e+04  1.0946043587640341e+04  1.0945865032106225e+04  1.0945701091628938e+04  1.0945551379131768e+04  1.0945415529669917e+04  1.0945293200734415e+04  1.0945184072548564e+04  1.0945087848382142e+04  1.0945004254906582e+04  1.0944933042612909e+04  1.0944873986313440e+04  1.0944826885748198e+04  1.0944791566317857e+04  1.0944767879965882e+04  1.0944755706235210e+04  1.0944754953526974e+04  1.0944765560592838e+04  1.0944787498297057e+04  1.0944820771689885e+04  1.0944865422441047e+04  1.0944921531690159e+04  1.0944989223380866e+04  1.0945068668157033e+04  1.0945160087912322e+04  1.0945263761099613e+04  1.0945380028922451e+04  1.0945509302546772e+04  1.0945652071484728e+04  1.0945808913309482e+04  1.0945980504852247e+04  1.0946167634995909e+04  1.0946371219088798e+04  1.0946592314811824e+04  1.0946832138966080e+04  1.0947092083973666e+04  1.0947373731678896e+04  1.0947678859943528e+04  1.0948009434020478e+04  1.0948367569175951e+04  1.0948755443521997e+04  1.0949175133546072e+04  1.0949628351326337e+04  1.0950116108830744e+04  1.0950638448340249e+04  1.0951194695630000e+04  1.0951788186136975e+04  1.0952477770760228e+04  1.0953761402956312e+04  1.0933107937818593e+04  1.0932558779922312e+04  1.0931941730643412e+04  1.0931350015495515e+04  1.0930790820822051e+04  1.0930266631432496e+04  1.0929778892697006e+04  1.0929327231830994e+04  1.0928910017458500e+04  1.0928525014431010e+04  1.0928169805981443e+04  1.0927842023781779e+04  1.0927539460673619e+04  1.0927260117389942e+04  1.0927002213706728e+04  1.0926764181397244e+04  1.0926544648707471e+04  1.0926342421666484e+04  1.0926156465037720e+04  1.0925985884306363e+04  1.0925829909317206e+04  1.0925687879755569e+04  1.0925559232445476e+04  1.0925443490334437e+04  1.0925340252991939e+04  1.0925249188439884e+04  1.0925170026141126e+04  1.0925102550987907e+04  1.0925046598150324e+04  1.0925002048663328e+04  1.0924968825647711e+04  1.0924946891075972e+04  1.0924936243007061e+04  1.0924936913225507e+04  1.0924948965229982e+04  1.0924972492524459e+04  1.0925007617171766e+04  1.0925054488574979e+04  1.0925113282456185e+04  1.0925184200006175e+04  1.0925267467180860e+04  1.0925363334122474e+04  1.0925472074684720e+04  1.0925593986041780e+04  1.0925729388360991e+04  1.0925878624518316e+04  1.0926042059834472e+04  1.0926220081807385e+04  1.0926413099813843e+04  1.0926621544749392e+04  1.0926845868570806e+04  1.0927086543699446e+04  1.0927344062236711e+04  1.0927618934933842e+04  1.0927911689848153e+04  1.0928222870605010e+04  1.0928553034170409e+04  1.0928902748021714e+04  1.0929272586584175e+04  1.0929663126777827e+04  1.0930074942493311e+04  1.0930508597785720e+04  1.0930964638543255e+04  1.0931443582352713e+04  1.0931945906247314e+04  1.0932472031986366e+04  1.0933022308482397e+04  1.0933596990964532e+04  1.0934196216451141e+04  1.0934819975107859e+04  1.0935468077097739e+04  1.0936140114599779e+04  1.0936835418792942e+04  1.0937553011787890e+04  1.0938291553747094e+04  1.0939049285761945e+04  1.0939823969418483e+04  1.0940612824280430e+04  1.0941412464525867e+04  1.0942218835314723e+04  1.0943027147825733e+04  1.0943831809996698e+04  1.0944626348702393e+04  1.0945403280926792e+04  1.0946153434322490e+04  1.0946861150745854e+04  1.0947478877472247e+04  1.0947843972214252e+04  1.0913042184957769e+04  1.0912573518827707e+04  1.0911999370707412e+04  1.0911389432319605e+04  1.0910810498851593e+04  1.0910278998885191e+04  1.0909794091274951e+04  1.0909351128562508e+04  1.0908945302811950e+04  1.0908572443520576e+04  1.0908229071529178e+04  1.0907912292990888e+04  1.0907619684112586e+04  1.0907349197772903e+04  1.0907099092665912e+04  1.0906867879786272e+04  1.0906654281361227e+04  1.0906457198659145e+04  1.0906275686245264e+04  1.0906108931047604e+04  1.0905956235110931e+04  1.0905817001247133e+04  1.0905690721005090e+04  1.0905576964526794e+04  1.0905475371955576e+04  1.0905385646133367e+04  1.0905307546376480e+04  1.0905240883159329e+04  1.0905185513566597e+04  1.0905141337398849e+04  1.0905108293836309e+04  1.0905086358581601e+04  1.0905075541414752e+04  1.0905075884104979e+04  1.0905087458631833e+04  1.0905110365675871e+04  1.0905144733344525e+04  1.0905190716103776e+04  1.0905248493889920e+04  1.0905318271378825e+04  1.0905400277392326e+04  1.0905494764423209e+04  1.0905602008261214e+04  1.0905722307703179e+04  1.0905855984330452e+04  1.0906003382336041e+04  1.0906164868383090e+04  1.0906340831474363e+04  1.0906531682810102e+04  1.0906737855608339e+04  1.0906959804857845e+04  1.0907198006968649e+04  1.0907452959278879e+04  1.0907725179369041e+04  1.0908015204125622e+04  1.0908323588484727e+04  1.0908650903773208e+04  1.0908997735548861e+04  1.0909364680822358e+04  1.0909752344521561e+04  1.0910161335032519e+04  1.0910592258621469e+04  1.0911045712506788e+04  1.0911522276310285e+04  1.0912022501572184e+04  1.0912546898965094e+04  1.0913095922789778e+04  1.0913669952281885e+04  1.0914269269207982e+04  1.0914894031186865e+04  1.0915544240147537e+04  1.0916219705342291e+04  1.0916920000392709e+04  1.0917644413989594e+04  1.0918391894140739e+04  1.0919160986326438e+04  1.0919949766644831e+04  1.0920755771979881e+04  1.0921575929945937e+04  1.0922406489886827e+04  1.0923242945942513e+04  1.0924079904760600e+04  1.0924910733498318e+04  1.0925726522426437e+04  1.09265