<?xml version="1.0"?>
<VTKFile type="UnstructuredGrid"  version="0.1"  >
<UnstructuredGrid>
<Piece  NumberOfPoints="21600" NumberOfCells="42542">
<Points>
<DataArray  type="Float64"  NumberOfComponents="3"  format="ascii">0 0 0  0.77 0 0  0.77 0.15 0  0 0.15 0  0.003221757322170014 0 0  0.006443514644340046 0 0  0.009665271966510193 0 0  0.01288702928868034 0 0  0.01610878661085048 0 0  0.01933054393302049 0 0  0.02255230125519027 0 0  0.02577405857735967 0 0  0.02899581589952872 0 0  0.03221757322169801 0 0  0.03543933054386744 0 0  0.03866108786603686 0 0  0.04188284518820627 0 0  0.0451046025103757 0 0  0.04832635983254521 0 0  0.05154811715471607 0 0  0.05476987447688695 0 0  0.05799163179905782 0 0  0.06121338912122846 0 0  0.06443514644339859 0 0  0.06765690376556875 0 0  0.0708786610877389 0 0  0.07410041840990904 0 0  0.0773221757320792 0 0  0.08054393305425039 0 0  0.08376569037642198 0 0  0.0869874476985936 0 0  0.09020920502076518 0 0  0.0934309623429339 0 0  0.0966527196651024 0 0  0.09987447698726967 0 0  0.1030962343094369 0 0  0.1063179916316041 0 0  0.1095397489537714 0 0  0.1127615062759386 0 0  0.1159832635981051 0 0  0.1192050209202709 0 0  0.1224267782424358 0 0  0.1256485355646001 0 0  0.1288702928867644 0 0  0.1320920502089288 0 0  0.1353138075310958 0 0  0.1385355648532632 0 0  0.1417573221754333 0 0  0.1449790794976035 0 0  0.1482008368197736 0 0  0.1514225941419428 0 0  0.1546443514641101 0 0  0.157866108786276 0 0  0.1610878661084403 0 0  0.1643096234306047 0 0  0.167531380752769 0 0  0.1707531380749333 0 0  0.1739748953970977 0 0  0.177196652719262 0 0  0.1804184100414264 0 0  0.1836401673635935 0 0  0.1868619246857611 0 0  0.1900836820079313 0 0  0.1933054393301014 0 0  0.1965271966522716 0 0  0.1997489539744406 0 0  0.2029707112966078 0 0  0.2061924686187736 0 0  0.209414225940938 0 0  0.2126359832631022 0 0  0.2158577405852666 0 0  0.219079497907431 0 0  0.2223012552295953 0 0  0.2255230125517597 0 0  0.2287447698739242 0 0  0.2319665271960914 0 0  0.2351882845182592 0 0  0.2384100418404293 0 0  0.2416317991625994 0 0  0.2448535564847696 0 0  0.2480753138069371 0 0  0.2512970711291014 0 0  0.2545188284512658 0 0  0.2577405857734302 0 0  0.2609623430955986 0 0  0.2641841004177688 0 0  0.2674058577399389 0 0  0.270627615062109 0 0  0.2738493723842792 0 0  0.2770711297064487 0 0  0.280292887028613 0 0  0.2835146443507774 0 0  0.2867364016729417 0 0  0.2899581589951061 0 0  0.2931799163172705 0 0  0.2964016736394348 0 0  0.2996234309615992 0 0  0.3028451882837672 0 0  0.3060669456059373 0 0  0.3092887029281075 0 0  0.3125104602502776 0 0  0.3157322175724478 0 0  0.3189539748946177 0 0  0.322175732216782 0 0  0.3253974895389464 0 0  0.3286192468611107 0 0  0.3318410041832751 0 0  0.3350627615054395 0 0  0.3382845188276038 0 0  0.3415062761497681 0 0  0.3447280334719325 0 0  0.3479497907940968 0 0  0.3511715481162612 0 0  0.3543933054384255 0 0  0.3576150627605947 0 0  0.3608368200827649 0 0  0.364058577404935 0 0  0.3672803347271051 0 0  0.3705020920492753 0 0  0.373723849371444 0 0  0.3769456066936084 0 0  0.3801673640157748 0 0  0.383389121337945 0 0  0.3866108786601209 0 0  0.3898326359823028 0 0  0.3930543933044846 0 0  0.3962761506266662 0 0  0.399497907948848 0 0  0.4027196652710298 0 0  0.4059414225932116 0 0  0.4091631799153934 0 0  0.4123849372375751 0 0  0.4156066945597569 0 0  0.4188284518819387 0 0  0.4220502092041222 0 0  0.4252719665263097 0 0  0.4284937238484974 0 0  0.4317154811706849 0 0  0.4349372384928725 0 0  0.4381589958150601 0 0  0.4413807531372476 0 0  0.4446025104594352 0 0  0.4478242677816181 0 0  0.4510460251037998 0 0  0.4542677824259815 0 0  0.4574895397481634 0 0  0.4607112970703451 0 0  0.4639330543925269 0 0  0.4671548117147087 0 0  0.4703765690368904 0 0  0.4735983263590722 0 0  0.4768200836812568 0 0  0.4800418410034444 0 0  0.483263598325632 0 0  0.4864853556478196 0 0  0.4897071129700028 0 0  0.4929288702921845 0 0  0.4961506276143663 0 0  0.4993723849365479 0 0  0.5025941422587239 0 0  0.5058158995809008 0 0  0.5090376569030826 0 0  0.5122594142252677 0 0  0.515481171547461 0 0  0.5187029288696494 0 0  0.5219246861918312 0 0  0.525146443514013 0 0  0.5283682008361947 0 0  0.5315899581583845 0 0  0.5348117154805778 0 0  0.5380334728027617 0 0  0.5412552301249435 0 0  0.5444769874471141 0 0  0.5476987447692853 0 0  0.550920502091467 0 0  0.5541422594136513 0 0  0.5573640167358447 0 0  0.560585774058034 0 0  0.5638075313802158 0 0  0.5670292887023975 0 0  0.5702510460245793 0 0  0.5734728033467682 0 0  0.5766945606689615 0 0  0.579916317991155 0 0  0.5831380753133483 0 0  0.5863598326355314 0 0  0.5895815899577131 0 0  0.5928033472798949 0 0  0.5960251046020785 0 0  0.5992468619242718 0 0  0.6024686192464619 0 0  0.6056903765686437 0 0  0.6089121338908206 0 0  0.6121338912129908 0 0  0.6153556485351673 0 0  0.618577405857349 0 0  0.6217991631795386 0 0  0.625020920501732 0 0  0.6282426778239159 0 0  0.6314644351460976 0 0  0.6346861924682795 0 0  0.6379079497904622 0 0  0.6411297071126555 0 0  0.6443514644348465 0 0  0.6475732217570283 0 0  0.650794979079206 0 0  0.6540167364013761 0 0  0.6572384937235518 0 0  0.6604602510457335 0 0  0.6636820083679225 0 0  0.6669037656901158 0 0  0.6701255230123004 0 0  0.6733472803344823 0 0  0.6765690376566641 0 0  0.6797907949788459 0 0  0.6830125523010393 0 0  0.686234309623231 0 0  0.6894560669454127 0 0  0.6926778242675914 0 0  0.6958995815897615 0 0  0.6991213389119363 0 0  0.7023430962341181 0 0  0.7055648535563062 0 0  0.7087866108784994 0 0  0.712008368200685 0 0  0.7152301255228668 0 0  0.7184518828450486 0 0  0.7216736401672305 0 0  0.724895397489423 0 0  0.7281171548116155 0 0  0.7313389121337973 0 0  0.7345606694559768 0 0  0.7377824267781468 0 0  0.7410041841003209 0 0  0.7442259414225026 0 0  0.7474476987446899 0 0  0.7506694560668832 0 0  0.7538912133890696 0 0  0.7571129707112513 0 0  0.760334728033433 0 0  0.7635564853556149 0 0  0.7667782426778067 0 0  0.77 0.001685393258423789 0  0.77 0.003370786516847669 0  0.77 0.005056179775271247 0  0.77 0.006741573033694517 0  0.77 0.008426966292117821 0  0.77 0.01011235955054176 0  0.77 0.01179775280896623 0  0.77 0.0134831460673904 0  0.77 0.01516853932581489 0  0.77 0.01685393258423891 0  0.77 0.01853932584266291 0  0.77 0.02022471910108589 0  0.77 0.02191011235950794 0  0.77 0.02359550561792999 0  0.77 0.02528089887635205 0  0.77 0.02696629213477411 0  0.77 0.02865168539319714 0  0.77 0.03033707865161956 0  0.77 0.03202247191004162 0  0.77 0.03370786516846367 0  0.77 0.03539325842688572 0  0.77 0.03707865168530778 0  0.77 0.03876404494372984 0  0.77 0.0404494382021519 0  0.77 0.04213483146057394 0  0.77 0.04382022471899601 0  0.77 0.04550561797741807 0  0.77 0.04719101123584013 0  0.77 0.04887640449426219 0  0.77 0.05056179775268425 0  0.77 0.0522471910111063 0  0.77 0.05393258426952837 0  0.77 0.05561797752795105 0  0.77 0.05730337078637505 0  0.77 0.05898876404479723 0  0.77 0.0606741573032193 0  0.77 0.06235955056164135 0  0.77 0.06404494382006341 0  0.77 0.06573033707848548 0  0.77 0.06741573033690752 0  0.77 0.06910112359532959 0  0.77 0.07078651685375165 0  0.77 0.0724719101121737 0  0.77 0.07415730337059653 0  0.77 0.07584269662902443 0  0.77 0.07752808988745429 0  0.77 0.07921348314588413 0  0.77 0.08089887640431678 0  0.77 0.08258426966274923 0  0.77 0.08426966292117907 0  0.77 0.08595505617960987 0  0.77 0.08764044943804362 0  0.77 0.08932584269647403 0  0.77 0.09101123595490389 0  0.77 0.09269662921333673 0  0.77 0.09438202247176901 0  0.77 0.09606741573019884 0  0.77 0.09775280898862983 0  0.77 0.09943820224706355 0  0.77 0.1011235955054938 0  0.77 0.1028089887639236 0  0.77 0.1044943820223567 0  0.77 0.1061797752807888 0  0.77 0.1078651685392186 0  0.77 0.1095505617976498 0  0.77 0.1112359550560835 0  0.77 0.1129213483145136 0  0.77 0.1146067415729456 0  0.77 0.1162921348313787 0  0.77 0.1179775280898085 0  0.77 0.1196629213482387 0  0.77 0.1213483146066724 0  0.77 0.1230337078651035 0  0.77 0.1247191011235322 0  0.77 0.1264044943819605 0  0.77 0.1280898876403903 0  0.77 0.1297752808988242 0  0.77 0.1314606741572554 0  0.77 0.1331460674156853 0  0.77 0.1348314606741154 0  0.77 0.1365168539325504 0  0.77 0.1382022471909802 0  0.77 0.13988764044941 0  0.77 0.1415730337078443 0  0.77 0.1432584269662752 0  0.77 0.144943820224705 0  0.77 0.1466292134831355 0  0.77 0.1483146067415701 0  0.7667782426778414 0.15 0  0.7635564853556813 0.15 0  0.7603347280335111 0.15 0  0.757112970711341 0.15 0  0.7538912133891708 0.15 0  0.7506694560670005 0.15 0  0.7474476987448303 0.15 0  0.7442259414226602 0.15 0  0.74100418410049 0.15 0  0.7377824267783197 0.15 0  0.7345606694561496 0.15 0  0.7313389121339794 0.15 0  0.7281171548118092 0.15 0  0.724895397489639 0.15 0  0.7216736401674688 0.15 0  0.7184518828452986 0.15 0  0.7152301255231284 0.15 0  0.7120083682009583 0.15 0  0.708786610878788 0.15 0  0.7055648535566178 0.15 0  0.7023430962344477 0.15 0  0.6991213389122775 0.15 0  0.6958995815901072 0.15 0  0.692677824267937 0.15 0  0.6894560669457669 0.15 0  0.6862343096235967 0.15 0  0.6830125523014264 0.15 0  0.6797907949792563 0.15 0  0.6765690376570861 0.15 0  0.6733472803349159 0.15 0  0.6701255230127456 0.15 0  0.6669037656905755 0.15 0  0.6636820083684053 0.15 0  0.6604602510462351 0.15 0  0.657238493724065 0.15 0  0.6540167364018947 0.15 0  0.6507949790797245 0.15 0  0.6475732217575543 0.15 0  0.644351464435384 0.15 0  0.6411297071132231 0.15 0  0.6379079497910645 0.15 0  0.634686192468906 0.15 0  0.6314644351467468 0.15 0  0.6282426778245765 0.15 0  0.6250209205024085 0.15 0  0.62179916318025 0.15 0  0.6185774058580914 0.15 0  0.6153556485359328 0.15 0  0.6121338912137689 0.15 0  0.6089121338915987 0.15 0  0.6056903765694354 0.15 0  0.6024686192472768 0.15 0  0.5992468619251182 0.15 0  0.5960251046029597 0.15 0  0.5928033472807912 0.15 0  0.589581589958621 0.15 0  0.5863598326364508 0.15 0  0.5831380753142792 0.15 0  0.5799163179920974 0.15 0  0.57669456
[...]
<PointData  Scalars="pressure"> 
<DataArray  type="Float64"  Name="pressure"  format="ascii">1.1261432482270771e+04  9.5463071875799899e-01  -1.3032767182192044e+00  1.1275611793835187e+04  1.1235562768624275e+04  1.1215893990532897e+04  1.1198512591610312e+04  8.1406822069636301e+03  8.1238590792258619e+03  8.1086162145845674e+03  8.0934929253052724e+03  8.0784634240621290e+03  8.0635026485167964e+03  8.0485898430251673e+03  8.0337122158851971e+03  8.0188614340483191e+03  8.0040318013383130e+03  7.9892193264877342e+03  7.9744211815401231e+03  7.9596353663037662e+03  7.9448604908959560e+03  7.9300956294322896e+03  7.9153402184941251e+03  7.9005939848751841e+03  7.8858568931246937e+03  7.8711291068834780e+03  7.8564109600980328e+03  7.8417029354933075e+03  7.8270056485109471e+03  7.8123198354607102e+03  7.7976463449937564e+03  7.7829861322532879e+03  7.7683402552292664e+03  7.7537098729642512e+03  7.7390962453444754e+03  7.7245007342725094e+03  7.7099248060639256e+03  7.6953700349440987e+03  7.6808381075459292e+03  7.6663308283273391e+03  7.6518501258397982e+03  7.6373980597877135e+03  7.6229768288233008e+03  7.6085887790241040e+03  7.5942364130006981e+03  7.5799223995815182e+03  7.5656495840213111e+03  7.5514209986791157e+03  7.5372398741141060e+03  7.5231096505510086e+03  7.5090339896739624e+03  7.4950167867165064e+03  7.4810621828262365e+03  7.4671745776919361e+03  7.4533586424271052e+03  7.4396193327010951e+03  7.4259619020933605e+03  7.4123919156117399e+03  7.3989152632556752e+03  7.3855381734151251e+03  7.3722672257689073e+03  7.3591093631785834e+03  7.3460719018596983e+03  7.3331625388484817e+03  7.3203893554612951e+03  7.3077608150611832e+03  7.2952857529876601e+03  7.2829733559556116e+03  7.2708331275542259e+03  7.2588748356259157e+03  7.2471084361851117e+03  7.2355439669907482e+03  7.2241914016362553e+03  7.2130604515742762e+03  7.2021602979575864e+03  7.1914992258857046e+03  7.1810841173846566e+03  7.1709197297469836e+03  7.1610076290362440e+03  7.1513445337622188e+03  7.1419195755533801e+03  7.1327094057256354e+03  7.1236686558662768e+03  7.1147099034427329e+03  7.1056543715322287e+03  7.0959608858456459e+03  7.0831697351832081e+03  7.0590757211988494e+03  7.0184819967669700e+03  6.9778693482756071e+03  6.9367969182984389e+03  6.8956177283990955e+03  6.8544834145204713e+03  6.8134776777195602e+03  6.7726543318550475e+03  6.7320478393574131e+03  6.6916796354849712e+03  6.6515619439269085e+03  6.6117001363733398e+03  6.5720942864333729e+03  6.5327402733978734e+03  6.4936306477140624e+03  6.4547554009352198e+03  6.4161027513696981e+03  6.3776600471252468e+03  6.3394148948362217e+03  6.3013566451745355e+03  6.2634784121760522e+03  6.2257798953234560e+03  6.1882714642666051e+03  6.1509802911949137e+03  6.1139595925366893e+03  6.0773024270296946e+03  6.0411771836585758e+03  6.0059379110815553e+03  5.9724037475479399e+03  5.9416783358666544e+03  5.9023213822996549e+03  5.8463851920115503e+03  5.7966698641462363e+03  5.7490546322738555e+03  5.7023999284385309e+03  5.6562795550775272e+03  5.6104873785893033e+03  5.5649170042992755e+03  5.5195139773036053e+03  5.4742529827395210e+03  5.4291257593133114e+03  5.3841341205453527e+03  5.3392856674009117e+03  5.2945910428516891e+03  5.2500621313628753e+03  5.2057108690055311e+03  5.1615484641894227e+03  5.1175849022989178e+03  5.0738286500241193e+03  5.0302865012652474e+03  4.9869635233219442e+03  4.9438630734218686e+03  4.9009868635588446e+03  4.8583350572931104e+03  4.8159063863332231e+03  4.7736982778251377e+03  4.7317069856151138e+03  4.6899277205317585e+03  4.6483547760825713e+03  4.6069816469812704e+03  4.5658011386777507e+03  4.5248054666013268e+03  4.4839863441829957e+03  4.4433350589206402e+03  4.4028425358139320e+03  4.3624993874449819e+03  4.3222959498384698e+03  4.2822223030271543e+03  4.2422682750034019e+03  4.2024234274845776e+03  4.1626770216956529e+03  4.1230179622070546e+03  4.0834347167978199e+03  4.0439152103767860e+03  4.0044466912271032e+03  3.9650155682783397e+03  3.9256072188041289e+03  3.8862057669413325e+03  3.8467938347830582e+03  3.8073522695788683e+03  3.7678598528284351e+03  3.7282929998205336e+03  3.6886254614462505e+03  3.6488280438327242e+03  3.6088683653479256e+03  3.5687106745372530e+03  3.5283157561492376e+03  3.4876409550462636e+03  3.4466403487951843e+03  3.4052650983600779e+03  3.3634640018366545e+03  3.3211842679263018e+03  3.2783725134390334e+03  3.2349759725009303e+03  3.1909438849129538e+03  3.1462290087134816e+03  3.1007891799222407e+03  3.0545888241846706e+03  3.0076003146377893e+03  2.9598050714916189e+03  2.9111943137484627e+03  2.8617694017271169e+03  2.8115417471280844e+03  2.7605323092079702e+03  2.7087707340721768e+03  2.6562942228080633e+03  2.6031462292661095e+03  2.5493750890899209e+03  2.4950326703588839e+03  2.4401731170322632e+03  2.3848517338647871e+03  2.3291240395323048e+03  2.2730449960454885e+03  2.2166684084420335e+03  2.1600464793991714e+03  2.1032294982433750e+03  2.0462656419290433e+03  1.9892008659289811e+03  1.9320788647638042e+03  1.8749410843995977e+03  1.8178267714805677e+03  1.7607730470260726e+03  1.7038149946179540e+03  1.6469857551615021e+03  1.5903166219873740e+03  1.5338371313901141e+03  1.4775751447052814e+03  1.4215569187454123e+03  1.3658071618986096e+03  1.3103490734828699e+03  1.2552043640872278e+03  1.2003932546767721e+03  1.1459344522356162e+03  1.0918450997361510e+03  1.0381406983329164e+03  9.8483499995622128e+02  9.3193986902996983e+02  8.7946511294715071e+02  8.2741828229504051e+02  7.7580444369430563e+02  7.2462593050339058e+02  6.7388207947805915e+02  6.2356896458580331e+02  5.7367914225584070e+02  5.2420142500527481e+02  4.7512070216856631e+02  4.2641782701213083e+02  3.7806958883045462e+02  3.3004878746215206e+02  2.8232442787101411e+02  2.3486206460700953e+02  1.8762448000312216e+02  1.4057320758243870e+02  9.3664657130760688e+01  4.6847419530283254e+01  1.9829535327350875e-01  1.0861553809793060e-02  3.8676959746480524e-03  4.1239407330128305e-03  4.6622378772643918e-03  5.4665551209778333e-03  6.4325060987216742e-03  7.4921433776485094e-03  8.6154960797810588e-03  9.7902032542917100e-03  1.1011989512619122e-02  1.2280535773580858e-02  1.3597550546858760e-02  1.4965787055530928e-02  1.6388477653088193e-02  1.7868941792878072e-02  1.9410241755794685e-02  2.1014808335921769e-02  2.2683974339133505e-02  2.4417351800061611e-02  2.6211974176879791e-02  2.8061097334905569e-02  2.9952509103683109e-02  3.1866128671924419e-02  3.3770569944136034e-02  3.5618172844689454e-02  3.7337732264115936e-02  3.8823710729530246e-02  3.9920025911723896e-02  4.0395558387147631e-02  3.9907805773968928e-02  3.7951486605161656e-02  3.3801748900177869e-02  2.6486886749698412e-02  1.4972240270824616e-02  -2.1487524561830326e-03  -2.2261465484048316e-02  -3.7164629609241599e-02  -4.0884220392845873e-02  -3.0146766586964139e-02  -4.6673007140840706e-03  3.6032124793345270e-02  2.5201460930361907e-01  -1.1949895229190703e-01  2.2747861516054591e+00  -1.9979025251574687e+00  2.3779339757741060e+00  -1.2813946217921571e-01  1.1503219048353085e-01  1.4012906873680757e-02  3.4426895318371210e-02  3.4853507643396703e-01  -1.4364147374917404e+00  3.2708339114665963e-01  7.3231850321661615e-02  6.3709698002739720e-02  5.5015904770347936e-02  4.3673957483258141e-02  3.1808592156489408e-02  2.0646128568658381e-02  1.0737484487948000e-02  2.2612542415493845e-03  -4.7963313192497447e-03  -1.0556143910585731e-02  -1.5147090019163235e-02  -1.8729196928524001e-02  -2.1405417666829438e-02  -2.3359419930571862e-02  -2.4646459917622262e-02  -2.5417649544476173e-02  -2.5724760424319214e-02  -2.5640567370745788e-02  -2.5223078073858034e-02  -2.4521867795606660e-02  -2.3578843342490500e-02  -2.2428950508634929e-02  -2.1101003650895993e-02  -1.9618043617593641e-02  -1.7997000442664265e-02  -1.6246964670423750e-02  -1.4364141596305346e-02  -1.2313303896301321e-02  -9.9050061549060403e-03  -6.0488736969779803e-03  3.2039900771191183e-03  -5.2458803886398953e-02  1.0323638179611767e+00  4.8097982412268255e-03  4.3545120689914818e+01  8.3530452161120863e+01  1.2255338215692379e+02  1.2308178635334558e+02  2.1224736633806950e+02  2.5041804032189140e+02  2.1722298359807291e+02  3.4346702783727699e+02  3.8562857876367195e+02  4.2773083619749877e+02  3.4719300743031624e+02  3.8395563508655277e+02  4.2014632701380242e+02  4.5735689455602841e+02  4.9570699231730424e+02  5.3531693528669223e+02  5.7632896745856806e+02  6.1891403022069130e+02  6.6343573657848913e+02  7.1220733306782074e+02  1.0424529041620303e+03  1.1070197780967576e+03  1.1772894206903241e+03  1.2509132189464806e+03  1.3275557004721290e+03  1.4071161419560387e+03  1.4894925281785640e+03  1.5745731673325324e+03  1.6622814694715084e+03  1.7526041439162125e+03  1.8455731995332612e+03  1.9411731441883437e+03  2.0392060230491861e+03  2.1392144113017143e+03  2.2405544792737173e+03  2.3425814506389852e+03  2.4447839958405762e+03  2.5467835686172525e+03  2.6482532542501999e+03  2.7488394093445836e+03  2.8481464836934538e+03  2.9458270226579116e+03  3.0417403168378701e+03  3.1360297269715497e+03  3.2290155032025018e+03  3.3210125159378053e+03  3.4122213192103491e+03  3.5026974235394578e+03  3.5923096338403370e+03  3.6803153843638170e+03  3.7621830200035993e+03  2.8074769498345727e+03  2.8765852778459230e+03  4.0308298549764290e+03  4.1066107435706999e+03  4.1792341397653836e+03  3.1028806378610375e+03  3.1620133495644827e+03  4.4086420989961189e+03  4.4669591105877744e+03  3.3024402754750454e+03  3.3511430289998216e+03  4.6563078919707004e+03  4.7047609923135715e+03  3.4679873435533391e+03  3.5096341782072400e+03  4.8665845997311881e+03  4.9093493989378430e+03  3.6127560999564430e+03  3.6506539204834621e+03  5.0568400708449926e+03  5.0994278005719825e+03  5.1410309776947488e+03  3.7794717091097928e+03  3.8156634377535934e+03  5.2819443558194298e+03  5.3236657837328530e+03  5.3647937157298766e+03  3.9423707885706413e+03  3.9787194236491873e+03  5.5062193910556671e+03  5.5485064655848246e+03  5.5902837466753072e+03  4.1072266251399005e+03  4.1442344450309174e+03  5.7342442541241580e+03  5.7772972147592709e+03  5.8198150607935877e+03  4.2750326762148088e+03  4.3126544650568294e+03  5.9661631714438090e+03  6.0098738161557658e+03  6.0530145613071218e+03  4.4454060627109084e+03  4.4835277240068053e+03  6.2013210666853938e+03  6.2456137469669347e+03  6.2895533031539271e+03  4.6197820618033666e+03  6.3906097469098095e+03  6.4353859649972355e+03  6.4793778526488459e+03  4.7566937523554534e+03  4.7955735394385774e+03  6.6306430100443686e+03  6.6758703450401481e+03  6.7205734681605427e+03  4.9330905655307961e+03  4.9728257389303017e+03  6.8752012149857355e+03  6.9218099311872720e+03  6.9682925648767941e+03  5.1166850276512441e+03  7.0759631883322108e+03  7.1218079293774572e+03  5.2295487477616007e+03  7.2298666979120935e+03  5.3078995764591846e+03  7.3419316252934332e+03  7.3911116446782189e+03  5.4290898265372971e+03  7.5110302168486523e+03  7.5626649846809742e+03  5.5563104077308153e+03  7.6885977490170471e+03  7.7428610946443496e+03  5.6900802258425038e+03  7.8762800580528656e+03  7.9381323056442679e+03  8.0056151082476272e+03  8.0789659293821342e+03  8.1406841153461874e+03  5.9667183505890371e+03  6.0130757750853663e+03  6.0575357519155814e+03  6.1020471085665877e+03  6.1464895481072172e+03  6.1905896087683877e+03  6.2341274237299722e+03  6.2769432637936834e+03  6.3188990895901325e+03  6.3598716235158890e+03  6.3997496025006312e+03  6.4384365593390949e+03  6.4758588510158197e+03  6.5119741110806408e+03  6.5467748806439977e+03  6.5802857337351461e+03  6.6125557431384586e+03  6.6436492479000781e+03  6.6736375280877837e+03  6.7025930130596662e+03  6.7305862743798816e+03  6.7576849256988271e+03  6.7839532408052928e+03  6.8094517087480199e+03  6.8342363617182800e+03  6.8583581116117193e+03  6.8818623964795433e+03  6.9047892862050048e+03  6.9271740026840707e+03  6.9490476858577886e+03  6.9704382103020416e+03  6.9913709005977926e+03  7.0118690640924106e+03  7.0319543224080571e+03  7.0516467613832228e+03  7.0709649316133073e+03  7.0899257249804341e+03  7.1085441341342275e+03  7.1268328761047205e+03  7.1448018273248927e+03  7.1624571688169890e+03  7.1798000643425294e+03  7.1968245703195307e+03  7.2135143151564207e+03  7.2298381112197476e+03  7.2457533258359354e+03  7.2612648578502049e+03  7.2765936572422888e+03  7.2920632387068117e+03  7.3074598013388404e+03  7.3242783394181124e+03  7.3444859394069153e+03  7.3572068021950354e+03  7.3767999384131163e+03  7.4026214499304560e+03  7.4195399241010937e+03  1.0205469831367604e+04  7.4596923470043630e+03  7.4791182238525362e+03  1.0283458296991272e+04  7.5059428159401477e+03  7.5241636453063620e+03  1.0346195919678803e+04  7.5521588600657406e+03  7.5690188560323450e+03  1.0406600293117262e+04  1.0419550252802688e+04  7.6040067267990134e+03  1.0459581254986764e+04  1.0483733529770667e+04  7.6497316441849898e+03  7.6686765525349083e+03  7.6840070112289359e+03  1.0568446233029108e+04  7.7166363581096357e+03  7.7345618360285944e+03  7.7495943095490893e+03  1.0656212943783077e+04  7.7747647427841457e+03  7.7937487272339622e+03  7.8095377502939555e+03  7.8246647482295239e+03  7.8378959605799018e+03  7.8489119467986375e+03  7.8654284199845952e+03  7.8807240104224984e+03  7.8969971176379349e+03  7.9146022076461904e+03  7.9322561908533453e+03  7.9494551856595608e+03  7.9661693337682491e+03  7.9823112133628947e+03  7.9984497886432700e+03  8.0158357864389627e+03  8.0337209856708023e+03  8.0513822321915104e+03  8.0682969028212110e+03  8.0843290581255833e+03  8.1006102658633672e+03  8.1159798593718697e+03  8.1273835051614951e+03  8.1411686938141092e+03  8.1567897025146804e+03  1.1215472584698464e+04  1.1232984215982178e+04  1.1252667685957924e+04  1.1273247376047826e+04  1.1272134041304587e+04  1.1271357394103941e+04  1.1270625083560037e+04  1.1269875314594612e+04  1.1269102130845795e+04  1.1268310453714892e+04  1.1267506804270122e+04  1.1266697434354555e+04  1.1265887923625147e+04  1.1265083112563936e+04  1.1264287128121592e+04  1.1263503436261695e+04  1.1262734901829268e+04  1.1261983849898090e+04  1.1261252126482892e+04  1.1260541157328202e+04  1.1259852003709859e+04  1.1259185414400163e+04  1.1258541873216522e+04  1.1257921641849682e+04  1.1257324797909274e+04  1.1256751268312330e+04  1.1256200858273081e+04  1.1255673276235748e+04  1.1255168155136114e+04  1.1254685070392396e+04  1.1254223555019093e+04  1.1253783112237859e+04  1.1253363225930616e+04  1.1252963369247849e+04  1.1252583011650773e+04  1.1252221624632954e+04  1.1251878686335325e+04  1.1251553685239831e+04  1.1251246123100538e+04  1.1250955517248358e+04  1.1250681402385009e+04  1.1250423331964541e+04  1.1250180879245796e+04  1.1249953638086217e+04  1.1249741223536887e+04  1.1249543272289577e+04  1.1249359443019028e+04  1.1249189416657793e+04  1.1249032896635683e+04  1.1248889609112397e+04  1.1248759303228409e+04  1.1248641751397483e+04  1.1248536749662513e+04  1.1248444118135727e+04  1.1248363701544322e+04  1.1248295369903166e+04  1.1248239019337638e+04  1.1248194573081504e+04  1.1248161982677886e+04  1.1248141229414499e+04  1.1248132326029583e+04  1.1248135318730043e+04  1.1248150289570671e+04  1.1248177359251271e+04  1.1248216690398498e+04  1.1248268491410665e+04  1.1248333020957100e+04  1.1248410593238155e+04  1.1248501584128197e+04  1.1248606438339586e+04  1.1248725677759379e+04  1.1248859911117290e+04  1.1249009845135683e+04  1.1249176297275446e+04  1.1249360210100182e+04  1.1249562667090564e+04  1.1249784909373848e+04  1.1250028352157606e+04  1.1250294598450102e+04  1.1250585445552606e+04  1.1250902876295719e+04  1.1251249021470352e+04  1.1251626072386121e+04  1.1252036116002997e+04  1.1252480871578646e+04  1.1252961354211153e+04  1.1253477604411422e+04  1.1254028940571667e+04  1.1254618684211746e+04  1.1255305662994710e+04  1.1256587790024749e+04  1.1235932922023465e+04  1.1235385212563073e+04  1.1234770734936315e+04  1.1234182741029550e+04  1.1233628439657996e+04  1.1233110330160842e+04  1.1232629864722465e+04  1.1232186670954503e+04  1.1231779113016066e+04  1.1231404947565135e+04  1.1231061746656833e+04  1.1230747128287136e+04  1.1230458869446484e+04  1.1230194953062079e+04  1.1229953579305216e+04  1.1229733158660132e+04  1.1229532296487760e+04  1.1229349774407674e+04  1.1229184531310286e+04  1.1229035645398488e+04  1.1228902317875705e+04  1.1228783858474661e+04  1.1228679672802187e+04  1.1228589251370235e+04  1.1228512160140743e+04  1.1228448032402850e+04  1.1228396561808941e+04  1.1228357496411403e+04  1.1228330633560414e+04  1.1228315815541160e+04  1.1228312925846176e+04  1.1228321885993488e+04  1.1228342652814708e+04  1.1228375216148479e+04  1.1228419596884316e+04  1.1228475845309957e+04  1.1228544039722030e+04  1.1228624285265323e+04  1.1228716712970334e+04  1.1228821478962405e+04  1.1228938763818342e+04  1.1229068772048482e+04  1.1229211731683372e+04  1.1229367893944902e+04  1.1229537532981665e+04  1.1229720945647749e+04  1.1229918451302694e+04  1.1230130391608353e+04  1.1230357130295541e+04  1.1230599052869551e+04  1.1230856566218850e+04  1.1231130098085441e+04  1.1231420096348054e+04  1.1231727028060724e+04  1.1232051378178690e+04  1.1232393647891417e+04  1.1232754352467513e+04  1.1233134018499579e+04  1.1233533180416684e+04  1.1233952376109562e+04  1.1234392141487291e+04  1.1234853003755055e+04  1.1235335473170209e+04  1.1235840032999076e+04  1.1236367127360594e+04  1.1236917146606704e+04  1.1237490409855698e+04  1.1238087144267651e+04  1.1238707460635307e+04  1.1239351324866651e+04  1.1240018524965830e+04  1.1240708633188111e+04  1.1241420963165048e+04  1.1242154521980461e+04  1.1242907957435409e+04  1.1243679501067587e+04  1.1244466907852420e+04  1.1245267393809603e+04  1.1246077572746159e+04  1.1246893392709157e+04  1.1247710071086938e+04  1.1248522025402212e+04  1.1249322795558390e+04  1.1250104915148782e+04  1.1250859232296187e+04  1.1251570113629021e+04  1.1252190035578387e+04  1.1252556385644528e+04  1.1215861713461098e+04  1.1215394323800148e+04  1.1214822605987187e+04  1.1214216273607104e+04  1.1213642162475451e+04  1.1213116711603730e+04  1.1212639077601774e+04  1.1212204605877761e+04  1.1211808478740424e+04  1.1211446513951038e+04  1.1211115218821438e+04  1.1210811684252516e+04  1.1210533469519320e+04  1.1210278508929470e+04  1.1210045041008067e+04  1.1209831555024653e+04  1.1209636749967147e+04  1.1209459502392041e+04  1.1209298840721671e+04  1.1209153924351629e+04  1.1209024026446456e+04  1.1208908519632208e+04  1.1208806864009184e+04  1.1208718597051737e+04  1.1208643325061114e+04  1.1208580715908383e+04  1.1208530492856989e+04  1.1208492429294349e+04  1.1208466344233031e+04  1.1208452098466532e+04  1.1208449591284372e+04  1.1208458757667147e+04  1.1208479565895062e+04  1.1208512015514130e+04  1.1208556135612807e+04  1.1208611983369074e+04  1.1208679642833578e+04  1.1208759223919471e+04  1.1208850861573112e+04  1.1208954715102991e+04  1.1209070967646547e+04  1.1209199825756148e+04  1.1209341519086820e+04  1.1209496300168592e+04  1.1209664444246708e+04  1.1209846249172098e+04  1.1210042035323706e+04  1.1210252145542283e+04  1.1210476945053073e+04  1.1210716821351536e+04  1.1210972184022188e+04  1.1211243464455669e+04  1.1211531115422798e+04  1.1211835610456863e+04  1.1212157442986112e+04  1.1212497125147338e+04  1.1212855186198207e+04  1.1213232170430081e+04  1.1213628634464376e+04  1.1214045143793228e+04  1.1214482268399413e+04  1.1214940577259922e+04  1.1215420631502955e+04  1.1215922975947989e+04  1.1216448128714015e+04  1.1216996568531848e+04  1.1217568719343950e+04  1.1218164931721671e+04  1.1218785460578883e+04  1.1219430438618541e+04  1.1220099844923994e+04  1.1220793468113594e+04  1.1221510863536154e+04  1.1222251304127294e+04  1.1223013724818768e+04  1.1223796660857441e+04  1.1224598181110978e+04  1.1225415818385167e+04  1.1226246499495330e+04  1.1227086476353645e+04  1.1227931249067131e+04  1.1228775433613762e+04  1.1229612409777828e+04  1.1230433283831981e+04  1