<?xml version="1.0"?>
<VTKFile type="UnstructuredGrid"  version="0.1"  >
<UnstructuredGrid>
<Piece  NumberOfPoints="21600" NumberOfCells="42542">
<Points>
<DataArray  type="Float64"  NumberOfComponents="3"  format="ascii">0 0 0  0.77 0 0  0.77 0.15 0  0 0.15 0  0.003221757322170014 0 0  0.006443514644340046 0 0  0.009665271966510193 0 0  0.01288702928868034 0 0  0.01610878661085048 0 0  0.01933054393302049 0 0  0.02255230125519027 0 0  0.02577405857735967 0 0  0.02899581589952872 0 0  0.03221757322169801 0 0  0.03543933054386744 0 0  0.03866108786603686 0 0  0.04188284518820627 0 0  0.0451046025103757 0 0  0.04832635983254521 0 0  0.05154811715471607 0 0  0.05476987447688695 0 0  0.05799163179905782 0 0  0.06121338912122846 0 0  0.06443514644339859 0 0  0.06765690376556875 0 0  0.0708786610877389 0 0  0.07410041840990904 0 0  0.0773221757320792 0 0  0.08054393305425039 0 0  0.08376569037642198 0 0  0.0869874476985936 0 0  0.09020920502076518 0 0  0.0934309623429339 0 0  0.0966527196651024 0 0  0.09987447698726967 0 0  0.1030962343094369 0 0  0.1063179916316041 0 0  0.1095397489537714 0 0  0.1127615062759386 0 0  0.1159832635981051 0 0  0.1192050209202709 0 0  0.1224267782424358 0 0  0.1256485355646001 0 0  0.1288702928867644 0 0  0.1320920502089288 0 0  0.1353138075310958 0 0  0.1385355648532632 0 0  0.1417573221754333 0 0  0.1449790794976035 0 0  0.1482008368197736 0 0  0.1514225941419428 0 0  0.1546443514641101 0 0  0.157866108786276 0 0  0.1610878661084403 0 0  0.1643096234306047 0 0  0.167531380752769 0 0  0.1707531380749333 0 0  0.1739748953970977 0 0  0.177196652719262 0 0  0.1804184100414264 0 0  0.1836401673635935 0 0  0.1868619246857611 0 0  0.1900836820079313 0 0  0.1933054393301014 0 0  0.1965271966522716 0 0  0.1997489539744406 0 0  0.2029707112966078 0 0  0.2061924686187736 0 0  0.209414225940938 0 0  0.2126359832631022 0 0  0.2158577405852666 0 0  0.219079497907431 0 0  0.2223012552295953 0 0  0.2255230125517597 0 0  0.2287447698739242 0 0  0.2319665271960914 0 0  0.2351882845182592 0 0  0.2384100418404293 0 0  0.2416317991625994 0 0  0.2448535564847696 0 0  0.2480753138069371 0 0  0.2512970711291014 0 0  0.2545188284512658 0 0  0.2577405857734302 0 0  0.2609623430955986 0 0  0.2641841004177688 0 0  0.2674058577399389 0 0  0.270627615062109 0 0  0.2738493723842792 0 0  0.2770711297064487 0 0  0.280292887028613 0 0  0.2835146443507774 0 0  0.2867364016729417 0 0  0.2899581589951061 0 0  0.2931799163172705 0 0  0.2964016736394348 0 0  0.2996234309615992 0 0  0.3028451882837672 0 0  0.3060669456059373 0 0  0.3092887029281075 0 0  0.3125104602502776 0 0  0.3157322175724478 0 0  0.3189539748946177 0 0  0.322175732216782 0 0  0.3253974895389464 0 0  0.3286192468611107 0 0  0.3318410041832751 0 0  0.3350627615054395 0 0  0.3382845188276038 0 0  0.3415062761497681 0 0  0.3447280334719325 0 0  0.3479497907940968 0 0  0.3511715481162612 0 0  0.3543933054384255 0 0  0.3576150627605947 0 0  0.3608368200827649 0 0  0.364058577404935 0 0  0.3672803347271051 0 0  0.3705020920492753 0 0  0.373723849371444 0 0  0.3769456066936084 0 0  0.3801673640157748 0 0  0.383389121337945 0 0  0.3866108786601209 0 0  0.3898326359823028 0 0  0.3930543933044846 0 0  0.3962761506266662 0 0  0.399497907948848 0 0  0.4027196652710298 0 0  0.4059414225932116 0 0  0.4091631799153934 0 0  0.4123849372375751 0 0  0.4156066945597569 0 0  0.4188284518819387 0 0  0.4220502092041222 0 0  0.4252719665263097 0 0  0.4284937238484974 0 0  0.4317154811706849 0 0  0.4349372384928725 0 0  0.4381589958150601 0 0  0.4413807531372476 0 0  0.4446025104594352 0 0  0.4478242677816181 0 0  0.4510460251037998 0 0  0.4542677824259815 0 0  0.4574895397481634 0 0  0.4607112970703451 0 0  0.4639330543925269 0 0  0.4671548117147087 0 0  0.4703765690368904 0 0  0.4735983263590722 0 0  0.4768200836812568 0 0  0.4800418410034444 0 0  0.483263598325632 0 0  0.4864853556478196 0 0  0.4897071129700028 0 0  0.4929288702921845 0 0  0.4961506276143663 0 0  0.4993723849365479 0 0  0.5025941422587239 0 0  0.5058158995809008 0 0  0.5090376569030826 0 0  0.5122594142252677 0 0  0.515481171547461 0 0  0.5187029288696494 0 0  0.5219246861918312 0 0  0.525146443514013 0 0  0.5283682008361947 0 0  0.5315899581583845 0 0  0.5348117154805778 0 0  0.5380334728027617 0 0  0.5412552301249435 0 0  0.5444769874471141 0 0  0.5476987447692853 0 0  0.550920502091467 0 0  0.5541422594136513 0 0  0.5573640167358447 0 0  0.560585774058034 0 0  0.5638075313802158 0 0  0.5670292887023975 0 0  0.5702510460245793 0 0  0.5734728033467682 0 0  0.5766945606689615 0 0  0.579916317991155 0 0  0.5831380753133483 0 0  0.5863598326355314 0 0  0.5895815899577131 0 0  0.5928033472798949 0 0  0.5960251046020785 0 0  0.5992468619242718 0 0  0.6024686192464619 0 0  0.6056903765686437 0 0  0.6089121338908206 0 0  0.6121338912129908 0 0  0.6153556485351673 0 0  0.618577405857349 0 0  0.6217991631795386 0 0  0.625020920501732 0 0  0.6282426778239159 0 0  0.6314644351460976 0 0  0.6346861924682795 0 0  0.6379079497904622 0 0  0.6411297071126555 0 0  0.6443514644348465 0 0  0.6475732217570283 0 0  0.650794979079206 0 0  0.6540167364013761 0 0  0.6572384937235518 0 0  0.6604602510457335 0 0  0.6636820083679225 0 0  0.6669037656901158 0 0  0.6701255230123004 0 0  0.6733472803344823 0 0  0.6765690376566641 0 0  0.6797907949788459 0 0  0.6830125523010393 0 0  0.686234309623231 0 0  0.6894560669454127 0 0  0.6926778242675914 0 0  0.6958995815897615 0 0  0.6991213389119363 0 0  0.7023430962341181 0 0  0.7055648535563062 0 0  0.7087866108784994 0 0  0.712008368200685 0 0  0.7152301255228668 0 0  0.7184518828450486 0 0  0.7216736401672305 0 0  0.724895397489423 0 0  0.7281171548116155 0 0  0.7313389121337973 0 0  0.7345606694559768 0 0  0.7377824267781468 0 0  0.7410041841003209 0 0  0.7442259414225026 0 0  0.7474476987446899 0 0  0.7506694560668832 0 0  0.7538912133890696 0 0  0.7571129707112513 0 0  0.760334728033433 0 0  0.7635564853556149 0 0  0.7667782426778067 0 0  0.77 0.001685393258423789 0  0.77 0.003370786516847669 0  0.77 0.005056179775271247 0  0.77 0.006741573033694517 0  0.77 0.008426966292117821 0  0.77 0.01011235955054176 0  0.77 0.01179775280896623 0  0.77 0.0134831460673904 0  0.77 0.01516853932581489 0  0.77 0.01685393258423891 0  0.77 0.01853932584266291 0  0.77 0.02022471910108589 0  0.77 0.02191011235950794 0  0.77 0.02359550561792999 0  0.77 0.02528089887635205 0  0.77 0.02696629213477411 0  0.77 0.02865168539319714 0  0.77 0.03033707865161956 0  0.77 0.03202247191004162 0  0.77 0.03370786516846367 0  0.77 0.03539325842688572 0  0.77 0.03707865168530778 0  0.77 0.03876404494372984 0  0.77 0.0404494382021519 0  0.77 0.04213483146057394 0  0.77 0.04382022471899601 0  0.77 0.04550561797741807 0  0.77 0.04719101123584013 0  0.77 0.04887640449426219 0  0.77 0.05056179775268425 0  0.77 0.0522471910111063 0  0.77 0.05393258426952837 0  0.77 0.05561797752795105 0  0.77 0.05730337078637505 0  0.77 0.05898876404479723 0  0.77 0.0606741573032193 0  0.77 0.06235955056164135 0  0.77 0.06404494382006341 0  0.77 0.06573033707848548 0  0.77 0.06741573033690752 0  0.77 0.06910112359532959 0  0.77 0.07078651685375165 0  0.77 0.0724719101121737 0  0.77 0.07415730337059653 0  0.77 0.07584269662902443 0  0.77 0.07752808988745429 0  0.77 0.07921348314588413 0  0.77 0.08089887640431678 0  0.77 0.08258426966274923 0  0.77 0.08426966292117907 0  0.77 0.08595505617960987 0  0.77 0.08764044943804362 0  0.77 0.08932584269647403 0  0.77 0.09101123595490389 0  0.77 0.09269662921333673 0  0.77 0.09438202247176901 0  0.77 0.09606741573019884 0  0.77 0.09775280898862983 0  0.77 0.09943820224706355 0  0.77 0.1011235955054938 0  0.77 0.1028089887639236 0  0.77 0.1044943820223567 0  0.77 0.1061797752807888 0  0.77 0.1078651685392186 0  0.77 0.1095505617976498 0  0.77 0.1112359550560835 0  0.77 0.1129213483145136 0  0.77 0.1146067415729456 0  0.77 0.1162921348313787 0  0.77 0.1179775280898085 0  0.77 0.1196629213482387 0  0.77 0.1213483146066724 0  0.77 0.1230337078651035 0  0.77 0.1247191011235322 0  0.77 0.1264044943819605 0  0.77 0.1280898876403903 0  0.77 0.1297752808988242 0  0.77 0.1314606741572554 0  0.77 0.1331460674156853 0  0.77 0.1348314606741154 0  0.77 0.1365168539325504 0  0.77 0.1382022471909802 0  0.77 0.13988764044941 0  0.77 0.1415730337078443 0  0.77 0.1432584269662752 0  0.77 0.144943820224705 0  0.77 0.1466292134831355 0  0.77 0.1483146067415701 0  0.7667782426778414 0.15 0  0.7635564853556813 0.15 0  0.7603347280335111 0.15 0  0.757112970711341 0.15 0  0.7538912133891708 0.15 0  0.7506694560670005 0.15 0  0.7474476987448303 0.15 0  0.7442259414226602 0.15 0  0.74100418410049 0.15 0  0.7377824267783197 0.15 0  0.7345606694561496 0.15 0  0.7313389121339794 0.15 0  0.7281171548118092 0.15 0  0.724895397489639 0.15 0  0.7216736401674688 0.15 0  0.7184518828452986 0.15 0  0.7152301255231284 0.15 0  0.7120083682009583 0.15 0  0.708786610878788 0.15 0  0.7055648535566178 0.15 0  0.7023430962344477 0.15 0  0.6991213389122775 0.15 0  0.6958995815901072 0.15 0  0.692677824267937 0.15 0  0.6894560669457669 0.15 0  0.6862343096235967 0.15 0  0.6830125523014264 0.15 0  0.6797907949792563 0.15 0  0.6765690376570861 0.15 0  0.6733472803349159 0.15 0  0.6701255230127456 0.15 0  0.6669037656905755 0.15 0  0.6636820083684053 0.15 0  0.6604602510462351 0.15 0  0.657238493724065 0.15 0  0.6540167364018947 0.15 0  0.6507949790797245 0.15 0  0.6475732217575543 0.15 0  0.644351464435384 0.15 0  0.6411297071132231 0.15 0  0.6379079497910645 0.15 0  0.634686192468906 0.15 0  0.6314644351467468 0.15 0  0.6282426778245765 0.15 0  0.6250209205024085 0.15 0  0.62179916318025 0.15 0  0.6185774058580914 0.15 0  0.6153556485359328 0.15 0  0.6121338912137689 0.15 0  0.6089121338915987 0.15 0  0.6056903765694354 0.15 0  0.6024686192472768 0.15 0  0.5992468619251182 0.15 0  0.5960251046029597 0.15 0  0.5928033472807912 0.15 0  0.589581589958621 0.15 0  0.5863598326364508 0.15 0  0.5831380753142792 0.15 0  0.5799163179920974 0.15 0  0.57669456
[...]
<PointData  Scalars="pressure"> 
<DataArray  type="Float64"  Name="pressure"  format="ascii">1.1287816592115798e+04  9.9572280353039044e-01  -1.1652565476314531e+00  1.1302175014165841e+04  1.1261946746334401e+04  1.1242277451357892e+04  1.1224895266895668e+04  8.1598998939079793e+03  8.1430752573570971e+03  8.1278306340847475e+03  8.1127052431976836e+03  8.0976732878531120e+03  8.0827096936379894e+03  8.0677936908121264e+03  8.0529124719385618e+03  8.0380576864177638e+03  8.0232236185745451e+03  8.0084062555822311e+03  7.9936027457529626e+03  7.9788110628740014e+03  7.9640297886261451e+03  7.9492579661373466e+03  7.9344949983034348e+03  7.9197405753759649e+03  7.9049946223338002e+03  7.8902572600340682e+03  7.8755287762266944e+03  7.8608096038122567e+03  7.8461003045494363e+03  7.8314015569583480e+03  7.8167141475280141e+03  7.8020389645822834e+03  7.7873769943297921e+03  7.7727293187442183e+03  7.7580971150079258e+03  7.7434816563140303e+03  7.7288843138686389e+03  7.7143065599681540e+03  7.6997499720517044e+03  7.6852162376466895e+03  7.6707071601381076e+03  7.6562246653011725e+03  7.6417708085418180e+03  7.6273477827927618e+03  7.6129579270135673e+03  7.5986037352438480e+03  7.5842878661584746e+03  7.5700131530754034e+03  7.5557826143698048e+03  7.5415994642541446e+03  7.5274671238933788e+03  7.5133892328362253e+03  7.4993696607581978e+03  7.4854125195261713e+03  7.4715221756057745e+03  7.4577032628378402e+03  7.4439606956028019e+03  7.4302996823684189e+03  7.4167257395697088e+03  7.4032447056961209e+03  7.3898627553548058e+03  7.3765864129360407e+03  7.3634225653240810e+03  7.3503784728714008e+03  7.3374617775816878e+03  7.3246805071249082e+03  7.3120430729278623e+03  7.2995582601361866e+03  7.2872352067099810e+03  7.2750833682627963e+03  7.2631124644282345e+03  7.2513324014454465e+03  7.2397531641321884e+03  7.2283846681795821e+03  7.2172365602574946e+03  7.2063179478621178e+03  7.1956370314896631e+03  7.1852005953491098e+03  7.1750132829274371e+03  7.1650765265314576e+03  7.1553868844240751e+03  7.1459332895101124e+03  7.1366921322067819e+03  7.1276176709654083e+03  7.1186218876338653e+03  7.1095249201188071e+03  7.0997824055785513e+03  7.0869205210406344e+03  7.0626871853645816e+03  7.0218572079929427e+03  6.9810069073882114e+03  6.9396931136012963e+03  6.8982715187883869e+03  6.8568953624689648e+03  6.8156496867475107e+03  6.7745895875582983e+03  6.7337507939350053e+03  6.6931560049520094e+03  6.6528186928830100e+03  6.6127454281742612e+03  6.5729373769493977e+03  6.5333913245751173e+03  6.4941004334699555e+03  6.4550548725217395e+03  6.4162424217078751e+03  6.3776491424993010e+03  6.3392602052349448e+03  6.3010609768850645e+03  6.2630384984753709e+03  6.2251835287702888e+03  6.1874934230624685e+03  6.1499763068641832e+03  6.1126573292388648e+03  6.0755880560213363e+03  6.0388604502306662e+03  6.0026426564062012e+03  5.9672900400253902e+03  5.9336261410244251e+03  5.9027613661591176e+03  5.8631963235117255e+03  5.8069322662732820e+03  5.7568898177378778e+03  5.7089299075555082e+03  5.6619102431329975e+03  5.6154054769279610e+03  5.5692113201795737e+03  5.5232236032045012e+03  5.4773902194258189e+03  5.4316881988698569e+03  5.3861115572399485e+03  5.3406642860875772e+03  5.2953560533613309e+03  5.2501994566195954e+03  5.2052082267635051e+03  5.1603960447424397e+03  5.1157757692471178e+03  5.0713589475717436e+03  5.0271555249389376e+03  4.9831736940648789e+03  4.9394198438187541e+03  4.8958985773045260e+03  4.8526127776630819e+03  4.8095637055765865e+03  4.7667511165925025e+03  4.7241733894411391e+03  4.6818276588010895e+03  4.6397099476813128e+03  4.5978152958758292e+03  4.5561378819064739e+03  4.5146711365686097e+03  4.4734078466830315e+03  4.4323402479687356e+03  4.3914601061126796e+03  4.3507587851453700e+03  4.3102273021568581e+03  4.2698563672278551e+03  4.2296364072278857e+03  4.1895575718764130e+03  4.1496097201995708e+03  4.1097823852802976e+03  4.0700647150247473e+03  4.0304453865914052e+03  3.9909124921853386e+03  3.9514533941533732e+03  3.9120545477696428e+03  3.8727012908228426e+03  3.8333776001682095e+03  3.7940658168411637e+03  3.7547463432081236e+03  3.7153973180015460e+03  3.6759942779707917e+03  3.6365098182679171e+03  3.5969132675061310e+03  3.5571703975377754e+03  3.5172431922003334e+03  3.4770897032824732e+03  3.4366640254217205e+03  3.3959164241069639e+03  3.3547936518047486e+03  3.3132394856125702e+03  3.2711955145859956e+03  3.2286021945625171e+03  3.1854001715157506e+03  3.1415318504582374e+03  3.0969431564169745e+03  3.0515854000690642e+03  3.0054171288553575e+03  2.9584058222562967e+03  2.9105292848764047e+03  2.8617766079595490e+03  2.8121486089812256e+03  2.7616577142983524e+03  2.7103273111323078e+03  2.6581906504085409e+03  2.6052894211350617e+03  2.5516721347197681e+03  2.4973924540970870e+03  2.4425075824709488e+03  2.3870767968745549e+03  2.3311601796065524e+03  2.2748175713272444e+03  2.2181077463350684e+03  2.1610877943638734e+03  2.1038126836974225e+03  2.0463349762221783e+03  1.9887046647154793e+03  1.9309691047598249e+03  1.8731730170459400e+03  1.8153585396632720e+03  1.7575653137395329e+03  1.6998305891964101e+03  1.6421893402902169e+03  1.5846743829760437e+03  1.5273164879992232e+03  1.4701444850266762e+03  1.4131853541586086e+03  1.3564643018710196e+03  1.3000048188927792e+03  1.2438287177897603e+03  1.1879561481610504e+03  1.1324055874136252e+03  1.0771938051438772e+03  1.0223357992769410e+03  9.6784470239271866e+02  9.1373165718122243e+02  8.6000566081450097e+02  8.0667337928795985e+02  7.5373893452779248e+02  7.0120366931406704e+02  6.4906589778544890e+02  5.9732065233760534e+02  5.4595944088618512e+02  4.9497003142728732e+02  4.4433628329201656e+02  3.9403804636850612e+02  3.4405115137732298e+02  2.9434751747213886e+02  2.4489541843149587e+02  1.9566011037333075e+02  1.4660536510691011e+02  9.7689406409728591e+01  4.8862108964771807e+01  2.0684588655500299e-01  1.1278747659930297e-02  3.9119865789519915e-03  4.1042166706431564e-03  4.5918672497730966e-03  5.3589527266182796e-03  6.2972584984647183e-03  7.3367198898284108e-03  8.4470518435900959e-03  9.6165466466464587e-03  1.0842195057556044e-02  1.2125449138259078e-02  1.3470297973580417e-02  1.4882352391469907e-02  1.6368393748879967e-02  1.7936140819748224e-02  1.9594114320461882e-02  2.1351531919164075e-02  2.3218187206199989e-02  2.5204269800662486e-02  2.7320076172816388e-02  2.9575542470215550e-02  3.1979498579830248e-02  3.4538489334724851e-02  3.7254918902529258e-02  4.0124116706022867e-02  4.3129631196786151e-02  4.6235484466745497e-02  4.9372931971989602e-02  5.2416688513530332e-02  5.5139820430712007e-02  5.7123585207753756e-02  5.7567839105944436e-02  5.4871466225280982e-02  4.5704765905151504e-02  2.5096437928738866e-02  -1.9426766756079215e-02  -5.1095494769058621e-02  -6.7347977517840094e-02  -7.9424298481156133e-02  -7.1716826402418749e-02  -1.2789089051721318e-02  3.2210319100238133e-01  -2.3747204543576057e+00  2.2072141331721151e+00  -2.1541262076200911e+00  2.0892481231011799e+00  -1.5120074246233048e-01  1.7584157193687174e-02  -2.8136354195854246e-01  -1.9405211534912706e-01  5.7495952326250088e-01  -1.2316545720258418e+00  3.8989409863046953e-01  1.3220007737641598e-01  9.9253882538672719e-02  7.1889370120622811e-02  4.7018860339706627e-02  2.6096696376957936e-02  9.2501826619953622e-03  -3.9876763464038161e-03  -1.4217764871713454e-02  -2.2005381029893353e-02  -2.7828652667097678e-02  -3.2076423995070637e-02  -3.5056969370412368e-02  -3.7015529816357716e-02  -3.8142112125593770e-02  -3.8591087741359102e-02  -3.8481883650811739e-02  -3.7913691210119428e-02  -3.6965271373183096e-02  -3.5700401135331149e-02  -3.4170844600369232e-02  -3.2418474069635064e-02  -3.0476942403717289e-02  -2.8372793918402996e-02  -2.6126057986415603e-02  -2.3750175084821801e-02  -2.1250854683706227e-02  -1.8622698697300155e-02  -1.5835185059683593e-02  -1.2718695428842821e-02  -8.2535381198071064e-03  8.4738291951207308e-04  -6.2867895874403154e-02  1.0610324243152653e+00  -1.5402233380532395e+00  4.1498699191529688e+01  8.4604053232375264e+01  1.2460603727650013e+02  1.2533242833823151e+02  2.1637588077255731e+02  2.5552442503924129e+02  2.2186843756940377e+02  3.5088448428997225e+02  3.9183497772399880e+02  3.2152602933283026e+02  3.5897101553646769e+02  3.9590788341873173e+02  4.3395972765889911e+02  4.7325649416895891e+02  5.1394821255282534e+02  5.5637293417165586e+02  6.0271280405209745e+02  8.8875560825347782e+02  9.4985605117876480e+02  1.0162072490824467e+03  1.0857092242830531e+03  1.1583588968083418e+03  1.2340919755186717e+03  1.3129373823603585e+03  1.3948891350921733e+03  1.4798847808106270e+03  1.5678250210688745e+03  1.6585753597004750e+03  1.7519673415130762e+03  1.8477956485318953e+03  1.9457760301406499e+03  2.0454770651320100e+03  2.1463356921085765e+03  2.2477934000226178e+03  2.3494209446462742e+03  2.4509365335982434e+03  2.5521521324591099e+03  2.6529034929166933e+03  2.7529863629507327e+03  2.8521124997568295e+03  2.9499199396612480e+03  3.0460769416708677e+03  3.1404465339769845e+03  3.2331668344831232e+03  3.3245466221998017e+03  3.4148836347289935e+03  3.5043474808472424e+03  3.5929083273905990e+03  3.6799180591389440e+03  3.7609587475086200e+03  2.8060264691946404e+03  2.8746502092971941e+03  4.0275281544751542e+03  4.1024556582828736e+03  4.1738913226720815e+03  3.0976688095471686e+03  3.1551149385140761e+03  4.3969700559309977e+03  4.4533342924234867e+03  3.2909417143849832e+03  3.3381962020143883e+03  4.6370722957602893e+03  4.6844137036213333e+03  3.4523442301357659e+03  3.4932622190406246e+03  4.8433608475943438e+03  4.8855287176568927e+03  3.5949340819870340e+03  3.6323804485915039e+03  5.0312482361834909e+03  5.0733815795338605e+03  5.1145557814236072e+03  3.7598413925703680e+03  3.7956808077559322e+03  5.2540945860296370e+03  5.2954263182517589e+03  5.3361769942318042e+03  3.9212164974100842e+03  3.9572477941798070e+03  5.4763699183632025e+03  5.5183148836860591e+03  5.5597697725066955e+03  4.0847448940179552e+03  4.1215047591375651e+03  5.7027671121971844e+03  5.7455839451740630e+03  5.7878932526862527e+03  4.2516274316798635e+03  4.2891154411679618e+03  5.9337198432713403e+03  5.9773352149909160e+03  6.0204085416295611e+03  4.4216216046517320e+03  4.4597354685370274e+03  6.1686730087314972e+03  6.2129631460777937e+03  6.2566820860707885e+03  4.5942551804569621e+03  4.6328551743623784e+03  6.4066272054838610e+03  6.4488995932227945e+03  4.7346532434514629e+03  4.7739103763967241e+03  6.6014663753516706e+03  6.6473059519865465e+03  6.6926823590081131e+03  4.9133989013633081e+03  4.9538725221892955e+03  6.8501744649893635e+03  6.8977721401173376e+03  6.9450660106745036e+03  5.0990277650939634e+03  5.1415594424720066e+03  7.1103460242306392e+03  7.1582016873217026e+03  5.2581348863201674e+03  7.2718502282684385e+03  5.3408315376159799e+03  7.3904336747698144e+03  7.4426167695764316e+03  5.4694015109045295e+03  7.5700179395356554e+03  7.6248925745608403e+03  5.6046035526841561e+03  7.7587664580672581e+03  7.8165749034558739e+03  5.7473499005401654e+03  7.9619320831030418e+03  8.0352387778848415e+03  8.1037427716670618e+03  8.1409203895275832e+03  5.9766954859384814e+03  6.0260458502104311e+03  6.0719162897673004e+03  6.1176686728402456e+03  6.1630791814978602e+03  6.2078883073882198e+03  6.2519114479051414e+03  6.2949906191153150e+03  6.3369842837619535e+03  6.3777648535457165e+03  6.4172219367849548e+03  6.4552728366120809e+03  6.4918742262421056e+03  6.5270274194968142e+03  6.5607750796504133e+03  6.5931917329163771e+03  6.6243712381641444e+03  6.6544143672545724e+03  6.6834193095590499e+03  6.7114763996748179e+03  6.7386665280468287e+03  6.7650616611133182e+03  6.7907259083295112e+03  6.8157162399737445e+03  6.8400827200511658e+03  6.8638685683531876e+03  6.8871104216537178e+03  6.9098389822162453e+03  6.9320800216898460e+03  6.9538555681843391e+03  6.9751850688353024e+03  6.9960863617733858e+03  7.0165763677398963e+03  7.0366714865441572e+03  7.0563877355404356e+03  7.0757406898719455e+03  7.0947452818385400e+03  7.1134154983801964e+03  7.1317639892912403e+03  7.1498015681540146e+03  7.1675365515585218e+03  7.1849738327821306e+03  7.2021135104681443e+03  7.2189487701842154e+03  7.2354625579713156e+03  7.2516232085978227e+03  7.2673877886533546e+03  7.2827605948347473e+03  7.2979601705925324e+03  7.3133063315070885e+03  7.3285859867317959e+03  7.3452849541505520e+03  7.3653556322241820e+03  7.3779995335730700e+03  7.3974813879531275e+03  7.4231616065381058e+03  7.4399944899899292e+03  1.0233452933885008e+04  7.4799623954907502e+03  7.4993062859030770e+03  1.0311106436197892e+04  7.5260290229254970e+03  7.5441872461392013e+03  1.0373626977973319e+04  7.5720941955702083e+03  7.5889053625668575e+03  1.0433855908359412e+04  1.0446773053487903e+04  7.6238048843601055e+03  1.0486712701174194e+04  1.0510814184052868e+04  7.6694346751908415e+03  7.6883452001157530e+03  7.7036511810375587e+03  1.0595381655141244e+04  7.7362316785269923e+03  7.7541326196879345e+03  7.7691466846928952e+03  1.0683032194512100e+04  7.7942885271607183e+03  7.8132531557554084e+03  7.8290273641666190e+03  7.8441411427466755e+03  7.8573615416520979e+03  7.8683695418745710e+03  7.8848746695928548e+03  7.9001606278041954e+03  7.9164243527085173e+03  7.9340200014321754e+03  7.9516651767806434e+03  7.9688562595522881e+03  7.9855633521702603e+03  8.0016990571986908e+03  8.0178321621685700e+03  8.0352128607408749e+03  8.0530930908037781e+03  8.0707498940781197e+03  8.0876607571593431e+03  8.1036897916020962e+03  8.1199682844768413e+03  8.1353356410323731e+03  8.1467379685005508e+03  8.1605218391363496e+03  8.1761416741481735e+03  1.1242037035741216e+04  1.1259547995743076e+04  1.1279231025123605e+04  1.1299810567555567e+04  1.1298697113827444e+04  1.1297920256178058e+04  1.1297187642499815e+04  1.1296437475765739e+04  1.1295663797532581e+04  1.1294871527318377e+04  1.1294067184614460e+04  1.1293257020015591e+04  1.1292446612256943e+04  1.1291640801218933e+04  1.1290843713564194e+04  1.1290058815274650e+04  1.1289288971511860e+04  1.1288536507954492e+04  1.1287803271499415e+04  1.1287090689038281e+04  1.1286399823246105e+04  1.1285731424533131e+04  1.1285085978580186e+04  1.1284463749153783e+04  1.1283864816138941e+04  1.1283289108915444e+04  1.1282736435335897e+04  1.1282206506647370e+04  1.1281698958742447e+04  1.1281213370139909e+04  1.1280749277089159e+04  1.1280306186171965e+04  1.1279883584746925e+04  1.1279480949549501e+04  1.1279097753726172e+04  1.1278733472548443e+04  1.1278387588020476e+04  1.1278059592565436e+04  1.1277748991949729e+04  1.1277455307580747e+04  1.1277178078294175e+04  1.1276916861728947e+04  1.1276671235373135e+04  1.1276440797351366e+04  1.1276225167013574e+04  1.1276023985375685e+04  1.1275836915455753e+04  1.1275663642542586e+04  1.1275503874429147e+04  1.1275357341639045e+04  1.1275223797671482e+04  1.1275103019287768e+04  1.1274994806861261e+04  1.1274898984811703e+04  1.1274815402145088e+04  1.1274743933120571e+04  1.1274684478067664e+04  1.1274636964378546e+04  1.1274601347703356e+04  1.1274577613380112e+04  1.1274565778135173e+04  1.1274565892096134e+04  1.1274578041165772e+04  1.1274602349814086e+04  1.1274638984355051e+04  1.1274688156786608e+04  1.1274750129285008e+04  1.1274825219460174e+04  1.1274913806493982e+04  1.1275016338299612e+04  1.1275133339853721e+04  1.1275265422859859e+04  1.1275413296893930e+04  1.1275577782145454e+04  1.1275759823776962e+04  1.1275960507733285e+04  1.1276181077465422e+04  1.1276422950357881e+04  1.1276687731441276e+04  1.1276977219874767e+04  1.1277293400169314e+04  1.1277638404600351e+04  1.1278014425740068e+04  1.1278423551551163e+04  1.1278867501980063e+04  1.1279347292427676e+04  1.1279862963240805e+04  1.1280413832112716e+04  1.1281003219242155e+04  1.1281689950083823e+04  1.1282971933899871e+04  1.1262316932423319e+04  1.1261769360777840e+04  1.1261155127842481e+04  1.1260567488011022e+04  1.1260013652235344e+04  1.1259496121234086e+04  1.1259016347836401e+04  1.1258573959687306e+04  1.1258167320516055e+04  1.1257794186195313e+04  1.1257452127710327e+04  1.1257138761748905e+04  1.1256851863785832e+04  1.1256589415046197e+04  1.1256349613827597e+04  1.1256130868579938e+04  1.1255931782477679e+04  1.1255751134808614e+04  1.1255587861991955e+04  1.1255441039625199e+04  1.1255309866177027e+04  1.1255193648520670e+04  1.1255091789283266e+04  1.1255003775881318e+04  1.1254929171070022e+04  1.1254867604825044e+04  1.1254818767383111e+04  1.1254782403283481e+04  1.1254758306270433e+04  1.1254746314935373e+04  1.1254746308994088e+04  1.1254758206109938e+04  1.1254781959187088e+04  1.1254817554069150e+04  1.1254865007588323e+04  1.1254924365918183e+04  1.1254995703189777e+04  1.1255079120336439e+04  1.1255174744136981e+04  1.1255282726430485e+04  1.1255403243478688e+04  1.1255536495453842e+04  1.1255682706031250e+04  1.1255842122066333e+04  1.1256015013335928e+04  1.1256201672323106e+04  1.1256402414023187e+04  1.1256617575746706e+04  1.1256847516892229e+04  1.1257092618658055e+04  1.1257353283657198e+04  1.1257629935394090e+04  1.1257923017554156e+04  1.1258232993048850e+04  1.1258560342748206e+04  1.1258905563820455e+04  1.1259269167583863e+04  1.1259651676758467e+04  1.1260053621985757e+04  1.1260475537461225e+04  1.1260917955498660e+04  1.1261381399815798e+04  1.1261866377298620e+04  1.1262373367966735e+04  1.1262902812826067e+04  1.1263455099258703e+04  1.1264030543566263e+04  1.1264629370255876e+04  1.1265251687642227e+04  1.1265897459341859e+04  1.1266566471266437e+04  1.1267258293790581e+04  1.1267972238890365e+04  1.1268707312232873e+04  1.1269462160454937e+04  1.1270235014195878e+04  1.1271023627811470e+04  1.1271825216992105e+04  1.1272636395515936e+04  1.1273453111709616e+04  1.1274270583555603e+04  1.1275083229490270e+04  1.1275884590656695e+04  1.1276667202226843e+04  1.1277421914267770e+04  1.1278133095759551e+04  1.1278753225900211e+04  1.1279119695016172e+04  1.1242245204742921e+04  1.1241777936537470e+04  1.1241206449975349e+04  1.1240600460716918e+04  1.1240026808443074e+04  1.1239501933155087e+04  1.1239024991245378e+04  1.1238591327438849e+04  1.1238196123110782e+04  1.1237835194899859e+04  1.1237505048824098e+04  1.1237202774325993e+04  1.1236925929061857e+04  1.1236672445564107e+04  1.1236440560430163e+04  1.1236228760853443e+04  1.1236035743601349e+04  1.1235860382869503e+04  1.1235701704583036e+04  1.1235558865507988e+04  1.1235431136051086e+04  1.1235317885956352e+04  1.1235218572322034e+04  1.1235132729504585e+04  1.1235059960575853e+04  1.1234999930070444e+04  1.1234952357812746e+04  1.1234917013653203e+04  1.1234893712974175e+04  1.1234882312850590e+04  1.1234882708769972e+04  1.1234894831832524e+04  1.1234918646364813e+04  1.1234954147891205e+04  1.1235001361415820e+04  1.1235060339975018e+04  1.1235131163426067e+04  1.1235213937442497e+04  1.1235308792690461e+04  1.1235415884163387e+04  1.1235535390654530e+04  1.1235667514348783e+04  1.1235812480516275e+04  1.1235970537290661e+04  1.1236141955515281e+04  1.1236327028639662e+04  1.1236526072647905e+04  1.1236739425998549e+04  1.1236967449553453e+04  1.1237210526469660e+04  1.1237469062024486e+04  1.1237743483338882e+04  1.1238034238957836e+04  1.1238341798239067e+04  1.1238666650492018e+04  1.1239009303798035e+04  1.1239370283429405e+04  1.1239750129769023e+04  1.1240149395613709e+04  1.1240568642722123e+04  1.1241008437442055e+04  1.1241469345221707e+04  1.1241951923774674e+04  1.1242456714628357e+04  1.1242984232740999e+04  1.1243534953823222e+04  1.1244109298947662e+04  1.1244707615976622e+04  1.1245330157286780e+04  1.1245977053227567e+04  1.1246648280725047e+04  1.1247343626449878e+04  1.1248062644026892e+04  1.1248804604906205e+04  1.1249568442787799e+04  1.1250352691955959e+04  1.1251155420600118e+04  1.1251974161146300e+04  1.1252805840340499e+04  1.1253646710344374e+04  1.1254492271836149e+04  1.1255337141683367e+04  1.1256174700871918e+04  1.1256996057195476e+