<?xml version="1.0"?>
<VTKFile type="UnstructuredGrid"  version="0.1"  >
<UnstructuredGrid>
<Piece  NumberOfPoints="21600" NumberOfCells="42542">
<Points>
<DataArray  type="Float64"  NumberOfComponents="3"  format="ascii">0 0 0  0.77 0 0  0.77 0.15 0  0 0.15 0  0.003221757322170014 0 0  0.006443514644340046 0 0  0.009665271966510193 0 0  0.01288702928868034 0 0  0.01610878661085048 0 0  0.01933054393302049 0 0  0.02255230125519027 0 0  0.02577405857735967 0 0  0.02899581589952872 0 0  0.03221757322169801 0 0  0.03543933054386744 0 0  0.03866108786603686 0 0  0.04188284518820627 0 0  0.0451046025103757 0 0  0.04832635983254521 0 0  0.05154811715471607 0 0  0.05476987447688695 0 0  0.05799163179905782 0 0  0.06121338912122846 0 0  0.06443514644339859 0 0  0.06765690376556875 0 0  0.0708786610877389 0 0  0.07410041840990904 0 0  0.0773221757320792 0 0  0.08054393305425039 0 0  0.08376569037642198 0 0  0.0869874476985936 0 0  0.09020920502076518 0 0  0.0934309623429339 0 0  0.0966527196651024 0 0  0.09987447698726967 0 0  0.1030962343094369 0 0  0.1063179916316041 0 0  0.1095397489537714 0 0  0.1127615062759386 0 0  0.1159832635981051 0 0  0.1192050209202709 0 0  0.1224267782424358 0 0  0.1256485355646001 0 0  0.1288702928867644 0 0  0.1320920502089288 0 0  0.1353138075310958 0 0  0.1385355648532632 0 0  0.1417573221754333 0 0  0.1449790794976035 0 0  0.1482008368197736 0 0  0.1514225941419428 0 0  0.1546443514641101 0 0  0.157866108786276 0 0  0.1610878661084403 0 0  0.1643096234306047 0 0  0.167531380752769 0 0  0.1707531380749333 0 0  0.1739748953970977 0 0  0.177196652719262 0 0  0.1804184100414264 0 0  0.1836401673635935 0 0  0.1868619246857611 0 0  0.1900836820079313 0 0  0.1933054393301014 0 0  0.1965271966522716 0 0  0.1997489539744406 0 0  0.2029707112966078 0 0  0.2061924686187736 0 0  0.209414225940938 0 0  0.2126359832631022 0 0  0.2158577405852666 0 0  0.219079497907431 0 0  0.2223012552295953 0 0  0.2255230125517597 0 0  0.2287447698739242 0 0  0.2319665271960914 0 0  0.2351882845182592 0 0  0.2384100418404293 0 0  0.2416317991625994 0 0  0.2448535564847696 0 0  0.2480753138069371 0 0  0.2512970711291014 0 0  0.2545188284512658 0 0  0.2577405857734302 0 0  0.2609623430955986 0 0  0.2641841004177688 0 0  0.2674058577399389 0 0  0.270627615062109 0 0  0.2738493723842792 0 0  0.2770711297064487 0 0  0.280292887028613 0 0  0.2835146443507774 0 0  0.2867364016729417 0 0  0.2899581589951061 0 0  0.2931799163172705 0 0  0.2964016736394348 0 0  0.2996234309615992 0 0  0.3028451882837672 0 0  0.3060669456059373 0 0  0.3092887029281075 0 0  0.3125104602502776 0 0  0.3157322175724478 0 0  0.3189539748946177 0 0  0.322175732216782 0 0  0.3253974895389464 0 0  0.3286192468611107 0 0  0.3318410041832751 0 0  0.3350627615054395 0 0  0.3382845188276038 0 0  0.3415062761497681 0 0  0.3447280334719325 0 0  0.3479497907940968 0 0  0.3511715481162612 0 0  0.3543933054384255 0 0  0.3576150627605947 0 0  0.3608368200827649 0 0  0.364058577404935 0 0  0.3672803347271051 0 0  0.3705020920492753 0 0  0.373723849371444 0 0  0.3769456066936084 0 0  0.3801673640157748 0 0  0.383389121337945 0 0  0.3866108786601209 0 0  0.3898326359823028 0 0  0.3930543933044846 0 0  0.3962761506266662 0 0  0.399497907948848 0 0  0.4027196652710298 0 0  0.4059414225932116 0 0  0.4091631799153934 0 0  0.4123849372375751 0 0  0.4156066945597569 0 0  0.4188284518819387 0 0  0.4220502092041222 0 0  0.4252719665263097 0 0  0.4284937238484974 0 0  0.4317154811706849 0 0  0.4349372384928725 0 0  0.4381589958150601 0 0  0.4413807531372476 0 0  0.4446025104594352 0 0  0.4478242677816181 0 0  0.4510460251037998 0 0  0.4542677824259815 0 0  0.4574895397481634 0 0  0.4607112970703451 0 0  0.4639330543925269 0 0  0.4671548117147087 0 0  0.4703765690368904 0 0  0.4735983263590722 0 0  0.4768200836812568 0 0  0.4800418410034444 0 0  0.483263598325632 0 0  0.4864853556478196 0 0  0.4897071129700028 0 0  0.4929288702921845 0 0  0.4961506276143663 0 0  0.4993723849365479 0 0  0.5025941422587239 0 0  0.5058158995809008 0 0  0.5090376569030826 0 0  0.5122594142252677 0 0  0.515481171547461 0 0  0.5187029288696494 0 0  0.5219246861918312 0 0  0.525146443514013 0 0  0.5283682008361947 0 0  0.5315899581583845 0 0  0.5348117154805778 0 0  0.5380334728027617 0 0  0.5412552301249435 0 0  0.5444769874471141 0 0  0.5476987447692853 0 0  0.550920502091467 0 0  0.5541422594136513 0 0  0.5573640167358447 0 0  0.560585774058034 0 0  0.5638075313802158 0 0  0.5670292887023975 0 0  0.5702510460245793 0 0  0.5734728033467682 0 0  0.5766945606689615 0 0  0.579916317991155 0 0  0.5831380753133483 0 0  0.5863598326355314 0 0  0.5895815899577131 0 0  0.5928033472798949 0 0  0.5960251046020785 0 0  0.5992468619242718 0 0  0.6024686192464619 0 0  0.6056903765686437 0 0  0.6089121338908206 0 0  0.6121338912129908 0 0  0.6153556485351673 0 0  0.618577405857349 0 0  0.6217991631795386 0 0  0.625020920501732 0 0  0.6282426778239159 0 0  0.6314644351460976 0 0  0.6346861924682795 0 0  0.6379079497904622 0 0  0.6411297071126555 0 0  0.6443514644348465 0 0  0.6475732217570283 0 0  0.650794979079206 0 0  0.6540167364013761 0 0  0.6572384937235518 0 0  0.6604602510457335 0 0  0.6636820083679225 0 0  0.6669037656901158 0 0  0.6701255230123004 0 0  0.6733472803344823 0 0  0.6765690376566641 0 0  0.6797907949788459 0 0  0.6830125523010393 0 0  0.686234309623231 0 0  0.6894560669454127 0 0  0.6926778242675914 0 0  0.6958995815897615 0 0  0.6991213389119363 0 0  0.7023430962341181 0 0  0.7055648535563062 0 0  0.7087866108784994 0 0  0.712008368200685 0 0  0.7152301255228668 0 0  0.7184518828450486 0 0  0.7216736401672305 0 0  0.724895397489423 0 0  0.7281171548116155 0 0  0.7313389121337973 0 0  0.7345606694559768 0 0  0.7377824267781468 0 0  0.7410041841003209 0 0  0.7442259414225026 0 0  0.7474476987446899 0 0  0.7506694560668832 0 0  0.7538912133890696 0 0  0.7571129707112513 0 0  0.760334728033433 0 0  0.7635564853556149 0 0  0.7667782426778067 0 0  0.77 0.001685393258423789 0  0.77 0.003370786516847669 0  0.77 0.005056179775271247 0  0.77 0.006741573033694517 0  0.77 0.008426966292117821 0  0.77 0.01011235955054176 0  0.77 0.01179775280896623 0  0.77 0.0134831460673904 0  0.77 0.01516853932581489 0  0.77 0.01685393258423891 0  0.77 0.01853932584266291 0  0.77 0.02022471910108589 0  0.77 0.02191011235950794 0  0.77 0.02359550561792999 0  0.77 0.02528089887635205 0  0.77 0.02696629213477411 0  0.77 0.02865168539319714 0  0.77 0.03033707865161956 0  0.77 0.03202247191004162 0  0.77 0.03370786516846367 0  0.77 0.03539325842688572 0  0.77 0.03707865168530778 0  0.77 0.03876404494372984 0  0.77 0.0404494382021519 0  0.77 0.04213483146057394 0  0.77 0.04382022471899601 0  0.77 0.04550561797741807 0  0.77 0.04719101123584013 0  0.77 0.04887640449426219 0  0.77 0.05056179775268425 0  0.77 0.0522471910111063 0  0.77 0.05393258426952837 0  0.77 0.05561797752795105 0  0.77 0.05730337078637505 0  0.77 0.05898876404479723 0  0.77 0.0606741573032193 0  0.77 0.06235955056164135 0  0.77 0.06404494382006341 0  0.77 0.06573033707848548 0  0.77 0.06741573033690752 0  0.77 0.06910112359532959 0  0.77 0.07078651685375165 0  0.77 0.0724719101121737 0  0.77 0.07415730337059653 0  0.77 0.07584269662902443 0  0.77 0.07752808988745429 0  0.77 0.07921348314588413 0  0.77 0.08089887640431678 0  0.77 0.08258426966274923 0  0.77 0.08426966292117907 0  0.77 0.08595505617960987 0  0.77 0.08764044943804362 0  0.77 0.08932584269647403 0  0.77 0.09101123595490389 0  0.77 0.09269662921333673 0  0.77 0.09438202247176901 0  0.77 0.09606741573019884 0  0.77 0.09775280898862983 0  0.77 0.09943820224706355 0  0.77 0.1011235955054938 0  0.77 0.1028089887639236 0  0.77 0.1044943820223567 0  0.77 0.1061797752807888 0  0.77 0.1078651685392186 0  0.77 0.1095505617976498 0  0.77 0.1112359550560835 0  0.77 0.1129213483145136 0  0.77 0.1146067415729456 0  0.77 0.1162921348313787 0  0.77 0.1179775280898085 0  0.77 0.1196629213482387 0  0.77 0.1213483146066724 0  0.77 0.1230337078651035 0  0.77 0.1247191011235322 0  0.77 0.1264044943819605 0  0.77 0.1280898876403903 0  0.77 0.1297752808988242 0  0.77 0.1314606741572554 0  0.77 0.1331460674156853 0  0.77 0.1348314606741154 0  0.77 0.1365168539325504 0  0.77 0.1382022471909802 0  0.77 0.13988764044941 0  0.77 0.1415730337078443 0  0.77 0.1432584269662752 0  0.77 0.144943820224705 0  0.77 0.1466292134831355 0  0.77 0.1483146067415701 0  0.7667782426778414 0.15 0  0.7635564853556813 0.15 0  0.7603347280335111 0.15 0  0.757112970711341 0.15 0  0.7538912133891708 0.15 0  0.7506694560670005 0.15 0  0.7474476987448303 0.15 0  0.7442259414226602 0.15 0  0.74100418410049 0.15 0  0.7377824267783197 0.15 0  0.7345606694561496 0.15 0  0.7313389121339794 0.15 0  0.7281171548118092 0.15 0  0.724895397489639 0.15 0  0.7216736401674688 0.15 0  0.7184518828452986 0.15 0  0.7152301255231284 0.15 0  0.7120083682009583 0.15 0  0.708786610878788 0.15 0  0.7055648535566178 0.15 0  0.7023430962344477 0.15 0  0.6991213389122775 0.15 0  0.6958995815901072 0.15 0  0.692677824267937 0.15 0  0.6894560669457669 0.15 0  0.6862343096235967 0.15 0  0.6830125523014264 0.15 0  0.6797907949792563 0.15 0  0.6765690376570861 0.15 0  0.6733472803349159 0.15 0  0.6701255230127456 0.15 0  0.6669037656905755 0.15 0  0.6636820083684053 0.15 0  0.6604602510462351 0.15 0  0.657238493724065 0.15 0  0.6540167364018947 0.15 0  0.6507949790797245 0.15 0  0.6475732217575543 0.15 0  0.644351464435384 0.15 0  0.6411297071132231 0.15 0  0.6379079497910645 0.15 0  0.634686192468906 0.15 0  0.6314644351467468 0.15 0  0.6282426778245765 0.15 0  0.6250209205024085 0.15 0  0.62179916318025 0.15 0  0.6185774058580914 0.15 0  0.6153556485359328 0.15 0  0.6121338912137689 0.15 0  0.6089121338915987 0.15 0  0.6056903765694354 0.15 0  0.6024686192472768 0.15 0  0.5992468619251182 0.15 0  0.5960251046029597 0.15 0  0.5928033472807912 0.15 0  0.589581589958621 0.15 0  0.5863598326364508 0.15 0  0.5831380753142792 0.15 0  0.5799163179920974 0.15 0  0.57669456
[...]
<PointData  Scalars="pressure"> 
<DataArray  type="Float64"  Name="pressure"  format="ascii">2.8725035008395240e+04  2.1665346658745852e+00  -1.6078511555710380e+00  2.8712203781242140e+04  2.8699181947258596e+04  2.8679578337447001e+04  2.8662295858644247e+04  2.0862552274404748e+04  2.0845918153287046e+04  2.0830894687081258e+04  2.0816032358394859e+04  2.0801305892186458e+04  2.0786690932163205e+04  2.0772167530466999e+04  2.0757723740143472e+04  2.0743352112529035e+04  2.0729047869245318e+04  2.0714807958156973e+04  2.0700630495881356e+04  2.0686514412718065e+04  2.0672459211670859e+04  2.0658464793878211e+04  2.0644531322941049e+04  2.0630659110954311e+04  2.0616848514251022e+04  2.0603099829084127e+04  2.0589413177532188e+04  2.0575788371645962e+04  2.0562224738300090e+04  2.0548720878062148e+04  2.0535274316520903e+04  2.0521880958226735e+04  2.0508534102143283e+04  2.0495222539492988e+04  2.0481927194250176e+04  2.0468619246790997e+04  2.0455262751971131e+04  2.0441742726843811e+04  2.0425878726135074e+04  2.0384671766540501e+04  2.0294639045895845e+04  2.0204757059677333e+04  2.0114508182111338e+04  2.0024114549816881e+04  1.9933676346091190e+04  1.9843242869475460e+04  1.9752841258641638e+04  1.9662487518937640e+04  1.9572191419367442e+04  1.9481958868851190e+04  1.9391793170473178e+04  1.9301695733232787e+04  1.9211666501097163e+04  1.9121704226044498e+04  1.9031806651271447e+04  1.8941970641068914e+04  1.8852192278383111e+04  1.8762466942546067e+04  1.8672789374727316e+04  1.8583153735687218e+04  1.8493553658560384e+04  1.8403982298215360e+04  1.8314432377974277e+04  1.8224896233993346e+04  1.8135365857310167e+04  1.8045832933408299e+04  1.7956288879089014e+04  1.7866724876452463e+04  1.7777131903850004e+04  1.7687500763759719e+04  1.7597822107643296e+04  1.7508086457952155e+04  1.7418284227553260e+04  1.7328405736935470e+04  1.7238441229628384e+04  1.7148380886316048e+04  1.7058214838157062e+04  1.6967933179829375e+04  1.6877525982807663e+04  1.6786983309351399e+04  1.6696295227640432e+04  1.6605451828440149e+04  1.6514443243617323e+04  1.6423259666759033e+04  1.6331891376074480e+04  1.6240328759686246e+04  1.6148562343339952e+04  1.6056582820487143e+04  1.5964381084621065e+04  1.5871948263671300e+04  1.5779275756193658e+04  1.5686355269024081e+04  1.5593178856005115e+04  1.5499738957334826e+04  1.5406028439041029e+04  1.5312040632042497e+04  1.5217769370228370e+04  1.5123209026967728e+04  1.5028354549454780e+04  1.4933201490300615e+04  1.4837746035804177e+04  1.4741985030369702e+04  1.4645915996586622e+04  1.4549537150550985e+04  1.4452847412081372e+04  1.4355846409569882e+04  1.4258534479299606e+04  1.4160912659161737e+04  1.4062982676807018e+04  1.3964746932368387e+04  1.3866208475990425e+04  1.3767370980493723e+04  1.3668238709584997e+04  1.3568816482095877e+04  1.3469109632791033e+04  1.3369123970330549e+04  1.3268865732997694e+04  1.3168341542817598e+04  1.3067558358688548e+04  1.2966523429131017e+04  1.2865244245230002e+04  1.2763728494306022e+04  1.2661984014802256e+04  1.2560018752817276e+04  1.2457840720654785e+04  1.2355457957698411e+04  1.2252878493855889e+04  1.2150110315757433e+04  1.2047161335831786e+04  1.1944039364329903e+04  1.1840752084315542e+04  1.1737307029597707e+04  1.1633711565540852e+04  1.1529972872656315e+04  1.1426097932851158e+04  1.1322093518190071e+04  1.1217966182009828e+04  1.1113722252214355e+04  1.1009367826573560e+04  1.0904908769844997e+04  1.0800350712538841e+04  1.0695699051149899e+04  1.0590958949686514e+04  1.0486135342332533e+04  1.0381232937089693e+04  1.0276256220254920e+04  1.0171209461599083e+04  1.0066096720123924e+04  9.9609218502849144e+03  9.8556885085781014e+03  9.7504001603996694e+03  9.6450600870966373e+03  9.5396713931370396e+03  9.4342370133360509e+03  9.3287597200831297e+03  9.2232421305235221e+03  9.1176867136528817e+03  9.0120957972923297e+03  8.9064715749148709e+03  8.8008161123005011e+03  8.6951313540009105e+03  8.5894191296009849e+03  8.4836811597651576e+03  8.3779190620607278e+03  8.2721343565550123e+03  8.1663284711808656e+03  8.0605027468728476e+03  7.9546584424745643e+03  7.8487967394185043e+03  7.7429187461842193e+03  7.6370255025377955e+03  7.5311179835581306e+03  7.4251971034591443e+03  7.3192637192101765e+03  7.2133186339657495e+03  7.1073626003100717e+03  7.0013963233220429e+03  6.8954204634722200e+03  6.7894356393548724e+03  6.6834424302655543e+03  6.5774413786312907e+03  6.4714329922988200e+03  6.3654177466900210e+03  6.2593960868295489e+03  6.1533684292521093e+03  6.0473351637964297e+03  5.9412966552900025e+03  5.8352532451336992e+03  5.7292052527890355e+03  5.6231529771747291e+03  5.5170966979786663e+03  5.4110366768874273e+03  5.3049731587407077e+03  5.1989063726147679e+03  5.0928365328375667e+03  4.9867638399422558e+03  4.8806884815598478e+03  4.7746106332570780e+03  4.6685304593217006e+03  4.5624481134977668e+03  4.4563637396767654e+03  4.3502774725448371e+03  4.2441894381895772e+03  4.1380997546706658e+03  4.0320085325535247e+03  3.9259158754110945e+03  3.8198218802962519e+03  3.7137266381846835e+03  3.6076302343937155e+03  3.5015327489761239e+03  3.3954342570930189e+03  3.2893348293674749e+03  3.1832345322200208e+03  3.0771334281911754e+03  2.9710315762513242e+03  2.8649290321011867e+03  2.7588258484683752e+03  2.6527220754004011e+03  2.5466177605619687e+03  2.4405129495435526e+03  2.3344076861864914e+03  2.2283020129395641e+03  2.1221959712590469e+03  2.0160896020747598e+03  1.9099829463525048e+03  1.8038760457951450e+03  1.6977689437503911e+03  1.5916616864234877e+03  1.4855543245512551e+03  1.3794469157924038e+03  1.2733395282525512e+03  1.1672322458752158e+03  1.0611251770184647e+03  9.5501846871923726e+02  8.4891233174435558e+02  7.4280708752803980e+02  6.3670326110285066e+02  5.3060178679782496e+02  4.2450475758653312e+02  3.1841790428377561e+02  2.1234075063001288e+02  1.0625956327656900e+02  4.5045433214230546e-01  2.3099361119528622e-02  4.8783876191648440e-03  2.9857243554752937e-03  1.7079767484400243e-03  1.0045044021706180e-03  6.2788460676965502e-04  4.1402072124902602e-04  2.8519582767294876e-04  2.0359911625166604e-04  1.4965016606670653e-04  1.1264323697964795e-04  8.6440256680215174e-05  6.7370629031182747e-05  5.3156013612542318e-05  4.2334968187393185e-05  3.3942415763657885e-05  2.7324447084990812e-05  2.2027742783677604e-05  1.7731564874926741e-05  1.4204797924821048e-05  1.1278150211882588e-05  8.8257671951038979e-06  6.7528267741422955e-06  4.9870170600679120e-06  3.4725840651070126e-06  2.1661108190471754e-06  1.0334822597926512e-06  4.7675007925098165e-08  -8.1287167291669773e-07  -1.5654691479421711e-06  -2.2240923064182884e-06  -2.8000725821324861e-06  -3.3026283296186793e-06  -3.7392737029833155e-06  -4.1161356596832076e-06  -4.4382010785421595e-06  -4.7095098068376510e-06  -4.9333057801840722e-06  -5.1121548436347120e-06  -5.2480361399859645e-06  -5.3424120068356484e-06  -5.3962798594652644e-06  -5.4102089166102974e-06  -5.3843636623427665e-06  -5.3185153126496468e-06  -5.2120415928123956e-06  -5.0639157619692003e-06  -4.8726836037395791e-06  -4.6364283519729582e-06  -4.3527217060535202e-06  -4.0185591481127473e-06  -3.6302768187897640e-06  -3.1834459308196719e-06  -2.6727405848326170e-06  -2.0917719477696019e-06  -1.4328811314448811e-06  -6.8687966811473980e-07  1.5727616312344552e-07  1.1128956881532515e-06  2.1960734580005092e-06  3.4263501575304403e-06  4.8275581819222605e-06  6.4289097358792065e-06  8.2664060072764254e-06  1.0384673589019957e-05  1.2839372898615856e-05  1.5700377240413921e-05  1.9055994216392770e-05  2.3018601607772783e-05  2.7732204370927775e-05  3.3382593424675237e-05  4.0210994628294578e-05  4.8532306398810907e-05  5.8759120231587738e-05  7.1432398808732582e-05  8.7258180736958559e-05  1.0714518265584208e-04  1.3222689202640873e-04  1.6382962774435722e-04  2.0334107354373092e-04  2.5221694755527891e-04  3.1587501293748867e-04  4.7346372204010319e-04  1.9527213904348708e-03  1.8161280760948736e-02  1.2963518010835154e-01  7.3270810785031754e-02  1.0523907819292701e+02  2.1204357969470783e+02  3.1821835580726145e+02  4.2436455825986172e+02  5.3050302389229682e+02  6.3663459775433432e+02  7.4276220398147302e+02  8.4888741622147836e+02  9.5501108513927761e+02  1.0611337279056161e+03  1.1672556810037788e+03  1.2733771754517352e+03  1.3794983777592411e+03  1.4856194133983963e+03  1.5917403809187429e+03  1.6978613608050148e+03  1.8039824212456560e+03  1.9101036220165977e+03  2.0162250171778355e+03  2.1223466570013161e+03  2.2284685893894830e+03  2.3345908609496078e+03  2.4407135178318244e+03  2.5468366064031270e+03  2.6529601738066344e+03  2.7590842684406134e+03  2.8652089403816799e+03  2.9713342417701256e+03  3.0774602271704575e+03  3.1835869539171717e+03  3.2897144824535626e+03  3.3958428766696538e+03  3.5019722042443368e+03  3.6081025369958602e+03  3.7142339512444269e+03  3.8203665281900730e+03  3.9265003543088383e+03  4.0326355217700725e+03  4.1387721288776156e+03  4.2449102805371958e+03  4.3510500887542703e+03  4.4571916731623696e+03  4.5633351615871907e+03  4.6694806906487938e+03  4.7756284064034917e+03  4.8817784650321000e+03  4.9879310335755508e+03  5.0940862907209721e+03  5.2002444276448559e+03  5.3064056489154400e+03  5.4125701734598579e+03  5.5187382356022017e+03  5.6249100861753759e+03  5.7310859937139830e+03  5.8372662457351298e+03  5.9434511501118686e+03  6.0496410365496213e+03  6.1558362581710826e+03  6.2620371932193138e+03  6.3682442468871695e+03  6.4744578532861033e+03  6.5806784775622764e+03  6.6869066181740463e+03  6.7931428093435379e+03  6.8993876236958004e+03  7.0056416751026063e+03  7.1119056217482739e+03  7.2181801694349042e+03  7.3244660751487263e+03  7.4307641509109981e+03  7.5370752679362913e+03  7.6434003611290645e+03  7.7497404339473924e+03  7.8560965636658984e+03  7.9624699070783718e+03  8.0688617066797651e+03  8.1752732973736138e+03  8.2817061137583969e+03  8.3881616980477702e+03  8.4946417086887486e+03  8.6011479297522346e+03  8.7076822811741295e+03  8.8142468299393931e+03  8.9208438023121125e+03  9.0274755972248622e+03  9.1341448009616652e+03  9.2408542032829464e+03  9.3476068151635409e+03  9.4544058883370435e+03  9.5612549368713571e+03  9.6681577610311560e+03  9.7751184737232998e+03  9.8821415298674110e+03  9.9892317590888870e+03  1.0096394402196238e+04  1.0203635151984159e+04  1.0310960198995746e+04  1.0418376282990395e+04  1.0525890751000386e+04  1.0633511623024035e+04  1.0741247666606736e+04  1.0849108481806274e+04  1.0957104598348633e+04  1.1065247587157761e+04  1.1173550188918494e+04  1.1282026462928099e+04  1.1390691960247163e+04  1.1499563926123319e+04  1.1608661537898191e+04  1.1718006186211027e+04  1.1827621809407197e+04  1.1937535293823432e+04  1.2047776956308464e+04  1.2158381130300768e+04  1.2269386883558342e+04  1.2380838904986296e+04  1.2492788611103986e+04  1.2605295541308140e+04  1.2718429137985780e+04  1.2832271047104929e+04  1.2946918134282110e+04  1.3062486502363776e+04  1.3179116939529082e+04  1.3296982457479731e+04  1.3416298962177705e+04  1.3537340756508458e+04  1.3660463742921052e+04  1.3786141354232943e+04  1.3915022361380661e+04  1.4048028203185284e+04  1.4186532069746103e+04  1.4332726581383788e+04  1.4489881229410708e+04  1.4657489673999940e+04  1.4812183036886681e+04  1.4925893974745117e+04  1.5004420322871723e+04  1.5061819099040702e+04  1.5129425229368357e+04  1.5196271157874737e+04  1.5259740404508608e+04  1.5322942467887533e+04  1.5387731613178228e+04  1.5453930759275805e+04  1.5520924706118778e+04  1.5588009251236386e+04  1.5654724460644033e+04  1.5721016428862144e+04  1.5786663161256220e+04  1.5850699489629584e+04  1.5911743350659728e+04  1.5970436077806786e+04  1.6031449319352509e+04  1.6097002835789021e+04  1.6164791321888208e+04  1.6240928953752524e+04  1.6346653195874031e+04  1.6480386807828501e+04  1.6560025426273274e+04  1.6642120823419249e+04  1.6720283251660181e+04  1.6797318162846535e+04  1.6877702843661060e+04  1.6961100420436193e+04  1.7041764620033169e+04  1.7116709588772312e+04  1.7187387050375462e+04  1.7255182812249899e+04  1.7322837879065275e+04  1.7406452957004396e+04  1.7519093068628259e+04  1.7615163166153267e+04  1.7700970807904945e+04  1.7779439131819825e+04  1.7853537531751881e+04  1.7920166593124490e+04  1.8019429935189150e+04  1.8101387144796285e+04  1.8162793833373536e+04  1.8256332771260022e+04  1.8337004007229280e+04  1.8398127111105434e+04  1.8488524198201554e+04  1.8566861005421859e+04  1.8627124733328019e+04  1.8710359318795287e+04  1.8807973710245886e+04  2.5928824364952350e+04  1.8953448443551039e+04  1.9058420467002448e+04  2.6278731245988576e+04  1.9212892857566148e+04  1.9328307831128535e+04  2.6660690342852315e+04  1.9492977547558719e+04  1.9601472887033560e+04  2.7052835468396548e+04  1.9806124852104433e+04  1.9887756857522309e+04  2.7403210140245286e+04  2.0020457261640728e+04  2.0092182422578488e+04  2.7690061535979341e+04  2.7764504288185286e+04  2.0258029397646998e+04  2.7851081934855974e+04  2.7903545185849223e+04  2.0353792583454804e+04  2.0383210206953816e+04  2.8025818801618963e+04  2.0438068201801558e+04  2.0459159931364633e+04  2.8107652061041426e+04  2.0492743609661244e+04  2.8153387742088540e+04  2.0522880707875393e+04  2.0544885246028047e+04  2.0563284321669580e+04  2.0582141740422725e+04  2.0602180046603873e+04  2.0621990817956936e+04  2.0641044048817548e+04  2.0659351117504422e+04  2.0676840502082730e+04  2.0694131192515306e+04  2.0712602494886625e+04  2.0731486699774130e+04  2.0750026952149554e+04  2.0767684094180968e+04  2.0784315629428093e+04  2.0801110976835153e+04  2.0816900133348965e+04  2.0828547859675167e+04  2.0842575797309339e+04  2.0858411870574644e+04  2.8651840554166920e+04  2.8669474452602044e+04  2.8689238085097135e+04  2.8709844572706359e+04  2.8708752833753151e+04  2.8708014391409426e+04  2.8707337088074888e+04  2.8706659442505883e+04  2.8705975823036690e+04  2.8705291425892530e+04  2.8704612977230874e+04  2.8703946860347129e+04  2.8703298713422573e+04  2.8702673364244176e+04  2.8702074857807089e+04  2.8701506511094696e+04  2.8700970975570297e+04  2.8700470301569669e+04  2.8700006002441223e+04  2.8699579117064281e+04  2.8699190269587660e+04  2.8698839725448710e+04  2.8698527443014100e+04  2.8698253120473117e+04  2.8698016237871008e+04  2.8697816094369886e+04  2.8697651840967857e+04  2.8697522508999886e+04  2.8697427034794397e+04  2.8697364280879483e+04  2.8697333054130460e+04  2.8697332121233194e+04  2.8697360221810948e+04  2.8697416079532308e+04  2.8697498411483572e+04  2.8697605936057327e+04  2.8697737379577178e+04  2.8697891481849943e+04  2.8698067000811174e+04  2.8698262716405654e+04  2.8698477433825450e+04  2.8698709986209768e+04  2.8698959236895571e+04  2.8699224081295761e+04  2.8699503448470095e+04  2.8699796302445269e+04  2.8700101643332637e+04  2.8700418508286046e+04  2.8700745972337136e+04  2.8701083149141174e+04  2.8701429191663799e+04  2.8701783292836091e+04  2.8702144686204745e+04  2.8702512646602601e+04  2.8702886490864690e+04  2.8703265578615948e+04  2.8703649313157617e+04  2.8704037142481258e+04  2.8704428560442058e+04  2.8704823108127002e+04  2.8705220375457393e+04  2.8705620003071395e+04  2.8706021684538573e+04  2.8706425168967515e+04  2.8706830264076118e+04  2.8707236839807090e+04  2.8707644832583392e+04  2.8708054250314199e+04  2.8708465178277158e+04  2.8708877786020461e+04  2.8709292335441103e+04  2.8709709190204612e+04  2.8710128826665241e+04  2.8710551846410530e+04  2.8710978990467644e+04  2.8711411155022506e+04  2.8711849408146183e+04  2.8712295006360015e+04  2.8712749408686035e+04  2.8713214283766643e+04  2.8713691502177186e+04  2.8714183100615897e+04  2.8714691197255459e+04  2.8715217831193382e+04  2.8715764705501646e+04  2.8716332859478447e+04  2.8716922408133567e+04  2.8717532803013077e+04  2.8718167568236182e+04  2.8718885837657410e+04  2.8720186030584206e+04  2.8699547990836454e+04  2.8698982913323674e+04  2.8698337578764691e+04  2.8697704905682036e+04  2.8697091806171440e+04  2.8696500569533626e+04  2.8695932521452523e+04  2.8695387231170800e+04  2.8694863054228186e+04  2.8694357775145509e+04  2.8693869021759336e+04  2.8693394490346909e+04  2.8692932055260055e+04  2.8692479813719434e+04  2.8692036095790412e+04  2.8691599456651660e+04  2.8691168660709125e+04  2.8690742662762550e+04  2.8690320588961527e+04  2.8689901718900357e+04  2.8689485469435331e+04  2.8689071380395355e+04  2.8688659102145044e+04  2.8688248384858463e+04  2.8687839069321981e+04  2.8687431079077902e+04  2.8687024413729261e+04  2.8686619143243024e+04  2.8686215403107319e+04  2.8685813390217452e+04  2.8685413359382401e+04  2.8685015620359027e+04  2.8684620535334463e+04  2.8684228516788644e+04  2.8683840025678572e+04  2.8683455569893627e+04  2.8683075702938379e+04  2.8682701022804205e+04  2.8682332170995844e+04  2.8681969831682170e+04  2.8681614730943085e+04  2.8681267636086541e+04  2.8680929355010547e+04  2.8680600735585722e+04  2.8680282665033898e+04  2.8679976069277123e+04  2.8679681912230633e+04  2.8679401195010199e+04  2.8679134955022360e+04  2.8678884264901157e+04  2.8678650231250795e+04  2.8678433993147228e+04  2.8678236720344375e+04  2.8678059611121935e+04  2.8677903889700858e+04  2.8677770803140251e+04  2.8677661617614554e+04  2.8677577613952468e+04  2.8677520082299056e+04  2.8677490315739629e+04  2.8677489602697675e+04  2.8677519217890040e+04  2.8677580411590428e+04  2.8677674396918119e+04  2.8677802334833224e+04  2.8677965316484737e+04  2.8678164342526015e+04  2.8678400298987937e+04  2.8678673929287350e+04  2.8678985801957173e+04  2.8679336273720535e+04  2.8679725447609435e+04  2.8680153125959394e+04  2.8680618758308829e+04  2.8681121384505077e+04  2.8681659573663219e+04  2.8682231360003490e+04  2.8682834176903449e+04  2.8683464790512422e+04  2.8684119233595829e+04  2.8684792738568362e+04  2.8685479666612169e+04  2.8686173428184309e+04  2.8686866351608769e+04  2.8687548998925526e+04  2.8688205362304016e+04  2.8688787454245983e+04  2.8689132174635630e+04  2.8679542240134586e+04  2.8679059595191684e+04  2.8678458807202955e+04  2.8677809314528917e+04  2.8677177438632963e+04  2.8676579457165295e+04  2.8676014508017426e+04  2.8675477967284991e+04  2.8674965070530965e+04  2.8674471704020521e+04  2.8673994456963846e+04  2.8673530515148635e+04  2.8673077545668097e+04  2.8672633603600771e+04  2.8672197061246436e+04  2.8671766554734302e+04  2.8671340943113624e+04  2.8670919276357316e+04  2.8670500769846978e+04  2.8670084783698159e+04  2.8669670805798745e+04  2.8669258437764005e+04  2.8668847383226395e+04  2.8668437438022589e+04  2.8668028481939426e+04  2.8667620471751878e+04  2.8667213435338836e+04  2.8666807466702765e+04  2.8666402721750223e+04  2.8665999414715057e+04  2.8665597815125759e+04  2.8665198245234187e+04  2.8664801077836037e+04  2.8664406734423872e+04  2.8664015683621968e+04  2.8663628439859622e+04  2.8663245562244985e+04  2.8662867653606329e+04  2.8662495359671066e+04  2.8662129368356418e+04  2.8661770409146931e+04  2.8661419252536383e+04  2.8661076709512417e+04  2.8660743631062487e+04  2.8660420907679953e+04  2.8660109468848153e+04  2.8659810282479619e+04  2.8659524354285077e+04  2.8659252727044848e+04  2.8658996479751968e+04  2.8658756726591633e+04  2.8658534615717108e+04  2.8658331327775162e+04  2.8658148074126821e+04  2.8657986094699463e+04  2.8657846655395235e+04  2.8657731044967204e+04  2.8657640571258518e+04  2.8657576556681088e+04  2.8657540332787492e+04  2.8657533233764269e+04  2.8657556588643634e+04  2.8657611711996044e+04  2.8657699892826186e+04  2.8657822381350281e+04  2.8657980373284176e+04  2.8658174991219828e+04  2.8658407262616172e+04  2.8658678093881135e+04  2.8658988239983049e+04  2.8659338269009924e+04  2.8659728521108467e+04  2.8660159061304061e+04  2.8660629625858663e+04  2.8661139562113931e+04  2.8661687762256835e+04  2.8662272592200323e+04  2.8662891817768759e+04  2.8663542531161576e+04  2.8664221079265655e+04  2.8664922985162724e+04  2.8665642815598570e+04  2.8666373829504209e+04  2.8667106939008590e+04  2.866