<?xml version="1.0"?>
<VTKFile type="UnstructuredGrid"  version="0.1"  >
<UnstructuredGrid>
<Piece  NumberOfPoints="21600" NumberOfCells="42542">
<Points>
<DataArray  type="Float64"  NumberOfComponents="3"  format="ascii">0 0 0  0.77 0 0  0.77 0.15 0  0 0.15 0  0.003221757322170014 0 0  0.006443514644340046 0 0  0.009665271966510193 0 0  0.01288702928868034 0 0  0.01610878661085048 0 0  0.01933054393302049 0 0  0.02255230125519027 0 0  0.02577405857735967 0 0  0.02899581589952872 0 0  0.03221757322169801 0 0  0.03543933054386744 0 0  0.03866108786603686 0 0  0.04188284518820627 0 0  0.0451046025103757 0 0  0.04832635983254521 0 0  0.05154811715471607 0 0  0.05476987447688695 0 0  0.05799163179905782 0 0  0.06121338912122846 0 0  0.06443514644339859 0 0  0.06765690376556875 0 0  0.0708786610877389 0 0  0.07410041840990904 0 0  0.0773221757320792 0 0  0.08054393305425039 0 0  0.08376569037642198 0 0  0.0869874476985936 0 0  0.09020920502076518 0 0  0.0934309623429339 0 0  0.0966527196651024 0 0  0.09987447698726967 0 0  0.1030962343094369 0 0  0.1063179916316041 0 0  0.1095397489537714 0 0  0.1127615062759386 0 0  0.1159832635981051 0 0  0.1192050209202709 0 0  0.1224267782424358 0 0  0.1256485355646001 0 0  0.1288702928867644 0 0  0.1320920502089288 0 0  0.1353138075310958 0 0  0.1385355648532632 0 0  0.1417573221754333 0 0  0.1449790794976035 0 0  0.1482008368197736 0 0  0.1514225941419428 0 0  0.1546443514641101 0 0  0.157866108786276 0 0  0.1610878661084403 0 0  0.1643096234306047 0 0  0.167531380752769 0 0  0.1707531380749333 0 0  0.1739748953970977 0 0  0.177196652719262 0 0  0.1804184100414264 0 0  0.1836401673635935 0 0  0.1868619246857611 0 0  0.1900836820079313 0 0  0.1933054393301014 0 0  0.1965271966522716 0 0  0.1997489539744406 0 0  0.2029707112966078 0 0  0.2061924686187736 0 0  0.209414225940938 0 0  0.2126359832631022 0 0  0.2158577405852666 0 0  0.219079497907431 0 0  0.2223012552295953 0 0  0.2255230125517597 0 0  0.2287447698739242 0 0  0.2319665271960914 0 0  0.2351882845182592 0 0  0.2384100418404293 0 0  0.2416317991625994 0 0  0.2448535564847696 0 0  0.2480753138069371 0 0  0.2512970711291014 0 0  0.2545188284512658 0 0  0.2577405857734302 0 0  0.2609623430955986 0 0  0.2641841004177688 0 0  0.2674058577399389 0 0  0.270627615062109 0 0  0.2738493723842792 0 0  0.2770711297064487 0 0  0.280292887028613 0 0  0.2835146443507774 0 0  0.2867364016729417 0 0  0.2899581589951061 0 0  0.2931799163172705 0 0  0.2964016736394348 0 0  0.2996234309615992 0 0  0.3028451882837672 0 0  0.3060669456059373 0 0  0.3092887029281075 0 0  0.3125104602502776 0 0  0.3157322175724478 0 0  0.3189539748946177 0 0  0.322175732216782 0 0  0.3253974895389464 0 0  0.3286192468611107 0 0  0.3318410041832751 0 0  0.3350627615054395 0 0  0.3382845188276038 0 0  0.3415062761497681 0 0  0.3447280334719325 0 0  0.3479497907940968 0 0  0.3511715481162612 0 0  0.3543933054384255 0 0  0.3576150627605947 0 0  0.3608368200827649 0 0  0.364058577404935 0 0  0.3672803347271051 0 0  0.3705020920492753 0 0  0.373723849371444 0 0  0.3769456066936084 0 0  0.3801673640157748 0 0  0.383389121337945 0 0  0.3866108786601209 0 0  0.3898326359823028 0 0  0.3930543933044846 0 0  0.3962761506266662 0 0  0.399497907948848 0 0  0.4027196652710298 0 0  0.4059414225932116 0 0  0.4091631799153934 0 0  0.4123849372375751 0 0  0.4156066945597569 0 0  0.4188284518819387 0 0  0.4220502092041222 0 0  0.4252719665263097 0 0  0.4284937238484974 0 0  0.4317154811706849 0 0  0.4349372384928725 0 0  0.4381589958150601 0 0  0.4413807531372476 0 0  0.4446025104594352 0 0  0.4478242677816181 0 0  0.4510460251037998 0 0  0.4542677824259815 0 0  0.4574895397481634 0 0  0.4607112970703451 0 0  0.4639330543925269 0 0  0.4671548117147087 0 0  0.4703765690368904 0 0  0.4735983263590722 0 0  0.4768200836812568 0 0  0.4800418410034444 0 0  0.483263598325632 0 0  0.4864853556478196 0 0  0.4897071129700028 0 0  0.4929288702921845 0 0  0.4961506276143663 0 0  0.4993723849365479 0 0  0.5025941422587239 0 0  0.5058158995809008 0 0  0.5090376569030826 0 0  0.5122594142252677 0 0  0.515481171547461 0 0  0.5187029288696494 0 0  0.5219246861918312 0 0  0.525146443514013 0 0  0.5283682008361947 0 0  0.5315899581583845 0 0  0.5348117154805778 0 0  0.5380334728027617 0 0  0.5412552301249435 0 0  0.5444769874471141 0 0  0.5476987447692853 0 0  0.550920502091467 0 0  0.5541422594136513 0 0  0.5573640167358447 0 0  0.560585774058034 0 0  0.5638075313802158 0 0  0.5670292887023975 0 0  0.5702510460245793 0 0  0.5734728033467682 0 0  0.5766945606689615 0 0  0.579916317991155 0 0  0.5831380753133483 0 0  0.5863598326355314 0 0  0.5895815899577131 0 0  0.5928033472798949 0 0  0.5960251046020785 0 0  0.5992468619242718 0 0  0.6024686192464619 0 0  0.6056903765686437 0 0  0.6089121338908206 0 0  0.6121338912129908 0 0  0.6153556485351673 0 0  0.618577405857349 0 0  0.6217991631795386 0 0  0.625020920501732 0 0  0.6282426778239159 0 0  0.6314644351460976 0 0  0.6346861924682795 0 0  0.6379079497904622 0 0  0.6411297071126555 0 0  0.6443514644348465 0 0  0.6475732217570283 0 0  0.650794979079206 0 0  0.6540167364013761 0 0  0.6572384937235518 0 0  0.6604602510457335 0 0  0.6636820083679225 0 0  0.6669037656901158 0 0  0.6701255230123004 0 0  0.6733472803344823 0 0  0.6765690376566641 0 0  0.6797907949788459 0 0  0.6830125523010393 0 0  0.686234309623231 0 0  0.6894560669454127 0 0  0.6926778242675914 0 0  0.6958995815897615 0 0  0.6991213389119363 0 0  0.7023430962341181 0 0  0.7055648535563062 0 0  0.7087866108784994 0 0  0.712008368200685 0 0  0.7152301255228668 0 0  0.7184518828450486 0 0  0.7216736401672305 0 0  0.724895397489423 0 0  0.7281171548116155 0 0  0.7313389121337973 0 0  0.7345606694559768 0 0  0.7377824267781468 0 0  0.7410041841003209 0 0  0.7442259414225026 0 0  0.7474476987446899 0 0  0.7506694560668832 0 0  0.7538912133890696 0 0  0.7571129707112513 0 0  0.760334728033433 0 0  0.7635564853556149 0 0  0.7667782426778067 0 0  0.77 0.001685393258423789 0  0.77 0.003370786516847669 0  0.77 0.005056179775271247 0  0.77 0.006741573033694517 0  0.77 0.008426966292117821 0  0.77 0.01011235955054176 0  0.77 0.01179775280896623 0  0.77 0.0134831460673904 0  0.77 0.01516853932581489 0  0.77 0.01685393258423891 0  0.77 0.01853932584266291 0  0.77 0.02022471910108589 0  0.77 0.02191011235950794 0  0.77 0.02359550561792999 0  0.77 0.02528089887635205 0  0.77 0.02696629213477411 0  0.77 0.02865168539319714 0  0.77 0.03033707865161956 0  0.77 0.03202247191004162 0  0.77 0.03370786516846367 0  0.77 0.03539325842688572 0  0.77 0.03707865168530778 0  0.77 0.03876404494372984 0  0.77 0.0404494382021519 0  0.77 0.04213483146057394 0  0.77 0.04382022471899601 0  0.77 0.04550561797741807 0  0.77 0.04719101123584013 0  0.77 0.04887640449426219 0  0.77 0.05056179775268425 0  0.77 0.0522471910111063 0  0.77 0.05393258426952837 0  0.77 0.05561797752795105 0  0.77 0.05730337078637505 0  0.77 0.05898876404479723 0  0.77 0.0606741573032193 0  0.77 0.06235955056164135 0  0.77 0.06404494382006341 0  0.77 0.06573033707848548 0  0.77 0.06741573033690752 0  0.77 0.06910112359532959 0  0.77 0.07078651685375165 0  0.77 0.0724719101121737 0  0.77 0.07415730337059653 0  0.77 0.07584269662902443 0  0.77 0.07752808988745429 0  0.77 0.07921348314588413 0  0.77 0.08089887640431678 0  0.77 0.08258426966274923 0  0.77 0.08426966292117907 0  0.77 0.08595505617960987 0  0.77 0.08764044943804362 0  0.77 0.08932584269647403 0  0.77 0.09101123595490389 0  0.77 0.09269662921333673 0  0.77 0.09438202247176901 0  0.77 0.09606741573019884 0  0.77 0.09775280898862983 0  0.77 0.09943820224706355 0  0.77 0.1011235955054938 0  0.77 0.1028089887639236 0  0.77 0.1044943820223567 0  0.77 0.1061797752807888 0  0.77 0.1078651685392186 0  0.77 0.1095505617976498 0  0.77 0.1112359550560835 0  0.77 0.1129213483145136 0  0.77 0.1146067415729456 0  0.77 0.1162921348313787 0  0.77 0.1179775280898085 0  0.77 0.1196629213482387 0  0.77 0.1213483146066724 0  0.77 0.1230337078651035 0  0.77 0.1247191011235322 0  0.77 0.1264044943819605 0  0.77 0.1280898876403903 0  0.77 0.1297752808988242 0  0.77 0.1314606741572554 0  0.77 0.1331460674156853 0  0.77 0.1348314606741154 0  0.77 0.1365168539325504 0  0.77 0.1382022471909802 0  0.77 0.13988764044941 0  0.77 0.1415730337078443 0  0.77 0.1432584269662752 0  0.77 0.144943820224705 0  0.77 0.1466292134831355 0  0.77 0.1483146067415701 0  0.7667782426778414 0.15 0  0.7635564853556813 0.15 0  0.7603347280335111 0.15 0  0.757112970711341 0.15 0  0.7538912133891708 0.15 0  0.7506694560670005 0.15 0  0.7474476987448303 0.15 0  0.7442259414226602 0.15 0  0.74100418410049 0.15 0  0.7377824267783197 0.15 0  0.7345606694561496 0.15 0  0.7313389121339794 0.15 0  0.7281171548118092 0.15 0  0.724895397489639 0.15 0  0.7216736401674688 0.15 0  0.7184518828452986 0.15 0  0.7152301255231284 0.15 0  0.7120083682009583 0.15 0  0.708786610878788 0.15 0  0.7055648535566178 0.15 0  0.7023430962344477 0.15 0  0.6991213389122775 0.15 0  0.6958995815901072 0.15 0  0.692677824267937 0.15 0  0.6894560669457669 0.15 0  0.6862343096235967 0.15 0  0.6830125523014264 0.15 0  0.6797907949792563 0.15 0  0.6765690376570861 0.15 0  0.6733472803349159 0.15 0  0.6701255230127456 0.15 0  0.6669037656905755 0.15 0  0.6636820083684053 0.15 0  0.6604602510462351 0.15 0  0.657238493724065 0.15 0  0.6540167364018947 0.15 0  0.6507949790797245 0.15 0  0.6475732217575543 0.15 0  0.644351464435384 0.15 0  0.6411297071132231 0.15 0  0.6379079497910645 0.15 0  0.634686192468906 0.15 0  0.6314644351467468 0.15 0  0.6282426778245765 0.15 0  0.6250209205024085 0.15 0  0.62179916318025 0.15 0  0.6185774058580914 0.15 0  0.6153556485359328 0.15 0  0.6121338912137689 0.15 0  0.6089121338915987 0.15 0  0.6056903765694354 0.15 0  0.6024686192472768 0.15 0  0.5992468619251182 0.15 0  0.5960251046029597 0.15 0  0.5928033472807912 0.15 0  0.589581589958621 0.15 0  0.5863598326364508 0.15 0  0.5831380753142792 0.15 0  0.5799163179920974 0.15 0  0.57669456
[...]
<PointData  Scalars="pressure"> 
<DataArray  type="Float64"  Name="pressure"  format="ascii">1.5648436874683448e+04  1.9976949779206330e+00  -1.7493438724846386e+00  1.5654889498588047e+04  1.5622572816144957e+04  1.5602926157596608e+04  1.5585578372702552e+04  1.1336547676274162e+04  1.1319789095378634e+04  1.1304621450047500e+04  1.1289588028600831e+04  1.1274663439576192e+04  1.1259823123194041e+04  1.1245046910084200e+04  1.1230322661745568e+04  1.1215642772382740e+04  1.1201002352244706e+04  1.1186398299843593e+04  1.1171828764429018e+04  1.1157292814638564e+04  1.1142790225463854e+04  1.1128321336637904e+04  1.1113886956104050e+04  1.1099488293081287e+04  1.1085126911249963e+04  1.1070804696054047e+04  1.1056523832199919e+04  1.1042286788720850e+04  1.1028096309796070e+04  1.1013955410045488e+04  1.0999867373372437e+04  1.0985835754660829e+04  1.0971864383788557e+04  1.0957957371520459e+04  1.0944119116906924e+04  1.0930354315846687e+04  1.0916667970482358e+04  1.0903065399085148e+04  1.0889552246054598e+04  1.0876134491608933e+04  1.0862818460670045e+04  1.0849610830353111e+04  1.0836518635349852e+04  1.0823549270343137e+04  1.0810710488402026e+04  1.0798010394074134e+04  1.0785457429603715e+04  1.0773060352345705e+04  1.0760828200993305e+04  1.0748770247654769e+04  1.0736895932046204e+04  1.0725214773016343e+04  1.0713736251127959e+04  1.0702469653812670e+04  1.0691423871205903e+04  1.0680607125274348e+04  1.0670026605620606e+04  1.0659687969196779e+04  1.0649594631634409e+04  1.0639746721334872e+04  1.0630139452985935e+04  1.0620760429210155e+04  1.0611584800742852e+04  1.0602565792068914e+04  1.0593614732524422e+04  1.0584551823892076e+04  1.0574834130064939e+04  1.0561993701849964e+04  1.0537796587628180e+04  1.0497040604532749e+04  1.0456305347545265e+04  1.0415187860677455e+04  1.0374098146101303e+04  1.0333269875484684e+04  1.0292908736775849e+04  1.0253268095881804e+04  1.0214777515303100e+04  1.0178346774456015e+04  1.0145170833726515e+04  1.0102999272770956e+04  1.0043428755496976e+04  9.9909172536779879e+03  9.9410232818196873e+03  9.8924989190584565e+03  9.8448584253593745e+03  9.7978498958819691e+03  9.7513266465365959e+03  9.7051966441844143e+03  9.6593987959722217e+03  9.6138906617087305e+03  9.5686415327188824e+03  9.5236282714971767e+03  9.4788326815245509e+03  9.4342397779116291e+03  9.3898366154521536e+03  9.3456114760421224e+03  9.3015532957376108e+03  9.2576512562199150e+03  9.2138944920191479e+03  9.1702718814933105e+03  9.1267719004192895e+03  9.0833825243422089e+03  9.0400911707643972e+03  8.9968846755168252e+03  8.9537492996467154e+03  8.9106707641442099e+03  8.8676343100237409e+03  8.8246247808759017e+03  8.7816267242126796e+03  8.7386245069624892e+03  8.6956024395451313e+03  8.6525449022692446e+03  8.6094364675016368e+03  8.5662620112568566e+03  8.5230068085674338e+03  8.4796566081706005e+03  8.4361976835660535e+03  8.3926168592046943e+03  8.3489015122787059e+03  8.3050395521365990e+03  8.2610193806098578e+03  8.2168298374310707e+03  8.1724601354183815e+03  8.1278997902173460e+03  8.0831385491880592e+03  8.0381663235773276e+03  7.9929731275070581e+03  7.9475490266188181e+03  7.9018840985012812e+03  7.8559684063407576e+03  7.8097919866025022e+03  7.7633448509869340e+03  7.7166170024144194e+03  7.6695984643722159e+03  7.6222793226017466e+03  7.5746497778073144e+03  7.5267002078227433e+03  7.4784212374751869e+03  7.4298038142344622e+03  7.3808392876264024e+03  7.3315194903212432e+03  7.2818368187805972e+03  7.2317843113595081e+03  7.1813557218130272e+03  7.1305455862532062e+03  7.0793492817404776e+03  7.0277630748793599e+03  6.9757841590206590e+03  6.9234106789513444e+03  6.8706417422741697e+03  6.8174774170346327e+03  6.7639187155293939e+03  6.7099675646118712e+03  6.6556267631767723e+03  6.6008999278364490e+03  6.5457914280787518e+03  6.4903063124008640e+03  6.4344502270395778e+03  6.3782293289563067e+03  6.3216501946916796e+03  6.2647197265846589e+03  6.2074450576712597e+03  6.1498334563501112e+03  6.0918922316492617e+03  6.0336286396674341e+03  5.9750497915059423e+03  5.9161625627783842e+03  5.8569735045842099e+03  5.7974887556740850e+03  5.7377139554248661e+03  5.6776541571760108e+03  5.6173137414641233e+03  5.5566963287242888e+03  5.4958046910963894e+03  5.4346406630936044e+03  5.3732050510383979e+03  5.3114975413574693e+03  5.2495166080483359e+03  5.1872594198732386e+03  5.1247217481157768e+03  5.0618978760346245e+03  4.9987805114709508e+03  4.9353607044092905e+03  4.8716277716417108e+03  4.8075692310412414e+03  4.7431707482944985e+03  4.6784160992587185e+03  4.6132871513800892e+03  4.5477638678008852e+03  4.4818243378757825e+03  4.4154448377714871e+03  4.3485999246048432e+03  4.2812625671593159e+03  4.2134043155704430e+03  4.1449955114772738e+03  4.0760055389990798e+03  4.0064031155215071e+03  3.9361566197166171e+03  3.8652344525276135e+03  3.7936054251175624e+03  3.7212391661193001e+03  3.6481065390443523e+03  3.5741800595478558e+03  3.4994343015114860e+03  3.4238462806864882e+03  3.3473958050017345e+03  3.2700657815851182e+03  3.1918424720373264e+03  3.1127156894538107e+03  3.0326789329705830e+03  2.9517294580724720e+03  2.8698682833665239e+03  2.7871001368329721e+03  2.7034333465838972e+03  2.6188796827701444e+03  2.5334541584301919e+03  2.4471747977451168e+03  2.3600623803664548e+03  2.2721401702871708e+03  2.1834336371876057e+03  2.0939701773989373e+03  2.0037788406832328e+03  1.9128900679919775e+03  1.8213354443238507e+03  1.7291474697988101e+03  1.6363593511434769e+03  1.5430048149764916e+03  1.4491179435966137e+03  1.3547330334350693e+03  1.2598844759445385e+03  1.1646066604744258e+03  1.0689338986907976e+03  9.7290037044361088e+02  8.7654009194343143e+02  7.7988690942864605e+02  6.8297452700731526e+02  5.8583658935662959e+02  4.8850687923460094e+02  3.9102002548472075e+02  2.9341382005560587e+02  1.9572019374570419e+02  9.7958583942141075e+01  4.1554777994217795e-01  2.0819143977988421e-02  3.3093366903914037e-03  8.2261598058131922e-04  -1.0964404475279224e-03  -2.4848177652513999e-03  -3.5705339569588605e-03  -4.5045831328921959e-03  -5.3582918118161666e-03  -6.1661829999438396e-03  -6.9459574613331227e-03  -7.7071164876747738e-03  -8.4549304146687761e-03  -9.1923728069017649e-03  -9.9211098472874286e-03  -1.0642029014356333e-02  -1.1355532942322092e-02  -1.2061708624269255e-02  -1.2760427939699500e-02  -1.3451409064221832e-02  -1.4134254925671502e-02  -1.4808477837028423e-02  -1.5473515619258436e-02  -1.6128742391608261e-02  -1.6773475979694159e-02  -1.7406983167233075e-02  -1.8028483580094994e-02  -1.8637152721290216e-02  -1.9232124505884525e-02  -1.9812493535313298e-02  -2.0377317279468354e-02  -2.0925618286623298e-02  -2.1456386509713356e-02  -2.1968581814090317e-02  -2.2461136716119955e-02  -2.2932959389251599e-02  -2.3382936966085191e-02  -2.3809939156628723e-02  -2.4212822196545841e-02  -2.4590433133800837e-02  -2.4941614456692178e-02  -2.5265209060741825e-02  -2.5560065546560679e-02  -2.5825043835625471e-02  -2.6059021084290271e-02  -2.6260897872194506e-02  -2.6429604631709215e-02  -2.6564108281263019e-02  -2.6663419017741677e-02  -2.6726597214998215e-02  -2.6752760368760856e-02  -2.6741090022688468e-02  -2.6690838601603629e-02  -2.6601336070380115e-02  -2.6471996334629211e-02  -2.6302323290691626e-02  -2.6091916428662678e-02  -2.5840475889247781e-02  -2.5547806872862358e-02  -2.5213823297248205e-02  -2.4838550597608876e-02  -2.4422127565438833e-02  -2.3964807118453300e-02  -2.3466955890038492e-02  -2.2929052521311624e-02  -2.2351684524384002e-02  -2.1735543561894333e-02  -2.1081418947826794e-02  -2.0390189118836062e-02  -1.9662810732033874e-02  -1.8900304919333973e-02  -1.8103740059369742e-02  -1.7274210213466753e-02  -1.6412808156832059e-02  -1.5520591839025750e-02  -1.4598543452904761e-02  -1.3647521913936308e-02  -1.2668214403846046e-02  -1.1661104787370419e-02  -1.0626500445869493e-02  -9.5646653837943435e-03  -8.4757925854449245e-03  -7.3556798870739572e-03  -6.1192988044113097e-03  -3.4296020228215787e-03  1.5291652443151459e-02  1.3745224582584026e-01  7.7852073368749330e-02  1.1432216075345718e+02  2.3039435270381969e+02  3.4587809780465324e+02  4.6147477050229219e+02  5.7725651389193138e+02  6.9327482775546389e+02  8.0958494382872505e+02  9.2624239239040992e+02  1.0433039593299397e+03  1.1608283680538436e+03  1.2788766715531756e+03  1.3975125065296907e+03  1.5168022256642696e+03  1.6368148805150383e+03  1.7576219970701929e+03  1.8792970517377498e+03  2.0019145117506037e+03  2.1255482460991238e+03  2.2502690384306479e+03  2.3761408439855277e+03  2.5032153437170300e+03  2.6315243072156604e+03  2.7610694010766629e+03  2.8918096397286436e+03  3.0236481852895349e+03  3.1564236463339153e+03  3.2899215469258811e+03  3.4239494820965933e+03  3.5582427390124853e+03  3.6890365118620680e+03  3.7973748879554569e+03  3.8655660178886737e+03  3.9146319527893547e+03  3.9392356857906389e+03  3.9592028221629098e+03  3.9887195950336550e+03  4.0151293055330093e+03  4.0408403694081094e+03  4.0662085936093649e+03  4.0963087009146593e+03  4.1315386669024656e+03  4.1645370388208403e+03  4.1966968301704292e+03  4.2289853403158295e+03  4.2636156084308996e+03  4.3046919364293854e+03  4.3470314338766157e+03  4.3805490837620928e+03  4.4151315669707574e+03  4.4568394304209969e+03  4.5081151824939016e+03  4.5587348412907277e+03  4.6101906318249003e+03  4.6633707345179491e+03  4.7185720803721033e+03  4.7761699942378636e+03  4.8363645548622353e+03  4.8993294737998631e+03  4.9652897834323057e+03  5.0346337654567897e+03  5.1081973909646613e+03  5.1873646819669111e+03  5.2707756734143195e+03  5.3440979711634454e+03  5.3971655017980065e+03  5.4566949209465201e+03  5.5201246831431135e+03  5.5893205796080574e+03  7.7628669355545799e+03  7.8502184042033887e+03  7.9418624094159732e+03  8.0332475901223606e+03  8.1194347530350951e+03  5.9881638309153286e+03  8.3120998905681226e+03  8.3905400107269961e+03  6.1814269897001432e+03  8.5721880633928758e+03  8.6467184303806298e+03  6.3652340339674811e+03  8.8220018900848700e+03  8.8951939900529160e+03  6.5457392382049184e+03  9.0698845411557650e+03  9.1432192337643592e+03  6.7263388177100160e+03  9.3169866433332973e+03  9.3890313113126176e+03  6.9035129450790591e+03  9.5572814998463218e+03  9.6297189795955619e+03  9.7028416294401050e+03  9.7730149214618959e+03  9.8366016580725081e+03  7.2161879842328135e+03  7.2672115505600277e+03  1.0035093171822135e+04  1.0086267683327860e+04  7.3904405294889684e+03  7.4340998414925525e+03  1.0258378015933860e+04  1.0312086776257527e+04  7.5631281399132395e+03  7.6038275376246802e+03  1.0482727145379842e+04  7.6737244940676810e+03  1.0588601235847922e+04  7.7634226698857647e+03  1.0719741538317599e+04  1.0778517849221744e+04  7.8931320970719762e+03  1.0893404135546758e+04  1.0948896298228445e+04  8.0158680861433131e+03  1.1051926346017141e+04  8.0898453935046919e+03  1.1157637507177775e+04  1.1203372491316923e+04  8.2010620157497870e+03  8.2433234362622279e+03  1.1367323325866391e+04  1.1413710427740103e+04  8.3562818880778141e+03  1.1524288100329115e+04  1.1570372651961003e+04  8.4684531158853424e+03  8.5105312376967413e+03  1.1733706937607523e+04  1.1779603498677710e+04  8.6223454614745406e+03  1.1889365026215977e+04  1.1938261665376256e+04  1.1989047983959519e+04  1.2039539445327531e+04  1.2087312837060847e+04  8.8463024461195291e+03  1.2196045761639396e+04  1.2241712830993629e+04  8.9588381938471975e+03  1.2351370048630850e+04  1.2400596212260007e+04  1.2451959797685533e+04  1.2503214765916442e+04  1.2551641715775040e+04  9.1837249264982383e+03  9.2264229145447662e+03  1.2717449212093989e+04  1.2764582648356312e+04  9.3415021649943210e+03  1.2879587078286449e+04  1.2933366413569645e+04  1.2993533129458094e+04  1.3043963347706129e+04  9.5316829448773060e+03  9.5692769110380596e+03  9.6051505157286228e+03  9.6412231345693526e+03  9.6773864583853556e+03  9.7134959452992807e+03  9.7494619633271141e+03  9.7852011077480147e+03  9.8206264393044003e+03  9.8556428126029859e+03  9.8901450883658399e+03  9.9240233937207140e+03  9.9571878072597774e+03  9.9896259707657846e+03  1.0021444516003070e+04  1.0052752911567741e+04  1.0083568561539942e+04  1.0114241185585333e+04  1.0146306373069181e+04  1.0185664385040984e+04  1.0232295217596209e+04  1.0256353054549729e+04  1.0282371199715995e+04  1.0306313469267996e+04  1.0328733309130963e+04  1.0350415123194949e+04  1.0371673664296464e+04  1.0392921149155194e+04  1.0413851244363079e+04  1.0436379025788186e+04  1.0463148930615756e+04  1.0479583792851965e+04  1.0504557371109953e+04  1.0537210403597022e+04  1.0558265791900832e+04  1.4518797665900194e+04  1.0607322376428474e+04  1.0630693370377798e+04  1.4612914963239442e+04  1.0662398368987293e+04  1.0683602371116936e+04  1.4686000610762314e+04  1.0715780560745783e+04  1.0734940652400888e+04  1.4754671817328688e+04  1.4769152594722524e+04  1.0774049663717278e+04  1.4813414039360785e+04  1.4839905249250656e+04  1.0824153007213657e+04  1.0844667156404208e+04  1.0861106667080086e+04  1.4931226686648712e+04  1.0895942319498807e+04  1.0914971469339618e+04  1.0930828065481897e+04  1.5024212663637867e+04  1.0957275232431562e+04  1.0977120472521565e+04  1.0993567076960504e+04  1.1009279705654686e+04  1.1022989196132445e+04  1.1034357488040499e+04  1.1051373956689615e+04  1.1067093423596227e+04  1.1083778825243578e+04  1.1101798367191528e+04  1.1119838647526745e+04  1.1137384332658599e+04  1.1154407371028594e+04  1.1170819341349501e+04  1.1187196971638943e+04  1.1204814364990847e+04  1.1222916425393625e+04  1.1240771483256767e+04  1.1257852159261151e+04  1.1274020313077768e+04  1.1290419770204542e+04  1.1305886765461995e+04  1.1317347791960216e+04  1.1331190333373592e+04  1.1346862406148019e+04  1.5594696757245021e+04  1.5612237587895152e+04  1.5631940221814979e+04  1.5652526334576985e+04  1.5651418175040299e+04  1.5650650680919225e+04  1.5649931554216673e+04  1.5649199084243226e+04  1.5648447404670864e+04  1.5647681518191479e+04  1.5646908013704478e+04  1.5646133196462357e+04  1.5645362685197697e+04  1.5644601345413161e+04  1.5643853315317398e+04  1.5643122058684196e+04  1.5642410425088548e+04  1.5641720711687301e+04  1.5641054724426334e+04  1.5640413837372682e+04  1.5639799049090892e+04  1.5639211035198588e+04  1.5638650196507821e+04  1.5638116702437797e+04  1.5637610529629357e+04  1.5637131495881871e+04  1.5636679289668087e+04  1.5636253495567587e+04  1.5635853616004481e+04  1.5635479089690620e+04  1.5635129307169760e+04  1.5634803623837939e+04  1.5634501370787515e+04  1.5634221863789511e+04  1.5633964410694867e+04  1.5633728317501764e+04  1.5633512893304922e+04  1.5633317454313097e+04  1.5633141327095194e+04  1.5632983851192093e+04  1.5632844381210911e+04  1.5632722288500780e+04  1.5632616962494048e+04  1.5632527811784203e+04  1.5632454265000495e+04  1.5632395771530646e+04  1.5632351802135070e+04  1.5632321849490001e+04  1.5632305428691967e+04  1.5632302077751998e+04  1.5632311358104815e+04  1.5632332855156388e+04  1.5632366178891403e+04  1.5632410964561701e+04  1.5632466873476613e+04  1.5632533593916763e+04  1.5632610842194284e+04  1.5632698363884174e+04  1.5632795935254688e+04  1.5632903364928083e+04  1.5633020495807630e+04  1.5633147207312539e+04  1.5633283417969591e+04  1.5633429088418117e+04  1.5633584224895247e+04  1.5633748883279650e+04  1.5633923173785353e+04  1.5634107266412213e+04  1.5634301397275434e+04  1.5634505875952909e+04  1.5634721094002727e+04  1.5634947534810844e+04  1.5635185784921354e+04  1.5635436546965868e+04  1.5635700654218734e+04  1.5635979086615440e+04  1.5636272987708648e+04  1.5636583681364511e+04  1.5636912685802699e+04  1.5637261720498396e+04  1.5637632697969115e+04  1.5638027686975740e+04  1.5638448826189371e+04  1.5638898160935953e+04  1.5639377382150062e+04  1.5639887492991335e+04  1.5640428541876763e+04  1.5640999877848000e+04  1.5641604879566112e+04  1.5642302469669507e+04  1.5643590725833688e+04  1.5622941570274405e+04  1.5622387962880406e+04  1.5621763013465503e+04  1.5621159866295086e+04  1.5620585638323984e+04  1.5620042769255415e+04  1.5619532682937635e+04  1.5619055004665113e+04  1.5618608115963849e+04  1.5618189805936177e+04  1.5617797691134310e+04  1.5617429444131409e+04  1.5617082905267005e+04  1.5616756128699168e+04  1.5616447393086239e+04  1.5616155194198091e+04  1.5615878229129747e+04  1.5615615377401629e+04  1.5615365681733922e+04  1.5615128329877703e+04  1.5614902638109497e+04  1.5614688036576106e+04  1.5614484056460617e+04  1.5614290318836327e+04  1.5614106525034069e+04  1.5613932448340060e+04  1.5613767926849576e+04  1.5613612857317832e+04  1.5613467189867728e+04  1.5613330923432803e+04  1.5613204101830755e+04  1.5613086810378250e+04  1.5612979172971100e+04  1.5612881349565188e+04  1.5612793534003446e+04  1.5612715952141898e+04  1.5612648860234780e+04  1.5612592543544153e+04  1.5612547315143789e+04  1.5612513514890778e+04  1.5612491508540907e+04  1.5612481686985875e+04  1.5612484465591606e+04  1.5612500283617659e+04  1.5612529603697518e+04  1.5612572911359042e+04  1.5612630714562869e+04  1.5612703543234386e+04  1.5612791948762228e+04  1.5612896503432108e+04  1.5613017799760242e+04  1.5613156449684520e+04  1.5613313083564270e+04  1.5613488348930692e+04  1.5613682908919491e+04  1.5613897440304632e+04  1.5614132631037421e+04  1.5614389177177785e+04  1.5614667779084524e+04  1.5614969136708256e+04  1.5615293943804370e+04  1.5615642880854031e+04  1.5616016606448660e+04  1.5616415746858356e+04  1.5616840883468481e+04  1.5617292537732195e+04  1.5617771153253305e+04  1.5618277074586860e+04  1.5618810522329684e+04  1.5619371564076544e+04  1.5619960080849320e+04  1.5620575728676935e+04  1.5621217895126520e+04  1.5621885650773096e+04  1.5622577695856191e+04  1.5623292302702375e+04  1.5624027254858755e+04  1.5624779784181894e+04  1.5625546507134994e+04  1.5626323360883045e+04  1.5627105538124400e+04  1.5627887417662683e+04  1.5628662486368999e+04  1.5629423209925508e+04  1.5630160352510024e+04  1.5630858178954999e+04  1.5631469045710617e+04  1.5631830217594366e+04  1.5602892577060173e+04  1.5602419990366347e+04  1.5601838377531896e+04  1.5601217362911977e+04  1.5600623616545257e+04  1.5600073534496063e+04  1.5599566281909691e+04  1.5599097232515682e+04  1.5598661607505574e+04  1.5598255271479724e+04  1.5597874785787175e+04  1.5597517302287461e+04  1.5597180447965369e+04  1.5596862231432830e+04  1.5596560971954668e+04  1.5596275245814395e+04  1.5596003845127181e+04  1.5595745745530374e+04  1.5595500080322206e+04  1.5595266119410982e+04  1.5595043251951913e+04  1.5594830971879104e+04  1.5594628865755180e+04  1.5594436602504713e+04  1.5594253924696815e+04  1.5594080641113645e+04  1.5593916620393897e+04  1.5593761785580642e+04  1.5593616109433871e+04  1.5593479610392737e+04  1.5593352349092178e+04  1.5593234425354645e+04  1.5593125975590498e+04  1.5593027170551361e+04  1.5592938213389367e+04  1.5592859337982318e+04  1.5592790807490710e+04  1.5592732913117194e+04  1.5592685973042959e+04  1.5592650331518495e+04  1.5592626358088513e+04  1.5592614446932532e+04  1.5592615016303720e+04  1.5592628508049209e+04  1.5592655387194933e+04  1.5592696141577704e+04  1.5592751281506091e+04  1.5592821339429682e+04  1.5592906869594231e+04  1.5593008447656664e+04  1.5593126670229929e+04  1.5593262154322620e+04  1.5593415536631826e+04  1.5593587472640067e+04  1.5593778635457846e+04  1.5593989714342075e+04  1.5594221412807312e+04  1.5594474446230661e+04  1.5594749538832304e+04  1.5595047419891263e+04  1.5595368819029745e+04  1.5595714460368939e+04  1.5596085055324027e+04  1.5596481293765999e+04  1.5596903833232860e+04  1.5597353285823772e+04  1.5597830202356656e+04  1.5598335053316599e+04  1.5598868206071298e+04  1.5599429897787864e+04  1.5600020203461212e+04  1.5600638998472103e+04  1.5601285915153745e+04  1.5601960292991011e+04  1.5602661122352014e+04  1.5603386982122120e+04  1.5604135972338450e+04  1.5604905643882317e+04  1.5605692928019884e+04  1.5606494067118989e+04  1.5607304537613070e+04  1.5608118917819897e+04  1