<?xml version="1.0"?>
<VTKFile type="UnstructuredGrid"  version="0.1"  >
<UnstructuredGrid>
<Piece  NumberOfPoints="21600" NumberOfCells="42542">
<Points>
<DataArray  type="Float64"  NumberOfComponents="3"  format="ascii">0 0 0  0.77 0 0  0.77 0.15 0  0 0.15 0  0.003221757322170014 0 0  0.006443514644340046 0 0  0.009665271966510193 0 0  0.01288702928868034 0 0  0.01610878661085048 0 0  0.01933054393302049 0 0  0.02255230125519027 0 0  0.02577405857735967 0 0  0.02899581589952872 0 0  0.03221757322169801 0 0  0.03543933054386744 0 0  0.03866108786603686 0 0  0.04188284518820627 0 0  0.0451046025103757 0 0  0.04832635983254521 0 0  0.05154811715471607 0 0  0.05476987447688695 0 0  0.05799163179905782 0 0  0.06121338912122846 0 0  0.06443514644339859 0 0  0.06765690376556875 0 0  0.0708786610877389 0 0  0.07410041840990904 0 0  0.0773221757320792 0 0  0.08054393305425039 0 0  0.08376569037642198 0 0  0.0869874476985936 0 0  0.09020920502076518 0 0  0.0934309623429339 0 0  0.0966527196651024 0 0  0.09987447698726967 0 0  0.1030962343094369 0 0  0.1063179916316041 0 0  0.1095397489537714 0 0  0.1127615062759386 0 0  0.1159832635981051 0 0  0.1192050209202709 0 0  0.1224267782424358 0 0  0.1256485355646001 0 0  0.1288702928867644 0 0  0.1320920502089288 0 0  0.1353138075310958 0 0  0.1385355648532632 0 0  0.1417573221754333 0 0  0.1449790794976035 0 0  0.1482008368197736 0 0  0.1514225941419428 0 0  0.1546443514641101 0 0  0.157866108786276 0 0  0.1610878661084403 0 0  0.1643096234306047 0 0  0.167531380752769 0 0  0.1707531380749333 0 0  0.1739748953970977 0 0  0.177196652719262 0 0  0.1804184100414264 0 0  0.1836401673635935 0 0  0.1868619246857611 0 0  0.1900836820079313 0 0  0.1933054393301014 0 0  0.1965271966522716 0 0  0.1997489539744406 0 0  0.2029707112966078 0 0  0.2061924686187736 0 0  0.209414225940938 0 0  0.2126359832631022 0 0  0.2158577405852666 0 0  0.219079497907431 0 0  0.2223012552295953 0 0  0.2255230125517597 0 0  0.2287447698739242 0 0  0.2319665271960914 0 0  0.2351882845182592 0 0  0.2384100418404293 0 0  0.2416317991625994 0 0  0.2448535564847696 0 0  0.2480753138069371 0 0  0.2512970711291014 0 0  0.2545188284512658 0 0  0.2577405857734302 0 0  0.2609623430955986 0 0  0.2641841004177688 0 0  0.2674058577399389 0 0  0.270627615062109 0 0  0.2738493723842792 0 0  0.2770711297064487 0 0  0.280292887028613 0 0  0.2835146443507774 0 0  0.2867364016729417 0 0  0.2899581589951061 0 0  0.2931799163172705 0 0  0.2964016736394348 0 0  0.2996234309615992 0 0  0.3028451882837672 0 0  0.3060669456059373 0 0  0.3092887029281075 0 0  0.3125104602502776 0 0  0.3157322175724478 0 0  0.3189539748946177 0 0  0.322175732216782 0 0  0.3253974895389464 0 0  0.3286192468611107 0 0  0.3318410041832751 0 0  0.3350627615054395 0 0  0.3382845188276038 0 0  0.3415062761497681 0 0  0.3447280334719325 0 0  0.3479497907940968 0 0  0.3511715481162612 0 0  0.3543933054384255 0 0  0.3576150627605947 0 0  0.3608368200827649 0 0  0.364058577404935 0 0  0.3672803347271051 0 0  0.3705020920492753 0 0  0.373723849371444 0 0  0.3769456066936084 0 0  0.3801673640157748 0 0  0.383389121337945 0 0  0.3866108786601209 0 0  0.3898326359823028 0 0  0.3930543933044846 0 0  0.3962761506266662 0 0  0.399497907948848 0 0  0.4027196652710298 0 0  0.4059414225932116 0 0  0.4091631799153934 0 0  0.4123849372375751 0 0  0.4156066945597569 0 0  0.4188284518819387 0 0  0.4220502092041222 0 0  0.4252719665263097 0 0  0.4284937238484974 0 0  0.4317154811706849 0 0  0.4349372384928725 0 0  0.4381589958150601 0 0  0.4413807531372476 0 0  0.4446025104594352 0 0  0.4478242677816181 0 0  0.4510460251037998 0 0  0.4542677824259815 0 0  0.4574895397481634 0 0  0.4607112970703451 0 0  0.4639330543925269 0 0  0.4671548117147087 0 0  0.4703765690368904 0 0  0.4735983263590722 0 0  0.4768200836812568 0 0  0.4800418410034444 0 0  0.483263598325632 0 0  0.4864853556478196 0 0  0.4897071129700028 0 0  0.4929288702921845 0 0  0.4961506276143663 0 0  0.4993723849365479 0 0  0.5025941422587239 0 0  0.5058158995809008 0 0  0.5090376569030826 0 0  0.5122594142252677 0 0  0.515481171547461 0 0  0.5187029288696494 0 0  0.5219246861918312 0 0  0.525146443514013 0 0  0.5283682008361947 0 0  0.5315899581583845 0 0  0.5348117154805778 0 0  0.5380334728027617 0 0  0.5412552301249435 0 0  0.5444769874471141 0 0  0.5476987447692853 0 0  0.550920502091467 0 0  0.5541422594136513 0 0  0.5573640167358447 0 0  0.560585774058034 0 0  0.5638075313802158 0 0  0.5670292887023975 0 0  0.5702510460245793 0 0  0.5734728033467682 0 0  0.5766945606689615 0 0  0.579916317991155 0 0  0.5831380753133483 0 0  0.5863598326355314 0 0  0.5895815899577131 0 0  0.5928033472798949 0 0  0.5960251046020785 0 0  0.5992468619242718 0 0  0.6024686192464619 0 0  0.6056903765686437 0 0  0.6089121338908206 0 0  0.6121338912129908 0 0  0.6153556485351673 0 0  0.618577405857349 0 0  0.6217991631795386 0 0  0.625020920501732 0 0  0.6282426778239159 0 0  0.6314644351460976 0 0  0.6346861924682795 0 0  0.6379079497904622 0 0  0.6411297071126555 0 0  0.6443514644348465 0 0  0.6475732217570283 0 0  0.650794979079206 0 0  0.6540167364013761 0 0  0.6572384937235518 0 0  0.6604602510457335 0 0  0.6636820083679225 0 0  0.6669037656901158 0 0  0.6701255230123004 0 0  0.6733472803344823 0 0  0.6765690376566641 0 0  0.6797907949788459 0 0  0.6830125523010393 0 0  0.686234309623231 0 0  0.6894560669454127 0 0  0.6926778242675914 0 0  0.6958995815897615 0 0  0.6991213389119363 0 0  0.7023430962341181 0 0  0.7055648535563062 0 0  0.7087866108784994 0 0  0.712008368200685 0 0  0.7152301255228668 0 0  0.7184518828450486 0 0  0.7216736401672305 0 0  0.724895397489423 0 0  0.7281171548116155 0 0  0.7313389121337973 0 0  0.7345606694559768 0 0  0.7377824267781468 0 0  0.7410041841003209 0 0  0.7442259414225026 0 0  0.7474476987446899 0 0  0.7506694560668832 0 0  0.7538912133890696 0 0  0.7571129707112513 0 0  0.760334728033433 0 0  0.7635564853556149 0 0  0.7667782426778067 0 0  0.77 0.001685393258423789 0  0.77 0.003370786516847669 0  0.77 0.005056179775271247 0  0.77 0.006741573033694517 0  0.77 0.008426966292117821 0  0.77 0.01011235955054176 0  0.77 0.01179775280896623 0  0.77 0.0134831460673904 0  0.77 0.01516853932581489 0  0.77 0.01685393258423891 0  0.77 0.01853932584266291 0  0.77 0.02022471910108589 0  0.77 0.02191011235950794 0  0.77 0.02359550561792999 0  0.77 0.02528089887635205 0  0.77 0.02696629213477411 0  0.77 0.02865168539319714 0  0.77 0.03033707865161956 0  0.77 0.03202247191004162 0  0.77 0.03370786516846367 0  0.77 0.03539325842688572 0  0.77 0.03707865168530778 0  0.77 0.03876404494372984 0  0.77 0.0404494382021519 0  0.77 0.04213483146057394 0  0.77 0.04382022471899601 0  0.77 0.04550561797741807 0  0.77 0.04719101123584013 0  0.77 0.04887640449426219 0  0.77 0.05056179775268425 0  0.77 0.0522471910111063 0  0.77 0.05393258426952837 0  0.77 0.05561797752795105 0  0.77 0.05730337078637505 0  0.77 0.05898876404479723 0  0.77 0.0606741573032193 0  0.77 0.06235955056164135 0  0.77 0.06404494382006341 0  0.77 0.06573033707848548 0  0.77 0.06741573033690752 0  0.77 0.06910112359532959 0  0.77 0.07078651685375165 0  0.77 0.0724719101121737 0  0.77 0.07415730337059653 0  0.77 0.07584269662902443 0  0.77 0.07752808988745429 0  0.77 0.07921348314588413 0  0.77 0.08089887640431678 0  0.77 0.08258426966274923 0  0.77 0.08426966292117907 0  0.77 0.08595505617960987 0  0.77 0.08764044943804362 0  0.77 0.08932584269647403 0  0.77 0.09101123595490389 0  0.77 0.09269662921333673 0  0.77 0.09438202247176901 0  0.77 0.09606741573019884 0  0.77 0.09775280898862983 0  0.77 0.09943820224706355 0  0.77 0.1011235955054938 0  0.77 0.1028089887639236 0  0.77 0.1044943820223567 0  0.77 0.1061797752807888 0  0.77 0.1078651685392186 0  0.77 0.1095505617976498 0  0.77 0.1112359550560835 0  0.77 0.1129213483145136 0  0.77 0.1146067415729456 0  0.77 0.1162921348313787 0  0.77 0.1179775280898085 0  0.77 0.1196629213482387 0  0.77 0.1213483146066724 0  0.77 0.1230337078651035 0  0.77 0.1247191011235322 0  0.77 0.1264044943819605 0  0.77 0.1280898876403903 0  0.77 0.1297752808988242 0  0.77 0.1314606741572554 0  0.77 0.1331460674156853 0  0.77 0.1348314606741154 0  0.77 0.1365168539325504 0  0.77 0.1382022471909802 0  0.77 0.13988764044941 0  0.77 0.1415730337078443 0  0.77 0.1432584269662752 0  0.77 0.144943820224705 0  0.77 0.1466292134831355 0  0.77 0.1483146067415701 0  0.7667782426778414 0.15 0  0.7635564853556813 0.15 0  0.7603347280335111 0.15 0  0.757112970711341 0.15 0  0.7538912133891708 0.15 0  0.7506694560670005 0.15 0  0.7474476987448303 0.15 0  0.7442259414226602 0.15 0  0.74100418410049 0.15 0  0.7377824267783197 0.15 0  0.7345606694561496 0.15 0  0.7313389121339794 0.15 0  0.7281171548118092 0.15 0  0.724895397489639 0.15 0  0.7216736401674688 0.15 0  0.7184518828452986 0.15 0  0.7152301255231284 0.15 0  0.7120083682009583 0.15 0  0.708786610878788 0.15 0  0.7055648535566178 0.15 0  0.7023430962344477 0.15 0  0.6991213389122775 0.15 0  0.6958995815901072 0.15 0  0.692677824267937 0.15 0  0.6894560669457669 0.15 0  0.6862343096235967 0.15 0  0.6830125523014264 0.15 0  0.6797907949792563 0.15 0  0.6765690376570861 0.15 0  0.6733472803349159 0.15 0  0.6701255230127456 0.15 0  0.6669037656905755 0.15 0  0.6636820083684053 0.15 0  0.6604602510462351 0.15 0  0.657238493724065 0.15 0  0.6540167364018947 0.15 0  0.6507949790797245 0.15 0  0.6475732217575543 0.15 0  0.644351464435384 0.15 0  0.6411297071132231 0.15 0  0.6379079497910645 0.15 0  0.634686192468906 0.15 0  0.6314644351467468 0.15 0  0.6282426778245765 0.15 0  0.6250209205024085 0.15 0  0.62179916318025 0.15 0  0.6185774058580914 0.15 0  0.6153556485359328 0.15 0  0.6121338912137689 0.15 0  0.6089121338915987 0.15 0  0.6056903765694354 0.15 0  0.6024686192472768 0.15 0  0.5992468619251182 0.15 0  0.5960251046029597 0.15 0  0.5928033472807912 0.15 0  0.589581589958621 0.15 0  0.5863598326364508 0.15 0  0.5831380753142792 0.15 0  0.5799163179920974 0.15 0  0.57669456
[...]
<PointData  Scalars="pressure"> 
<DataArray  type="Float64"  Name="pressure"  format="ascii">1.0595699737584448e+04  1.4899220123552883e+00  -2.5201732140794726e+00  1.0611395869741707e+04  1.0569828909807349e+04  1.0550155773572482e+04  1.0532767751534866e+04  7.6557018930954227e+03  7.6388660456841335e+03  7.6236083566433190e+03  7.6084673536831970e+03  7.5934171702527929e+03  7.5784326434188552e+03  7.5634929001121827e+03  7.5485850176249533e+03  7.5337005168499581e+03  7.5188335394099513e+03  7.5039799147735266e+03  7.4891366177396167e+03  7.4743014319270005e+03  7.4594727312835994e+03  7.4446493326552136e+03  7.4298303930356597e+03  7.4150153359894484e+03  7.4002037977549417e+03  7.3853955870144182e+03  7.3705906544055879e+03  7.3557890691435432e+03  7.3409910009473124e+03  7.3261967060047036e+03  7.3114065160689270e+03  7.2966208300260005e+03  7.2818401074417698e+03  7.2670648637169224e+03  7.2522956665645570e+03  7.2375331335867204e+03  7.2227779307729479e+03  7.2080307717785981e+03  7.1932924178677040e+03  7.1785636784268054e+03  7.1638454119736234e+03  7.1491385275997818e+03  7.1344439868000800e+03  7.1197628056532412e+03  7.1050960573310876e+03  7.0904448749247540e+03  7.0758104545883680e+03  7.0611940590126478e+03  7.0465970212533075e+03  7.0320207489512659e+03  7.0174667289946137e+03  7.0029365326839616e+03  6.9884318214749610e+03  6.9739543533818414e+03  6.9595059901344603e+03  6.9450887051876007e+03  6.9307045926833134e+03  6.9163558774650855e+03  6.9020449262345073e+03  6.8877742599259846e+03  6.8735465673521912e+03  6.8593647201413532e+03  6.8452317889463020e+03  6.8311510608562403e+03  6.8171260578847596e+03  6.8031605563452067e+03  6.7892586068591008e+03  6.7754245546786306e+03  6.7616630599443988e+03  6.7479791174466345e+03  6.7343780754155514e+03  6.7208656528325109e+03  6.7074479547271085e+03  6.6941314848992224e+03  6.6809231554714461e+03  6.6678302926254009e+03  6.6548606377932674e+03  6.6420223434501040e+03  6.6293239624730431e+03  6.6167744297858962e+03  6.6043830346804343e+03  6.5921593817788071e+03  6.5801133380461097e+03  6.5682549625262800e+03  6.5565944144677305e+03  6.5451418340709342e+03  6.5339071879499261e+03  6.5229000680654635e+03  6.5121294274743095e+03  6.5016032271072891e+03  6.4913279517883138e+03  6.4813079245116887e+03  6.4715442922471366e+03  6.4620334441299046e+03  6.4527643802048397e+03  6.4437139842539764e+03  6.4348377667882160e+03  6.4260503699867040e+03  6.4171775996197675e+03  6.4076915891492254e+03  6.3951909105104723e+03  6.3716619963788917e+03  6.3320306032310600e+03  6.2923983231982820e+03  6.2523447612836326e+03  6.2122231821096275e+03  6.1721906146967494e+03  6.1323380450676541e+03  6.0927276199053294e+03  6.0534029601021402e+03  6.0143953386637941e+03  5.9757273885062814e+03  5.9374153615048126e+03  5.8994705618276557e+03  5.8619002823926530e+03  5.8247084255452364e+03  5.7878959124853018e+03  5.7514609438346060e+03  5.7153991496302415e+03  5.6797036528984681e+03  5.6443650626778399e+03  5.6093714077737723e+03  5.5747080205206175e+03  5.5403573798143025e+03  5.5062989243419670e+03  5.4725088500853208e+03  5.4389599107448457e+03  5.4056212458548289e+03  5.3724582695057052e+03  5.3394326636785117e+03  5.3065025355027610e+03  5.2736228185483906e+03  5.2407460252365954e+03  5.2078234901891883e+03  5.1748072816193990e+03  5.1416530011726418e+03  5.1083237587190479e+03  5.0747957480578389e+03  5.0410661039898478e+03  5.0071639277093991e+03  4.9731657030509177e+03  4.9392317548271349e+03  4.9057161067145407e+03  4.8734424283205171e+03  4.8435289913604120e+03  4.8047325751170019e+03  4.7490969579462935e+03  4.6991040502765964e+03  4.6507584197333017e+03  4.6029940097215167e+03  4.5554400136416798e+03  4.5079356518789664e+03  4.4604125847215246e+03  4.4128484419381120e+03  4.3652449290654831e+03  4.3176165157902142e+03  4.2699841750205287e+03  4.2223717636375559e+03  4.1748038852416275e+03  4.1273046271973399e+03  4.0798968317620079e+03  4.0326017007945020e+03  3.9854386112474995e+03  3.9384250641850008e+03  3.8915767178907763e+03  3.8449074731756045e+03  3.7984295903039565e+03  3.7521538243503915e+03  3.7060895706542792e+03  3.6602450152320889e+03  3.6146272870778116e+03  3.5692426106024072e+03  3.5240964572711155e+03  3.4791936959484324e+03  3.4345387416718686e+03  3.3901357026041023e+03  3.3459885248131336e+03  3.3021011343302193e+03  3.2584775756492618e+03  3.2151221454879501e+03  3.1720395202388427e+03  3.1292348751250961e+03  3.0867139926717496e+03  3.0444833577371819e+03  3.0025502360615151e+03  2.9609227331024317e+03  2.9196098298514003e+03  2.8786213923271275e+03  2.8379681514299537e+03  2.7976616496468541e+03  2.7577141504462707e+03  2.7181385047268996e+03  2.6789479659432463e+03  2.6401559410345944e+03  2.6017756575688877e+03  2.5638197181487544e+03  2.5262995006829865e+03  2.4892243470965036e+03  2.4526004626747435e+03  2.4164294223279262e+03  2.3807061467807889e+03  2.3454161687916480e+03  2.3105319565918257e+03  2.2760080074992748e+03  2.2417744002223139e+03  2.2077285642545703e+03  2.1737252745700393e+03  2.1395653753424099e+03  2.1049845227994210e+03  2.0696444901441696e+03  2.0331317401205672e+03  1.9949710740689106e+03  1.9546637619123783e+03  1.9117537078815744e+03  1.8659081803459324e+03  1.8169810974561888e+03  1.7650279278300081e+03  1.7102678218846868e+03  1.6530167113034631e+03  1.5936214228977467e+03  1.5324126451445798e+03  1.4696798921457068e+03  1.4056633917736820e+03  1.3405560225171168e+03  1.2745098569589668e+03  1.2076439842651278e+03  1.1400519435307767e+03  1.0718081101549733e+03  1.0029728970277267e+03  9.3359685855259772e+02  8.6372386040989693e+02  7.9339348472487995e+02  7.2264282180845964e+02  6.5150777567798843e+02  5.8002398937934254e+02  5.0822748122534392e+02  4.3615507677587766e+02  3.6384473831098336e+02  2.9133613380022518e+02  2.1867230574339990e+02  1.4589280729272775e+02  7.3028483113039911e+01  3.1002644109657995e-01  1.5297076456947622e-02  1.8369645770313387e-03  -4.1490842620928831e-04  -2.2467936252999702e-03  -3.6890185625172382e-03  -4.9130227487574462e-03  -6.0329674456696012e-03  -7.1037571966892053e-03  -8.1529488684084373e-03  -9.1956265283692114e-03  -1.0240812334377319e-02  -1.1294403115022687e-02  -1.2360582297037499e-02  -1.3442517116102625e-02  -1.4542699915239498e-02  -1.5663099770112494e-02  -1.6805204181030119e-02  -1.7969989898644501e-02  -1.9157841945352045e-02  -2.0368429612937024e-02  -2.1600542734208566e-02  -2.2851888560916345e-02  -2.4118848086139077e-02  -2.5396190180731554e-02  -2.6676742358716324e-02  -2.7951018435329548e-02  -2.9206806038365462e-02  -3.0428721240746075e-02  -3.1597743966476723e-02  -3.2690756798375187e-02  -3.3680121879065460e-02  -3.4533346050848866e-02  -3.5212903108824495e-02  -3.5676303112878102e-02  -3.5876519880963346e-02  -3.5762904940363285e-02  -3.5282722736646864e-02  -3.4383428647032192e-02  -3.3015765931492261e-02  -3.1137671377813002e-02  -2.8718836773588018e-02  -2.5745622751868067e-02  -2.2225790288705766e-02  -1.8192107962535592e-02  -1.3703948442864960e-02  -8.8463334994054749e-03  -3.7261961093042941e-03  1.5339023771041833e-03  6.8038812158263068e-03  1.1955054068697497e-02  1.6868721344804560e-02  2.1443427549600276e-02  2.5600159009522144e-02  2.9285146505530730e-02  3.2470325152817184e-02  3.5151814844017741e-02  3.7346978118646151e-02  3.9090690240014103e-02  4.0431411352424049e-02  4.1427562514836064e-02  4.2144554481464022e-02  4.2652672275621445e-02  4.3025995433249052e-02  4.3342385156625973e-02  4.3684638262300797e-02  4.4142758463506723e-02  4.4817866026901174e-02  4.5828020810659557e-02  4.7315875723579169e-02  4.9461713866526320e-02  5.2502187585669421e-02  5.6778002065989853e-02  6.2835339574664140e-02  7.1557019167391767e-02  8.3809413876624120e-02  1.0014354370015173e-01  1.7413545652627513e-01  4.4417398892634935e-01  -3.1277491703378595e+00  6.8164985735165262e-01  -4.6448725070815849e-02  -1.3213812014742013e-01  -1.3299188726035871e-01  -1.0033812259951067e-01  -2.0689485721108664e-01  2.2194961229093999e+00  -3.3761761523365217e+00  9.0480179569511748e+01  1.8609459131269040e+02  2.8178728878689765e+02  3.8002856364546932e+02  4.8111907446025009e+02  5.8442474917743152e+02  6.8828554916741916e+02  7.9079457474259198e+02  8.9142783240995823e+02  9.9073421101108647e+02  1.0892780937656280e+03  1.1873421090447378e+03  1.2850376972556301e+03  1.3824005189751890e+03  1.4794284930392623e+03  1.5760856712924990e+03  1.6722831314553985e+03  1.7678546453197937e+03  1.8625785860827741e+03  1.9562904439412443e+03  2.0489475650068553e+03  2.1403747726063675e+03  2.2299947680558739e+03  2.3172763979370657e+03  2.4022608562496630e+03  2.4852863552163467e+03  2.5664571474278910e+03  2.6454427763422955e+03  2.7215261565478572e+03  2.7937891749624209e+03  2.8614625342780146e+03  2.9243441394772190e+03  2.9829623555336725e+03  3.0382877490363035e+03  3.0912758469757136e+03  3.1423747947463398e+03  3.1896472809298639e+03  2.3623122008544906e+03  2.4029096311551461e+03  3.3477221746210189e+03  3.3940992495145647e+03  3.4395599140898839e+03  2.5432378277463113e+03  2.5827173844353506e+03  3.5927804543515645e+03  3.6350571076926813e+03  2.6845519342151870e+03  2.7229533473615706e+03  3.7843276263021039e+03  3.8283262388298344e+03  3.8739108516298493e+03  3.9191520601889224e+03  3.9636604249123461e+03  4.0054562335852424e+03  2.9535805371479482e+03  4.1000260499254273e+03  4.1418695909553999e+03  4.1853377525263477e+03  4.2288761715773644e+03  4.2723956954787645e+03  4.3156695500116393e+03  4.3567644391050289e+03  3.2093197667627883e+03  4.4511058194481675e+03  4.4911530718744843e+03  3.3080351201282137e+03  4.5880772525021221e+03  4.6296152252553666e+03  3.4104100554569300e+03  4.7307460015308097e+03  4.7742976662547617e+03  3.5177331871085808e+03  4.8806325680954733e+03  4.9262743119203196e+03  3.6288871319114082e+03  3.6724606520512098e+03  5.0956191628644647e+03  5.1480906818890053e+03  5.2007206185543255e+03  3.8332605857265748e+03  3.8815667561897594e+03  5.3886087489867168e+03  5.4468310550606675e+03  5.5052007379991101e+03  4.0598720842131056e+03  4.1132066001842450e+03  5.7120366595236565e+03  5.7718604911940711e+03  4.2573104792002487e+03  4.3137973231710112e+03  5.9910184613450865e+03  6.0567922717735437e+03  6.1213355366386813e+03  4.5124425833939185e+03  4.5678204843814219e+03  6.3363775345412705e+03  6.3972697456559099e+03  6.4555393179790726e+03  4.7495296616668538e+03  4.7973013686323875e+03  6.6418806753334884e+03  6.6943385210977758e+03  6.7455170052584444e+03  4.9562845641933272e+03  5.0009200086051369e+03  6.9190913014224288e+03  6.9702126269890323e+03  7.0206346908720898e+03  5.1566000140401547e+03  5.2027560654005765e+03  7.2020702201457807e+03  7.2493971268448131e+03  5.3097248605616578e+03  5.3457128592985973e+03  5.3790915433884293e+03  5.4115153633438586e+03  5.4428024853679262e+03  5.4729731472571757e+03  5.5022536995560586e+03  5.5308849718745832e+03  5.5590402390224217e+03  5.5868244050795865e+03  5.6142985502818337e+03  5.6415013241496217e+03  5.6684620668073621e+03  5.6952069864578571e+03  5.7217607311776328e+03  5.7481455789240908e+03  5.7743798792302714e+03  5.8004767169244342e+03  5.8264432281941745e+03  5.8522806380210895e+03  5.8779849010246953e+03  5.9035477474815389e+03  5.9289579471574261e+03  5.9542026243941482e+03  5.9792684805468525e+03  6.0041427961260988e+03  6.0288141030426896e+03  6.0532724509316604e+03  6.0775092536710290e+03  6.1015167923915005e+03  6.1252875458676290e+03  6.1488135746620401e+03  6.1720861621877784e+03  6.1950958122449001e+03  6.2178325676689446e+03  6.2402865188314609e+03  6.2624483533130760e+03  6.2843098419520775e+03  6.3058642127257408e+03  6.3271063981564303e+03  6.3480331543017819e+03  6.3686430574425112e+03  6.3889363987540637e+03  6.4089150144862160e+03  6.4285821005528069e+03  6.4479420583157435e+03  6.4670003999095852e+03  6.4857637113077244e+03  6.5042396414655786e+03  6.5224368698801727e+03  6.5403650095267294e+03  6.5580344231166691e+03  6.5754559561228280e+03  6.5926406082677086e+03  6.6095991702911815e+03  6.6263418455631927e+03  6.6428778607886570e+03  6.6592150506648859e+03  6.6753593790313862e+03  6.6913143309796287e+03  6.7070800692722714e+03  6.7226521818433584e+03  6.7380197363290408e+03  6.7531622157104966e+03  6.7680455120761317e+03  6.7826252216075463e+03  6.7969014660500288e+03  6.8110741335762705e+03  6.8254344074276769e+03  6.8397757708316567e+03  6.8555089376187261e+03  6.8744686198410354e+03  6.8864814674754634e+03  6.9050460096418528e+03  6.9295586356238782e+03  6.9456812749726232e+03  9.5540853479292564e+03  6.9841138846383219e+03  7.0027751724141908e+03  9.6289509610618752e+03  7.0286518539249246e+03  7.0462923059501791e+03  9.6896757429340887e+03  7.0734731333245227e+03  7.0898850701251986e+03  9.7484699301362398e+03  9.7611216028422459e+03  7.1240699439433374e+03  9.8003281946559218e+03  9.8240246465856671e+03  7.1689416535720993e+03  7.1875807276013929e+03  7.2026950605073180e+03  9.9074494669910073e+03  7.2348944536254076e+03  7.2526048140018402e+03  7.2674766532713311e+03  9.9941989224405461e+03  7.2923981979923992e+03  7.3112142403803391e+03  7.3268750207468929e+03  7.3418877884306448e+03  7.3550256949776076e+03  7.3659729303292970e+03  7.3823918156118016e+03  7.3976046580493285e+03  7.4137972594616949e+03  7.4313214076024415e+03  7.4488999350868380e+03  7.4660311985656826e+03  7.4826849895551113e+03  7.4987740837592492e+03  7.5148659290718006e+03  7.5322066858614689e+03  7.5500494800257184e+03  7.5676728239130516e+03  7.5845550259717329e+03  7.6005605782251487e+03  7.6168186519115798e+03  7.6321691883333087e+03  7.6435616063567140e+03  7.6573355717357626e+03  7.6729465873777717e+03  1.0551267137389053e+04  1.0568773054108267e+04  1.0588452773461118e+04  1.0609031206601763e+04  1.0607916859013576e+04  1.0607138420417175e+04  1.0606403529562094e+04  1.0605650374832536e+04  1.0604872982216901e+04  1.0604076257170524e+04  1.0603266707442112e+04  1.0602450574370036e+04  1.0601633429903950e+04  1.0600820109561546e+04  1.0600014738014857e+04  1.0599220781573140e+04  1.0598441107979725e+04  1.0597678047674779e+04  1.0596933454411077e+04  1.0596208763936911e+04  1.0595505049685675e+04  1.0594823074625992e+04  1.0594163338695014e+04  1.0593526121512932e+04  1.0592911520317921e+04  1.0592319483248095e+04  1.0591749838229349e+04  1.0591202317811027e+04  1.0590676580335259e+04  1.0590172227840070e+04  1.0589688821090085e+04  1.0589225892108123e+04  1.0588782954552829e+04  1.0588359512254741e+04  1.0587955066189128e+04  1.0587569120130951e+04  1.0587201185205495e+04  1.0586850783519523e+04  1.0586517451031774e+04  1.0586200739798427e+04  1.0585900219709260e+04  1.0585615479812452e+04  1.0585346129311305e+04  1.0585091798303265e+04  1.0584852138320965e+04  1.0584626822725939e+04  1.0584415546998338e+04  1.0584218028959689e+04  1.0584034008960993e+04  1.0583863250064433e+04  1.0583705538243994e+04  1.0583560682628215e+04  1.0583428515806854e+04  1.0583308894222411e+04  1.0583201698667752e+04  1.0583106834911361e+04  1.0583024234473301e+04  1.0582953855576980e+04  1.0582895684304498e+04  1.0582849735987153e+04  1.0582816056867185e+04  1.0582794726072656e+04  1.0582785857953948e+04  1.0582789604839136e+04  1.0582806160274766e+04  1.0582835762830468e+04  1.0582878700558735e+04  1.0582935316216288e+04  1.0583006013368931e+04  1.0583091263518090e+04  1.0583191614400464e+04  1.0583307699619074e+04  1.0583440249756304e+04  1.0583590105082014e+04  1.0583758229878626e+04  1.0583945728213685e+04  1.0584153860623250e+04  1.0584384060492366e+04  1.0584637947710966e+04  1.0584917335084039e+04  1.0585224219458143e+04  1.0585560743999285e+04  1.0585929110531735e+04  1.0586331414350667e+04  1.0586769380414065e+04  1.0587244026278895e+04  1.0587755390991106e+04  1.0588302786982249e+04  1.0588889524577909e+04  1.0589574412776237e+04  1.0590855332269337e+04  1.0570199338837157e+04  1.0569652791370745e+04  1.0569040376885732e+04  1.0568455368437099e+04  1.0567904992893653e+04  1.0567391761280845e+04  1.0566917131287573e+04  1.0566480730888670e+04  1.0566080920713839e+04  1.0565715450907532e+04  1.0565381884624152e+04  1.0565077828961546e+04  1.0564801048273526e+04  1.0564549511288795e+04  1.0564321402542884e+04  1.0564115115538541e+04  1.0563929237379949e+04  1.0563762530211619e+04  1.0563613912279019e+04  1.0563482440013193e+04  1.0563367291758548e+04  1.0563267753339347e+04  1.0563183205441330e+04  1.0563113112679135e+04  1.0563057014177590e+04  1.0563014515485736e+04  1.0562985281650135e+04  1.0562969031289638e+04  1.0562965531531772e+04  1.0562974593689449e+04  1.0562996069573517e+04  1.0563029848351960e+04  1.0563075853879820e+04  1.0563134042435247e+04  1.0563204400806781e+04  1.0563286944684784e+04  1.0563381717317019e+04  1.0563488788393439e+04  1.0563608253129974e+04  1.0563740231524509e+04  1.0563884867761037e+04  1.0564042329739736e+04  1.0564212808712349e+04  1.0564396519002497e+04  1.0564593697790830e+04  1.0564804604944078e+04  1.0565029522865883e+04  1.0565268756345045e+04  1.0565522632374135e+04  1.0565791499907595e+04  1.0566075729523625e+04  1.0566375712948484e+04  1.0566691862394364e+04  1.0567024609653488e+04  1.0567374404880587e+04  1.0567741714983533e+04  1.0568127021527216e+04  1.0568530818038756e+04  1.0568953606582096e+04  1.0569395893447199e+04  1.0569858183773047e+04  1.0570340974894183e+04  1.0570844748168543e+04  1.0571369959009266e+04  1.0571917024807068e+04  1.0572486310393404e+04  1.0573078110661068e+04  1.0573692629931676e+04  1.0574329957643627e+04  1.0574990039936856e+04  1.0575672646740983e+04  1.0576377334042061e+04  1.0577103401123321e+04  1.0577849842759148e+04  1.0578615296598584e+04  1.0579397986300946e+04  1.0580195661347636e+04  1.0581005534749533e+04  1.0581824219877000e+04  1.0582647666982377e+04  1.0583471098353783e+04  1.0584288939151427e+04  1.0585094739709535e+04  1.0585881046956343e+04  1.0586638725479870e+04  1.0587352161859981e+04  1.0587973856031167e+04  1.0588341219518537e+04  1.0550123753292783e+04  1.0549657387618321e+04  1.0549087619481088e+04  1.0548484179995565e+04  1.0547913937603680e+04  1.0547393339716249e+04  1.0546921541179925e+04  1.0546493881725512e+04  1.0546105535888628e+04  1.0545752312075872e+04  1.0545430706813226e+04  1.0545137798840191e+04  1.0544871133929684e+04  1.0544628631578566e+04  1.0544408514225293e+04  1.0544209253810117e+04  1.0544029530782185e+04  1.0543868201982785e+04  1.0543724274975442e+04  1.0543596887186057e+04  1.0543485288731557e+04  1.0543388828145706e+04  1.0543306940425537e+04  1.0543239136965532e+04  1.0543184997045528e+04  1.0543144160609509e+04  1.0543116322124839e+04  1.0543101225351444e+04  1.0543098658881423e+04  1.0543108452334165e+04  1.0543130473111645e+04  1.0543164623634524e+04  1.0543210838992600e+04  1.0543269084953727e+04  1.0543339356283952e+04  1.0543421675338859e+04  1.0543516090891719e+04  1.0543622677168980e+04  1.0543741533067367e+04  1.0543872781529757e+04  1.0544016569059619e+04  1.0544173065355171e+04  1.0544342463045801e+04  1.0544524977513729e+04  1.0544720846783950e+04  1.0544930331465046e+04  1.0545153714722279e+04  1.0545391302262686e+04  1.0545643422309591e+04  1.0545910425540667e+04  1.0546192684959720e+04  1.0546490595667274e+04  1.0546804574488860e+04  1.0547135059412283e+04  1.0547482508775944e+04  1.0547847400139250e+04  1.0548230228752895e+04  1.0548631505530966e+04  1.0549051754408072e+04  1.0549491508942609e+04  1.0549951308001306e+04  1.0550431690329870e+04  1.0550933187779774e+04  1.0551456316921403e+04  1.0552001568728954e+04  1.0552569395973669e+04  1.0553160197909248e+04  1.0553774301779938e+04  1.0554411940630795e+04  1.0555073226857083e+04  1.0555758120904966e+04  1.0556466394542118e+04  1.0557197588175526e+04  1.0557950961835812e+04  1.0558725439718590e+04  1.0559519548636967e+04  1.0560331351458093e+04  1.0561158377542402e+04  1.0561997552918545e+04  1.0562845131442955e+04  1.0563696617923921e+04  1.0564546635769686e+04  1.0565388574870334e+04  1.0566