<?xml version="1.0"?>
<VTKFile type="UnstructuredGrid"  version="0.1"  >
<UnstructuredGrid>
<Piece  NumberOfPoints="21600" NumberOfCells="42542">
<Points>
<DataArray  type="Float64"  NumberOfComponents="3"  format="ascii">0 0 0  0.77 0 0  0.77 0.15 0  0 0.15 0  0.003221757322170014 0 0  0.006443514644340046 0 0  0.009665271966510193 0 0  0.01288702928868034 0 0  0.01610878661085048 0 0  0.01933054393302049 0 0  0.02255230125519027 0 0  0.02577405857735967 0 0  0.02899581589952872 0 0  0.03221757322169801 0 0  0.03543933054386744 0 0  0.03866108786603686 0 0  0.04188284518820627 0 0  0.0451046025103757 0 0  0.04832635983254521 0 0  0.05154811715471607 0 0  0.05476987447688695 0 0  0.05799163179905782 0 0  0.06121338912122846 0 0  0.06443514644339859 0 0  0.06765690376556875 0 0  0.0708786610877389 0 0  0.07410041840990904 0 0  0.0773221757320792 0 0  0.08054393305425039 0 0  0.08376569037642198 0 0  0.0869874476985936 0 0  0.09020920502076518 0 0  0.0934309623429339 0 0  0.0966527196651024 0 0  0.09987447698726967 0 0  0.1030962343094369 0 0  0.1063179916316041 0 0  0.1095397489537714 0 0  0.1127615062759386 0 0  0.1159832635981051 0 0  0.1192050209202709 0 0  0.1224267782424358 0 0  0.1256485355646001 0 0  0.1288702928867644 0 0  0.1320920502089288 0 0  0.1353138075310958 0 0  0.1385355648532632 0 0  0.1417573221754333 0 0  0.1449790794976035 0 0  0.1482008368197736 0 0  0.1514225941419428 0 0  0.1546443514641101 0 0  0.157866108786276 0 0  0.1610878661084403 0 0  0.1643096234306047 0 0  0.167531380752769 0 0  0.1707531380749333 0 0  0.1739748953970977 0 0  0.177196652719262 0 0  0.1804184100414264 0 0  0.1836401673635935 0 0  0.1868619246857611 0 0  0.1900836820079313 0 0  0.1933054393301014 0 0  0.1965271966522716 0 0  0.1997489539744406 0 0  0.2029707112966078 0 0  0.2061924686187736 0 0  0.209414225940938 0 0  0.2126359832631022 0 0  0.2158577405852666 0 0  0.219079497907431 0 0  0.2223012552295953 0 0  0.2255230125517597 0 0  0.2287447698739242 0 0  0.2319665271960914 0 0  0.2351882845182592 0 0  0.2384100418404293 0 0  0.2416317991625994 0 0  0.2448535564847696 0 0  0.2480753138069371 0 0  0.2512970711291014 0 0  0.2545188284512658 0 0  0.2577405857734302 0 0  0.2609623430955986 0 0  0.2641841004177688 0 0  0.2674058577399389 0 0  0.270627615062109 0 0  0.2738493723842792 0 0  0.2770711297064487 0 0  0.280292887028613 0 0  0.2835146443507774 0 0  0.2867364016729417 0 0  0.2899581589951061 0 0  0.2931799163172705 0 0  0.2964016736394348 0 0  0.2996234309615992 0 0  0.3028451882837672 0 0  0.3060669456059373 0 0  0.3092887029281075 0 0  0.3125104602502776 0 0  0.3157322175724478 0 0  0.3189539748946177 0 0  0.322175732216782 0 0  0.3253974895389464 0 0  0.3286192468611107 0 0  0.3318410041832751 0 0  0.3350627615054395 0 0  0.3382845188276038 0 0  0.3415062761497681 0 0  0.3447280334719325 0 0  0.3479497907940968 0 0  0.3511715481162612 0 0  0.3543933054384255 0 0  0.3576150627605947 0 0  0.3608368200827649 0 0  0.364058577404935 0 0  0.3672803347271051 0 0  0.3705020920492753 0 0  0.373723849371444 0 0  0.3769456066936084 0 0  0.3801673640157748 0 0  0.383389121337945 0 0  0.3866108786601209 0 0  0.3898326359823028 0 0  0.3930543933044846 0 0  0.3962761506266662 0 0  0.399497907948848 0 0  0.4027196652710298 0 0  0.4059414225932116 0 0  0.4091631799153934 0 0  0.4123849372375751 0 0  0.4156066945597569 0 0  0.4188284518819387 0 0  0.4220502092041222 0 0  0.4252719665263097 0 0  0.4284937238484974 0 0  0.4317154811706849 0 0  0.4349372384928725 0 0  0.4381589958150601 0 0  0.4413807531372476 0 0  0.4446025104594352 0 0  0.4478242677816181 0 0  0.4510460251037998 0 0  0.4542677824259815 0 0  0.4574895397481634 0 0  0.4607112970703451 0 0  0.4639330543925269 0 0  0.4671548117147087 0 0  0.4703765690368904 0 0  0.4735983263590722 0 0  0.4768200836812568 0 0  0.4800418410034444 0 0  0.483263598325632 0 0  0.4864853556478196 0 0  0.4897071129700028 0 0  0.4929288702921845 0 0  0.4961506276143663 0 0  0.4993723849365479 0 0  0.5025941422587239 0 0  0.5058158995809008 0 0  0.5090376569030826 0 0  0.5122594142252677 0 0  0.515481171547461 0 0  0.5187029288696494 0 0  0.5219246861918312 0 0  0.525146443514013 0 0  0.5283682008361947 0 0  0.5315899581583845 0 0  0.5348117154805778 0 0  0.5380334728027617 0 0  0.5412552301249435 0 0  0.5444769874471141 0 0  0.5476987447692853 0 0  0.550920502091467 0 0  0.5541422594136513 0 0  0.5573640167358447 0 0  0.560585774058034 0 0  0.5638075313802158 0 0  0.5670292887023975 0 0  0.5702510460245793 0 0  0.5734728033467682 0 0  0.5766945606689615 0 0  0.579916317991155 0 0  0.5831380753133483 0 0  0.5863598326355314 0 0  0.5895815899577131 0 0  0.5928033472798949 0 0  0.5960251046020785 0 0  0.5992468619242718 0 0  0.6024686192464619 0 0  0.6056903765686437 0 0  0.6089121338908206 0 0  0.6121338912129908 0 0  0.6153556485351673 0 0  0.618577405857349 0 0  0.6217991631795386 0 0  0.625020920501732 0 0  0.6282426778239159 0 0  0.6314644351460976 0 0  0.6346861924682795 0 0  0.6379079497904622 0 0  0.6411297071126555 0 0  0.6443514644348465 0 0  0.6475732217570283 0 0  0.650794979079206 0 0  0.6540167364013761 0 0  0.6572384937235518 0 0  0.6604602510457335 0 0  0.6636820083679225 0 0  0.6669037656901158 0 0  0.6701255230123004 0 0  0.6733472803344823 0 0  0.6765690376566641 0 0  0.6797907949788459 0 0  0.6830125523010393 0 0  0.686234309623231 0 0  0.6894560669454127 0 0  0.6926778242675914 0 0  0.6958995815897615 0 0  0.6991213389119363 0 0  0.7023430962341181 0 0  0.7055648535563062 0 0  0.7087866108784994 0 0  0.712008368200685 0 0  0.7152301255228668 0 0  0.7184518828450486 0 0  0.7216736401672305 0 0  0.724895397489423 0 0  0.7281171548116155 0 0  0.7313389121337973 0 0  0.7345606694559768 0 0  0.7377824267781468 0 0  0.7410041841003209 0 0  0.7442259414225026 0 0  0.7474476987446899 0 0  0.7506694560668832 0 0  0.7538912133890696 0 0  0.7571129707112513 0 0  0.760334728033433 0 0  0.7635564853556149 0 0  0.7667782426778067 0 0  0.77 0.001685393258423789 0  0.77 0.003370786516847669 0  0.77 0.005056179775271247 0  0.77 0.006741573033694517 0  0.77 0.008426966292117821 0  0.77 0.01011235955054176 0  0.77 0.01179775280896623 0  0.77 0.0134831460673904 0  0.77 0.01516853932581489 0  0.77 0.01685393258423891 0  0.77 0.01853932584266291 0  0.77 0.02022471910108589 0  0.77 0.02191011235950794 0  0.77 0.02359550561792999 0  0.77 0.02528089887635205 0  0.77 0.02696629213477411 0  0.77 0.02865168539319714 0  0.77 0.03033707865161956 0  0.77 0.03202247191004162 0  0.77 0.03370786516846367 0  0.77 0.03539325842688572 0  0.77 0.03707865168530778 0  0.77 0.03876404494372984 0  0.77 0.0404494382021519 0  0.77 0.04213483146057394 0  0.77 0.04382022471899601 0  0.77 0.04550561797741807 0  0.77 0.04719101123584013 0  0.77 0.04887640449426219 0  0.77 0.05056179775268425 0  0.77 0.0522471910111063 0  0.77 0.05393258426952837 0  0.77 0.05561797752795105 0  0.77 0.05730337078637505 0  0.77 0.05898876404479723 0  0.77 0.0606741573032193 0  0.77 0.06235955056164135 0  0.77 0.06404494382006341 0  0.77 0.06573033707848548 0  0.77 0.06741573033690752 0  0.77 0.06910112359532959 0  0.77 0.07078651685375165 0  0.77 0.0724719101121737 0  0.77 0.07415730337059653 0  0.77 0.07584269662902443 0  0.77 0.07752808988745429 0  0.77 0.07921348314588413 0  0.77 0.08089887640431678 0  0.77 0.08258426966274923 0  0.77 0.08426966292117907 0  0.77 0.08595505617960987 0  0.77 0.08764044943804362 0  0.77 0.08932584269647403 0  0.77 0.09101123595490389 0  0.77 0.09269662921333673 0  0.77 0.09438202247176901 0  0.77 0.09606741573019884 0  0.77 0.09775280898862983 0  0.77 0.09943820224706355 0  0.77 0.1011235955054938 0  0.77 0.1028089887639236 0  0.77 0.1044943820223567 0  0.77 0.1061797752807888 0  0.77 0.1078651685392186 0  0.77 0.1095505617976498 0  0.77 0.1112359550560835 0  0.77 0.1129213483145136 0  0.77 0.1146067415729456 0  0.77 0.1162921348313787 0  0.77 0.1179775280898085 0  0.77 0.1196629213482387 0  0.77 0.1213483146066724 0  0.77 0.1230337078651035 0  0.77 0.1247191011235322 0  0.77 0.1264044943819605 0  0.77 0.1280898876403903 0  0.77 0.1297752808988242 0  0.77 0.1314606741572554 0  0.77 0.1331460674156853 0  0.77 0.1348314606741154 0  0.77 0.1365168539325504 0  0.77 0.1382022471909802 0  0.77 0.13988764044941 0  0.77 0.1415730337078443 0  0.77 0.1432584269662752 0  0.77 0.144943820224705 0  0.77 0.1466292134831355 0  0.77 0.1483146067415701 0  0.7667782426778414 0.15 0  0.7635564853556813 0.15 0  0.7603347280335111 0.15 0  0.757112970711341 0.15 0  0.7538912133891708 0.15 0  0.7506694560670005 0.15 0  0.7474476987448303 0.15 0  0.7442259414226602 0.15 0  0.74100418410049 0.15 0  0.7377824267783197 0.15 0  0.7345606694561496 0.15 0  0.7313389121339794 0.15 0  0.7281171548118092 0.15 0  0.724895397489639 0.15 0  0.7216736401674688 0.15 0  0.7184518828452986 0.15 0  0.7152301255231284 0.15 0  0.7120083682009583 0.15 0  0.708786610878788 0.15 0  0.7055648535566178 0.15 0  0.7023430962344477 0.15 0  0.6991213389122775 0.15 0  0.6958995815901072 0.15 0  0.692677824267937 0.15 0  0.6894560669457669 0.15 0  0.6862343096235967 0.15 0  0.6830125523014264 0.15 0  0.6797907949792563 0.15 0  0.6765690376570861 0.15 0  0.6733472803349159 0.15 0  0.6701255230127456 0.15 0  0.6669037656905755 0.15 0  0.6636820083684053 0.15 0  0.6604602510462351 0.15 0  0.657238493724065 0.15 0  0.6540167364018947 0.15 0  0.6507949790797245 0.15 0  0.6475732217575543 0.15 0  0.644351464435384 0.15 0  0.6411297071132231 0.15 0  0.6379079497910645 0.15 0  0.634686192468906 0.15 0  0.6314644351467468 0.15 0  0.6282426778245765 0.15 0  0.6250209205024085 0.15 0  0.62179916318025 0.15 0  0.6185774058580914 0.15 0  0.6153556485359328 0.15 0  0.6121338912137689 0.15 0  0.6089121338915987 0.15 0  0.6056903765694354 0.15 0  0.6024686192472768 0.15 0  0.5992468619251182 0.15 0  0.5960251046029597 0.15 0  0.5928033472807912 0.15 0  0.589581589958621 0.15 0  0.5863598326364508 0.15 0  0.5831380753142792 0.15 0  0.5799163179920974 0.15 0  0.57669456
[...]
<PointData  Scalars="pressure"> 
<DataArray  type="Float64"  Name="pressure"  format="ascii">1.7765527441706839e+04  2.1012831683361584e+00  -1.6604890938063119e+00  1.7768938628947926e+04  1.7739665584452541e+04  1.7720027536509533e+04  1.7702692835672464e+04  1.2878807027636802e+04  1.2862073562331101e+04  1.2846935177303736e+04  1.2831936703464529e+04  1.2817052897156989e+04  1.2802259386738113e+04  1.2787536222061099e+04  1.2772871508204866e+04  1.2758257909850028e+04  1.2743690836332886e+04  1.2729167515168654e+04  1.2714686455735069e+04  1.2700247119120895e+04  1.2685849706308922e+04  1.2671495017808811e+04  1.2657184358398297e+04  1.2642919471478799e+04  1.2628702493554654e+04  1.2614535922812071e+04  1.2600422597851722e+04  1.2586365683911014e+04  1.2572368664723854e+04  1.2558435338687552e+04  1.2544569818345990e+04  1.2530776532417061e+04  1.2517060229729766e+04  1.2503425984515583e+04  1.2489879202534077e+04  1.2476425627512372e+04  1.2463071347346591e+04  1.2449822799452408e+04  1.2436686774559779e+04  1.2423670418121665e+04  1.2410781228343176e+04  1.2398027049627939e+04  1.2385416059973109e+04  1.2372956750507910e+04  1.2360657894939823e+04  1.2348528506114695e+04  1.2336577776156408e+04  1.2324814995640332e+04  1.2313249445822225e+04  1.2301890255829428e+04  1.2290746213461387e+04  1.2279825512992007e+04  1.2269135414521650e+04  1.2258681773877317e+04  1.2248468373491532e+04  1.2238495929652923e+04  1.2228760539528514e+04  1.2219251087514085e+04  1.2209944559467909e+04  1.2200796803606245e+04  1.2191722930947904e+04  1.2182548766824017e+04  1.2172739497904538e+04  1.2159836892547875e+04  1.2135616121062476e+04  1.2094914534771886e+04  1.2054460779948125e+04  1.2014052523654567e+04  1.1974473232752182e+04  1.1936810092854685e+04  1.1902381617443927e+04  1.1858489361187190e+04  1.1796382756018940e+04  1.1741537887440787e+04  1.1689354729612447e+04  1.1638547808020498e+04  1.1588618414225230e+04  1.1539307110635027e+04  1.1490461430874022e+04  1.1441984216818621e+04  1.1393809582714111e+04  1.1345890568829347e+04  1.1298192249225613e+04  1.1250687622282010e+04  1.1203355029096769e+04  1.1156176462338966e+04  1.1109136420564955e+04  1.1062221110878485e+04  1.1015417881808640e+04  1.0968714812597866e+04  1.0922100411101190e+04  1.0875563388433811e+04  1.0829092488689437e+04  1.0782676358831457e+04  1.0736303448551422e+04  1.0689961933239561e+04  1.0643639655654635e+04  1.0597324083663760e+04  1.0551002282690926e+04  1.0504660902346819e+04  1.0458286177169290e+04  1.0411863941523074e+04  1.0365379658538082e+04  1.0318818462564986e+04  1.0272165214065526e+04  1.0225404565218143e+04  1.0178521033891784e+04  1.0131499083112265e+04  1.0084323202786471e+04  1.0036977990312502e+04  9.9894482268140764e+03  9.9417189460897298e+03  9.8937754939299630e+03  9.8456035761749208e+03  9.7971892946937151e+03  9.7485191712930209e+03  9.6995801603373784e+03  9.6503596515332574e+03  9.6008454648476363e+03  9.5510258398779752e+03  9.5008894221550145e+03  9.4504252488491911e+03  9.3996227361853416e+03  9.3484716705712726e+03  9.2969622050490634e+03  9.2450848622116318e+03  9.1928305442256460e+03  9.1401905500946923e+03  9.0871565998087044e+03  9.0337208645821411e+03  8.9798760020018253e+03  8.9256151946003665e+03  8.8709321901532458e+03  8.8158213418723208e+03  8.7602776466367213e+03  8.7042967794610759e+03  8.6478751225419346e+03  8.5910097874348539e+03  8.5336986291832563e+03  8.4759402515258262e+03  8.4177340026362235e+03  8.3590799611774310e+03  8.2999789127664699e+03  8.2404323172278000e+03  8.1804422672556984e+03  8.1200114392948344e+03  8.0591430375840746e+03  7.9978407323867305e+03  7.9361085934553057e+03  7.8739510197544432e+03  7.8113726664009555e+03  7.7483783696824485e+03  7.6849730708979723e+03  7.6211617396335932e+03  7.5569492969549638e+03  7.4923405388766732e+03  7.4273400603599366e+03  7.3619521800073608e+03  7.2961808655648492e+03  7.2300296603143106e+03  7.1635016104443503e+03  7.0965991935227657e+03  7.0293242482572268e+03  6.9616779058220473e+03  6.8936605231431640e+03  6.8252716186613379e+03  6.7565098112403120e+03  6.6873727630341555e+03  6.6178571272773361e+03  6.5479585021069579e+03  6.4776713916545514e+03  6.4069891757562373e+03  6.3359040897153882e+03  6.2644072155952153e+03  6.1924884865314834e+03  6.1201367055096734e+03  6.0473395799545096e+03  5.9740837733272147e+03  5.9003549746995832e+03  5.8261379869928141e+03  5.7514168342149205e+03  5.6761748876155534e+03  5.6003950102103299e+03  5.5240597186099312e+03  5.4471513605467580e+03  5.3696523059356659e+03  5.2915451487584378e+03  5.2128129165555711e+03  5.1334392838581271e+03  5.0534087855381567e+03  4.9727070258146159e+03  4.8913208785439110e+03  4.8092386744766363e+03  4.7264503713688828e+03  4.6429477032050099e+03  4.5587243053111806e+03  4.4737758127831285e+03  4.3880999304053221e+03  4.3016964730507989e+03  4.2145673763921941e+03  4.1267166785837226e+03  4.0381504743425689e+03  3.9488768435468742e+03  3.8589057570400810e+03  3.7682489627664509e+03  3.6769198556646334e+03  3.5849333348985338e+03  3.4923056520220280e+03  3.3990542535771510e+03  3.3051976214160150e+03  3.2107551137563532e+03  3.1157468096355738e+03  3.0201933590486151e+03  2.9241158406634040e+03  2.8275356286096671e+03  2.7304742694616516e+03  2.6329533701862433e+03  2.5349944975066715e+03  2.4366190888612623e+03  2.3378483748998065e+03  2.2387033132635602e+03  2.1392045332485022e+03  2.0393722908304028e+03  1.9392264334546969e+03  1.8387863739455772e+03  1.7380710728688287e+03  1.6370990286972558e+03  1.5358882751630970e+03  1.4344563852577403e+03  1.3328204814640192e+03  1.2309972520016538e+03  1.1290029732111234e+03  1.0268535388160640e+03  9.2456449799621078e+02  8.2215110676656047e+02  7.1962840302327265e+02  6.1701132827604067e+02  5.1431496046554139e+02  4.1155527542037993e+02  3.0875158991294489e+02  2.0591705964253953e+02  1.0305180318344014e+02  4.3697167828936900e-01  2.2201924229247379e-02  4.2353340978727215e-03  2.0906274609640814e-03  5.4290742984803198e-04  -4.4687615366419782e-04  -1.1185320935029322e-03  -1.6309672842509202e-03  -2.0593031546080006e-03  -2.4399572658658181e-03  -2.7916650651915076e-03  -3.1245529561046924e-03  -3.4443150531789633e-03  -3.7542497577216804e-03  -4.0563023391470780e-03  -4.3516227769955446e-03  -4.6408765021842243e-03  -4.9244239193983056e-03  -5.2024275939650472e-03  -5.4749181872635541e-03  -5.7418361338335937e-03  -6.0030586525790320e-03  -6.2584176682328801e-03  -6.5077119722339212e-03  -6.7507156598949469e-03  -6.9871841192096582e-03  -7.2168583852810437e-03  -7.4394683909517244e-03  -7.6547354652029900e-03  -7.8623743157138735e-03  -8.0620946575383975e-03  -8.2536025996408462e-03  -8.4366018678269459e-03  -8.6107949195566181e-03  -8.7758839898768193e-03  -8.9315720967975479e-03  -9.0775640262115900e-03  -9.2135673106138426e-03  -9.3392932112562072e-03  -9.4544577103053140e-03  -9.5587825172446985e-03  -9.6519960909182308e-03  -9.7338346781075894e-03  -9.8040433671162074e-03  -9.8623771542466244e-03  -9.9086020202665218e-03  -9.9424960122284148e-03  -9.9638503255524320e-03  -9.9724703813120208e-03  -9.9681768911651213e-03  -9.9508069026536562e-03  -9.9202148169740267e-03  -9.8762733695917839e-03  -9.8188745627135615e-03  -9.7479305387892720e-03  -9.6633743813996521e-03  -9.5651608277690821e-03  -9.4532668757042089e-03  -9.3276922632473946e-03  -9.1884597962162140e-03  -9.0356154910125903e-03  -8.8692284944812596e-03  -8.6893907298606424e-03  -8.4962162038513516e-03  -8.2898398886811497e-03  -8.0704160657815924e-03  -7.8381159771506274e-03  -7.5931245758250202e-03  -7.3356360934060628e-03  -7.0658480371861201e-03  -6.7839530926557395e-03  -6.4901282283058147e-03  -6.1845200846835802e-03  -5.8672255132430065e-03  -5.5382660318213060e-03  -5.1975552914219339e-03  -4.8448601976543628e-03  -4.4797609630244659e-03  -4.1016269718435342e-03  -3.7096480595850767e-03  -3.3029675141300770e-03  -2.8806679496890838e-03  -2.4377149783939437e-03  -1.8926881622550464e-03  2.3039906833458288e-05  1.7152961049927525e-02  1.3258454155436292e-01  7.4991585978910688e-02  1.0861651563750803e+02  2.1886649365896577e+02  3.2850086055148205e+02  4.3815741522613428e+02  5.4787545190378000e+02  6.5767402685613285e+02  7.6757489903836597e+02  8.7759911578855906e+02  9.8776779041597888e+02  1.0981026437651581e+03  1.2086263117643032e+03  1.3193625848935010e+03  1.4303366262899208e+03  1.5415751880285914e+03  1.6531068364524187e+03  1.7649621935547825e+03  1.8771741997451425e+03  1.9897784026713136e+03  2.1028132765888208e+03  2.2163205767917625e+03  2.3303457336868632e+03  2.4449382910574645e+03  2.5601523927492481e+03  2.6760473211508702e+03  2.7926880890178895e+03  2.9101460827010114e+03  3.0284997485175745e+03  3.1478353028502852e+03  3.2682474271049432e+03  3.3898398747967676e+03  3.5127258587460888e+03  3.6370279813057077e+03  3.7628772810736900e+03  3.8904106197938841e+03  4.0197649681872786e+03  4.1510658375352068e+03  4.2844043878002722e+03  4.4197917230338990e+03  4.5570642634490714e+03  4.6956765069837129e+03  4.8342344069893652e+03  4.9695549102583727e+03  5.0954630038460537e+03  5.2031818902714958e+03  5.2857703196850025e+03  5.3432744205798726e+03  5.3831264920788517e+03  5.4177156838657438e+03  5.4545870877453490e+03  5.4959455979442782e+03  5.5388354177820920e+03  5.5789033813664964e+03  5.6122168655601790e+03  5.6482946251118310e+03  5.6863964436936731e+03  5.7263364456353311e+03  5.7677612198396446e+03  5.8091903884876783e+03  5.8473624297369552e+03  5.8849612685650536e+03  5.9308146307197794e+03  5.9772551254191649e+03  6.0305103696019642e+03  6.0910061198307658e+03  6.1534927376007581e+03  6.2181119008100568e+03  6.2856924530529786e+03  6.3568144647024701e+03  6.4318757525493820e+03  6.5109764926325552e+03  6.5924894346290976e+03  6.6710350324074989e+03  6.7444423896059361e+03  6.8204919310427767e+03  6.9007645692965643e+03  6.9845683821426528e+03  7.0623071869375726e+03  7.1283932745930651e+03  7.1999162549745006e+03  7.2765079134161360e+03  1.0086084373715748e+04  1.0177401682722539e+04  1.0269288612561211e+04  1.0360194532286319e+04  1.0461183898964795e+04  1.0572288138326812e+04  7.7906181955683087e+03  7.8704770605087415e+03  7.9335382646216476e+03  1.0972915392835277e+04  1.1053867229533153e+04  1.1140119662014851e+04  1.1227830194817159e+04  1.1316390784630921e+04  1.1405054066900337e+04  1.1493175859662853e+04  1.1579642509241474e+04  1.1659898562962453e+04  8.5607499236572639e+03  1.1833246126290247e+04  1.1905743635339033e+04  1.1982355474475960e+04  8.7997868911062978e+03  1.2155124725003408e+04  1.2221492538954852e+04  8.9490777618034426e+03  1.2345594590147559e+04  9.0482277869087629e+03  1.2489244473584113e+04  1.2553455479657787e+04  9.1902237243074978e+03  1.2680323007719391e+04  1.2742136137210482e+04  9.3271970089867209e+03  1.2861201968040048e+04  1.2914099720186559e+04  1.2966500262618851e+04  9.4906900822376447e+03  1.3082178080730695e+04  9.5710042883515962e+03  9.6164151663668417e+03  1.3255990686969670e+04  1.3305910789044767e+04  9.7381920974412333e+03  1.3426198014164509e+04  1.3477024694084939e+04  9.8631937815661586e+03  1.3597526759497476e+04  1.3647282864113888e+04  9.9841683110198646e+03  1.0027036470802272e+04  1.0068259130764514e+04  1.0111370434370152e+04  1.3934913721493687e+04  1.3986481404973827e+04  1.4037119193619819e+04  1.0267540069515600e+04  1.0311641849112357e+04  1.4205497168973812e+04  1.0387935824273654e+04  1.0430369150966455e+04  1.0473291459864391e+04  1.4432050664533977e+04  1.4484617553134862e+04  1.4539342187422286e+04  1.4591346998540654e+04  1.0672574612144865e+04  1.0718386398399514e+04  1.4769332039372477e+04  1.4819750724937825e+04  1.0841239123360410e+04  1.4941108376235341e+04  1.4995658575418485e+04  1.5053023921374497e+04  1.5112422274986382e+04  1.5175878098857360e+04  1.5228632341332230e+04  1.1124298704734369e+04  1.1163126481891497e+04  1.1200042291699607e+04  1.1236896655594364e+04  1.1273554878120600e+04  1.1309894428031384e+04  1.1345774136343360e+04  1.1381088985253418e+04  1.1415768707867304e+04  1.1449828668121174e+04  1.1483404462577322e+04  1.1516632745483003e+04  1.1549551724460245e+04  1.1582553750916777e+04  1.1617292965130468e+04  1.1660214042381658e+04  1.1711260933984951e+04  1.1737872682013329e+04  1.1766823401752035e+04  1.1793588709873291e+04  1.1818763519069833e+04  1.1843144676683878e+04  1.1867065261882281e+04  1.1890951823166122e+04  1.1914442398803114e+04  1.1939655849332656e+04  1.1969544528218285e+04  1.1987788482483209e+04  1.2015418958631599e+04  1.2051463465581179e+04  1.2074588650858059e+04  1.6602662239042442e+04  1.2128116928199377e+04  1.2153460359261746e+04  1.6704849593834115e+04  1.2187575453338861e+04  1.2210226275957768e+04  1.6782960713808989e+04  1.2244397268522674e+04  1.2264633049874294e+04  1.6855502294774782e+04  1.6870679482590724e+04  1.2305617042606766e+04  1.6916830084671899e+04  1.6944351772551981e+04  1.2357647715225998e+04  1.2378840056678615e+04  1.2395751665256519e+04  1.7038512253290020e+04  1.2431521009299557e+04  1.2451013660490818e+04  1.2467213398341069e+04  1.7133685650217347e+04  1.2494189930006705e+04  1.2514390142745176e+04  1.2531106662403605e+04  1.2547058938989734e+04  1.2560963641005934e+04  1.2572475136551548e+04  1.2589694550609422e+04  1.2605585674002356e+04  1.2622437696370209e+04  1.2640624472319207e+04  1.2658820418935082e+04  1.2676505621088847e+04  1.2693652807142975e+04  1.2710173193620947e+04  1.2726646647541062e+04  1.2744356688869328e+04  1.2762545509045713e+04  1.2780478048760704e+04  1.2797625045688452e+04  1.2813847492604647e+04  1.2830294125019931e+04  1.2845799959914812e+04  1.2857283851550072e+04  1.2871149241445444e+04  1.2886841651796460e+04  1.7708724574467946e+04  1.7726277030859586e+04  1.7745987294501847e+04  1.7766575963831317e+04  1.7765469864332186e+04  1.7764706013790943e+04  1.7763992135115539e+04  1.7763266551006862e+04  1.7762523430707297e+04  1.7761767808926590e+04  1.7761006301150272e+04  1.7760245233401416e+04  1.7759490239403145e+04  1.7758746193980987e+04  1.7758017239117566e+04  1.7757306836940290e+04  1.7756617830107964e+04  1.7755952503768855e+04  1.7755312646970749e+04  1.7754699612215776e+04  1.7754114372072549e+04  1.7753557571974347e+04  1.7753029578604281e+04  1.7752530523548969e+04  1.7752060342147866e+04  1.7751618807657189e+04  1.7751205560982417e+04  1.7750820136319766e+04  1.7750461983092024e+04  1.7750130484580415e+04  1.7749824973648367e+04  1.7749544745933010e+04  1.7749289070852639e+04  1.7749057200745454e+04  1.7748848378420815e+04  1.7748661843370977e+04  1.7748496836859562e+04  1.7748352606073749e+04  1.7748228407501065e+04  1.7748123509668058e+04  1.7748037195358309e+04  1.7747968763408760e+04  1.7747917530168899e+04  1.7747882830693987e+04  1.7747864019732813e+04  1.7747860472561068e+04  1.7747871585704313e+04  1.7747896777587714e+04  1.7747935489145242e+04  1.7747987184416426e+04  1.7748051351156526e+04  1.7748127501482795e+04  1.7748215172578930e+04  1.7748313927478623e+04  1.7748423355948806e+04  1.7748543075494668e+04  1.7748672732508960e+04  1.7748812003590418e+04  1.7748960597059286e+04  1.7749118254700996e+04  1.7749284753774104e+04  1.7749459909324156e+04  1.7749643576852028e+04  1.7749835655393603e+04  1.7750036091077651e+04  1.7750244881240280e+04  1.7750462079187510e+04  1.7750687799712596e+04  1.7750922225490987e+04  1.7751165614491572e+04  1.7751418308557171e+04  1.7751680743314570e+04  1.7751953459567641e+04  1.7752237116290744e+04  1.7752532505250878e+04  1.7752840567098468e+04  1.7753162408404558e+04  1.7753499318452501e+04  1.7753852783395952e+04  1.7754224493313981e+04  1.7754616334206345e+04  1.7755030351488516e+04  1.7755468664084900e+04  1.7755933301796456e+04  1.7756425945147839e+04  1.7756947593196499e+04  1.7757498297908562e+04  1.7758077420652360e+04  1.7758688362649620e+04  1.7759390083759881e+04  1.7760680725930881e+04  1.7740033794036000e+04  1.7739477890805327e+04  1.7738848864909258e+04  1.7738239818570153e+04  1.7737657832739846e+04  1.7737105323587777e+04  1.7736583703533885e+04  1.7736092596495120e+04  1.7735630390208004e+04  1.7735194885783716e+04  1.7734783716408132e+04  1.7734394575149421e+04  1.7734025326199084e+04  1.7733674050582911e+04  1.7733339056604822e+04  1.7733018872286044e+04  1.7732712229448658e+04  1.7732418044712893e+04  1.7732135400185623e+04  1.7731863525216708e+04  1.7731601779825331e+04  1.7731349639980686e+04  1.7731106684705766e+04  1.7730872584869867e+04  1.7730647093494361e+04  1.7730430037388211e+04  1.7730221309938112e+04  1.7730020864894352e+04  1.7729828711011789e+04  1.7729644907424266e+04  1.7729469559647474e+04  1.7729302816121261e+04  1.7729144865215036e+04  1.7728995932632039e+04  1.7728856279157415e+04  1.7728726198703316e+04  1.7728606016610986e+04  1.7728496088175296e+04  1.7728396797361474e+04  1.7728308555687618e+04  1.7728231801248872e+04  1.7728166997861612e+04  1.7728114634306668e+04  1.7728075223651802e+04  1.7728049302633135e+04  1.7728037431074808e+04  1.7728040191324697e+04  1.7728058187681821e+04  1.7728092045788246e+04  1.7728142411954330e+04  1.7728209952381530e+04  1.7728295352240693e+04  1.7728399314556671e+04  1.7728522558841163e+04  1.7728665819404960e+04  1.7728829843268515e+04  1.7729015387574505e+04  1.7729223216389091e+04  1.7729454096758058e+04  1.7729708793861264e+04  1.7729988065082023e+04  1.7730292652778968e+04  1.7730623275515005e+04  1.7730980617463334e+04  1.7731365315673753e+04  1.7731777944846519e+04  1.7732218999227225e+04  1.7732688871209688e+04  1.7733187826218473e+04  1.7733715973446753e+04  1.7734273232057083e+04  1.7734859292523910e+04  1.7735473572919858e+04  1.7736115170136145e+04  1.7736782806289270e+04  1.7737474770898891e+04  1.7738188859788810e+04  1.7738922311963939e+04  1.7739671745724918e+04  1.7740433094616630e+04  1.7741201542149138e+04  1.7741971452279198e+04  1.7742736291257930e+04  1.7743488498148778e+04  1.7744218804052671e+04  1.7744911433544708e+04  1.7745518695506649e+04  1.7745877806045981e+04  1.7719993448771038e+04  1.7719518839533746e+04  1.7718933375544690e+04  1.7718306646328219e+04  1.7717705257143443e+04  1.7717145587009651e+04  1.7716626803986142e+04  1.7716144292337671e+04  1.7715693287824532e+04  1.7715269672639326e+04  1.7714870028455971e+04  1.7714491530088457e+04  1.7714131830044375e+04  1.7713788964971231e+04  1.7713461284626159e+04  1.7713147398185032e+04  1.7712846132999286e+04  1.7712556502231040e+04  1.7712277678937084e+04  1.7712008974963690e+04  1.7711749823529033e+04  1.7711499764700191e+04  1.7711258433186937e+04  1.7711025548018097e+04  1.7710800903765634e+04  1.7710584363052898e+04  1.7710375850136086e+04  1.7710175345388150e+04  1.7709982880545249e+04  1.7709798534600897e+04  1.7709622430252355e+04  1.7709454730819929e+04  1.7709295637572814e+04  1.7709145387405737e+04  1.7709004250819271e+04  1.7708872530164044e+04  1.7708750558114585e+04  1.7708638696343602e+04  1.7708537334371111e+04  1.7708446888565926e+04  1.7708367801279277e+04  1.7708300540092237e+04  1.7708245597159435e+04  1.7708203488632273e+04  1.7708174754144955e+04  1.7708159956345789e+04  1.7708159680455476e+04  1.7708174533831931e+04  1.7708205145519150e+04  1.7708252165754009e+04  1.7708316265400976e+04  1.7708398135279531e+04  1.7708498485342730e+04  1.7708618043657523e+04  1.7708757555128250e+04  1.7708917779893378e+04  1.7709099491311979e+04  1.7709303473440767e+04  1.7709530517882897e+04  1.7709781419867988e+04  1.7710056973395949e+04  1.7710357965247029e+04  1.7710685167624913e+04  1.7711039329159885e+04  1.7711421163953532e+04  1.7711831338297772e+04  1.7712270454647496e+04  1.7712739032373345e+04  1.7713237484769641e+04  1.7713766091751208e+04  1.7714324967648561e+04  1.7714914023519508e+04  1.7715532923456660e+04  1.7716181034516554e+04  1.7716857370173373e+04  1.7717560527672656e+04  1.7718288620391639e+04  1.7719039207276535e+04  1.7719809222166434e+04  1.7720594904358015e+04  1.7721391721512518e+04  1.7722194237528907e+04  1.7