<?xml version="1.0"?>
<VTKFile type="UnstructuredGrid"  version="0.1"  >
<UnstructuredGrid>
<Piece  NumberOfPoints="21600" NumberOfCells="42542">
<Points>
<DataArray  type="Float64"  NumberOfComponents="3"  format="ascii">0 0 0  0.77 0 0  0.77 0.15 0  0 0.15 0  0.003221757322170014 0 0  0.006443514644340046 0 0  0.009665271966510193 0 0  0.01288702928868034 0 0  0.01610878661085048 0 0  0.01933054393302049 0 0  0.02255230125519027 0 0  0.02577405857735967 0 0  0.02899581589952872 0 0  0.03221757322169801 0 0  0.03543933054386744 0 0  0.03866108786603686 0 0  0.04188284518820627 0 0  0.0451046025103757 0 0  0.04832635983254521 0 0  0.05154811715471607 0 0  0.05476987447688695 0 0  0.05799163179905782 0 0  0.06121338912122846 0 0  0.06443514644339859 0 0  0.06765690376556875 0 0  0.0708786610877389 0 0  0.07410041840990904 0 0  0.0773221757320792 0 0  0.08054393305425039 0 0  0.08376569037642198 0 0  0.0869874476985936 0 0  0.09020920502076518 0 0  0.0934309623429339 0 0  0.0966527196651024 0 0  0.09987447698726967 0 0  0.1030962343094369 0 0  0.1063179916316041 0 0  0.1095397489537714 0 0  0.1127615062759386 0 0  0.1159832635981051 0 0  0.1192050209202709 0 0  0.1224267782424358 0 0  0.1256485355646001 0 0  0.1288702928867644 0 0  0.1320920502089288 0 0  0.1353138075310958 0 0  0.1385355648532632 0 0  0.1417573221754333 0 0  0.1449790794976035 0 0  0.1482008368197736 0 0  0.1514225941419428 0 0  0.1546443514641101 0 0  0.157866108786276 0 0  0.1610878661084403 0 0  0.1643096234306047 0 0  0.167531380752769 0 0  0.1707531380749333 0 0  0.1739748953970977 0 0  0.177196652719262 0 0  0.1804184100414264 0 0  0.1836401673635935 0 0  0.1868619246857611 0 0  0.1900836820079313 0 0  0.1933054393301014 0 0  0.1965271966522716 0 0  0.1997489539744406 0 0  0.2029707112966078 0 0  0.2061924686187736 0 0  0.209414225940938 0 0  0.2126359832631022 0 0  0.2158577405852666 0 0  0.219079497907431 0 0  0.2223012552295953 0 0  0.2255230125517597 0 0  0.2287447698739242 0 0  0.2319665271960914 0 0  0.2351882845182592 0 0  0.2384100418404293 0 0  0.2416317991625994 0 0  0.2448535564847696 0 0  0.2480753138069371 0 0  0.2512970711291014 0 0  0.2545188284512658 0 0  0.2577405857734302 0 0  0.2609623430955986 0 0  0.2641841004177688 0 0  0.2674058577399389 0 0  0.270627615062109 0 0  0.2738493723842792 0 0  0.2770711297064487 0 0  0.280292887028613 0 0  0.2835146443507774 0 0  0.2867364016729417 0 0  0.2899581589951061 0 0  0.2931799163172705 0 0  0.2964016736394348 0 0  0.2996234309615992 0 0  0.3028451882837672 0 0  0.3060669456059373 0 0  0.3092887029281075 0 0  0.3125104602502776 0 0  0.3157322175724478 0 0  0.3189539748946177 0 0  0.322175732216782 0 0  0.3253974895389464 0 0  0.3286192468611107 0 0  0.3318410041832751 0 0  0.3350627615054395 0 0  0.3382845188276038 0 0  0.3415062761497681 0 0  0.3447280334719325 0 0  0.3479497907940968 0 0  0.3511715481162612 0 0  0.3543933054384255 0 0  0.3576150627605947 0 0  0.3608368200827649 0 0  0.364058577404935 0 0  0.3672803347271051 0 0  0.3705020920492753 0 0  0.373723849371444 0 0  0.3769456066936084 0 0  0.3801673640157748 0 0  0.383389121337945 0 0  0.3866108786601209 0 0  0.3898326359823028 0 0  0.3930543933044846 0 0  0.3962761506266662 0 0  0.399497907948848 0 0  0.4027196652710298 0 0  0.4059414225932116 0 0  0.4091631799153934 0 0  0.4123849372375751 0 0  0.4156066945597569 0 0  0.4188284518819387 0 0  0.4220502092041222 0 0  0.4252719665263097 0 0  0.4284937238484974 0 0  0.4317154811706849 0 0  0.4349372384928725 0 0  0.4381589958150601 0 0  0.4413807531372476 0 0  0.4446025104594352 0 0  0.4478242677816181 0 0  0.4510460251037998 0 0  0.4542677824259815 0 0  0.4574895397481634 0 0  0.4607112970703451 0 0  0.4639330543925269 0 0  0.4671548117147087 0 0  0.4703765690368904 0 0  0.4735983263590722 0 0  0.4768200836812568 0 0  0.4800418410034444 0 0  0.483263598325632 0 0  0.4864853556478196 0 0  0.4897071129700028 0 0  0.4929288702921845 0 0  0.4961506276143663 0 0  0.4993723849365479 0 0  0.5025941422587239 0 0  0.5058158995809008 0 0  0.5090376569030826 0 0  0.5122594142252677 0 0  0.515481171547461 0 0  0.5187029288696494 0 0  0.5219246861918312 0 0  0.525146443514013 0 0  0.5283682008361947 0 0  0.5315899581583845 0 0  0.5348117154805778 0 0  0.5380334728027617 0 0  0.5412552301249435 0 0  0.5444769874471141 0 0  0.5476987447692853 0 0  0.550920502091467 0 0  0.5541422594136513 0 0  0.5573640167358447 0 0  0.560585774058034 0 0  0.5638075313802158 0 0  0.5670292887023975 0 0  0.5702510460245793 0 0  0.5734728033467682 0 0  0.5766945606689615 0 0  0.579916317991155 0 0  0.5831380753133483 0 0  0.5863598326355314 0 0  0.5895815899577131 0 0  0.5928033472798949 0 0  0.5960251046020785 0 0  0.5992468619242718 0 0  0.6024686192464619 0 0  0.6056903765686437 0 0  0.6089121338908206 0 0  0.6121338912129908 0 0  0.6153556485351673 0 0  0.618577405857349 0 0  0.6217991631795386 0 0  0.625020920501732 0 0  0.6282426778239159 0 0  0.6314644351460976 0 0  0.6346861924682795 0 0  0.6379079497904622 0 0  0.6411297071126555 0 0  0.6443514644348465 0 0  0.6475732217570283 0 0  0.650794979079206 0 0  0.6540167364013761 0 0  0.6572384937235518 0 0  0.6604602510457335 0 0  0.6636820083679225 0 0  0.6669037656901158 0 0  0.6701255230123004 0 0  0.6733472803344823 0 0  0.6765690376566641 0 0  0.6797907949788459 0 0  0.6830125523010393 0 0  0.686234309623231 0 0  0.6894560669454127 0 0  0.6926778242675914 0 0  0.6958995815897615 0 0  0.6991213389119363 0 0  0.7023430962341181 0 0  0.7055648535563062 0 0  0.7087866108784994 0 0  0.712008368200685 0 0  0.7152301255228668 0 0  0.7184518828450486 0 0  0.7216736401672305 0 0  0.724895397489423 0 0  0.7281171548116155 0 0  0.7313389121337973 0 0  0.7345606694559768 0 0  0.7377824267781468 0 0  0.7410041841003209 0 0  0.7442259414225026 0 0  0.7474476987446899 0 0  0.7506694560668832 0 0  0.7538912133890696 0 0  0.7571129707112513 0 0  0.760334728033433 0 0  0.7635564853556149 0 0  0.7667782426778067 0 0  0.77 0.001685393258423789 0  0.77 0.003370786516847669 0  0.77 0.005056179775271247 0  0.77 0.006741573033694517 0  0.77 0.008426966292117821 0  0.77 0.01011235955054176 0  0.77 0.01179775280896623 0  0.77 0.0134831460673904 0  0.77 0.01516853932581489 0  0.77 0.01685393258423891 0  0.77 0.01853932584266291 0  0.77 0.02022471910108589 0  0.77 0.02191011235950794 0  0.77 0.02359550561792999 0  0.77 0.02528089887635205 0  0.77 0.02696629213477411 0  0.77 0.02865168539319714 0  0.77 0.03033707865161956 0  0.77 0.03202247191004162 0  0.77 0.03370786516846367 0  0.77 0.03539325842688572 0  0.77 0.03707865168530778 0  0.77 0.03876404494372984 0  0.77 0.0404494382021519 0  0.77 0.04213483146057394 0  0.77 0.04382022471899601 0  0.77 0.04550561797741807 0  0.77 0.04719101123584013 0  0.77 0.04887640449426219 0  0.77 0.05056179775268425 0  0.77 0.0522471910111063 0  0.77 0.05393258426952837 0  0.77 0.05561797752795105 0  0.77 0.05730337078637505 0  0.77 0.05898876404479723 0  0.77 0.0606741573032193 0  0.77 0.06235955056164135 0  0.77 0.06404494382006341 0  0.77 0.06573033707848548 0  0.77 0.06741573033690752 0  0.77 0.06910112359532959 0  0.77 0.07078651685375165 0  0.77 0.0724719101121737 0  0.77 0.07415730337059653 0  0.77 0.07584269662902443 0  0.77 0.07752808988745429 0  0.77 0.07921348314588413 0  0.77 0.08089887640431678 0  0.77 0.08258426966274923 0  0.77 0.08426966292117907 0  0.77 0.08595505617960987 0  0.77 0.08764044943804362 0  0.77 0.08932584269647403 0  0.77 0.09101123595490389 0  0.77 0.09269662921333673 0  0.77 0.09438202247176901 0  0.77 0.09606741573019884 0  0.77 0.09775280898862983 0  0.77 0.09943820224706355 0  0.77 0.1011235955054938 0  0.77 0.1028089887639236 0  0.77 0.1044943820223567 0  0.77 0.1061797752807888 0  0.77 0.1078651685392186 0  0.77 0.1095505617976498 0  0.77 0.1112359550560835 0  0.77 0.1129213483145136 0  0.77 0.1146067415729456 0  0.77 0.1162921348313787 0  0.77 0.1179775280898085 0  0.77 0.1196629213482387 0  0.77 0.1213483146066724 0  0.77 0.1230337078651035 0  0.77 0.1247191011235322 0  0.77 0.1264044943819605 0  0.77 0.1280898876403903 0  0.77 0.1297752808988242 0  0.77 0.1314606741572554 0  0.77 0.1331460674156853 0  0.77 0.1348314606741154 0  0.77 0.1365168539325504 0  0.77 0.1382022471909802 0  0.77 0.13988764044941 0  0.77 0.1415730337078443 0  0.77 0.1432584269662752 0  0.77 0.144943820224705 0  0.77 0.1466292134831355 0  0.77 0.1483146067415701 0  0.7667782426778414 0.15 0  0.7635564853556813 0.15 0  0.7603347280335111 0.15 0  0.757112970711341 0.15 0  0.7538912133891708 0.15 0  0.7506694560670005 0.15 0  0.7474476987448303 0.15 0  0.7442259414226602 0.15 0  0.74100418410049 0.15 0  0.7377824267783197 0.15 0  0.7345606694561496 0.15 0  0.7313389121339794 0.15 0  0.7281171548118092 0.15 0  0.724895397489639 0.15 0  0.7216736401674688 0.15 0  0.7184518828452986 0.15 0  0.7152301255231284 0.15 0  0.7120083682009583 0.15 0  0.708786610878788 0.15 0  0.7055648535566178 0.15 0  0.7023430962344477 0.15 0  0.6991213389122775 0.15 0  0.6958995815901072 0.15 0  0.692677824267937 0.15 0  0.6894560669457669 0.15 0  0.6862343096235967 0.15 0  0.6830125523014264 0.15 0  0.6797907949792563 0.15 0  0.6765690376570861 0.15 0  0.6733472803349159 0.15 0  0.6701255230127456 0.15 0  0.6669037656905755 0.15 0  0.6636820083684053 0.15 0  0.6604602510462351 0.15 0  0.657238493724065 0.15 0  0.6540167364018947 0.15 0  0.6507949790797245 0.15 0  0.6475732217575543 0.15 0  0.644351464435384 0.15 0  0.6411297071132231 0.15 0  0.6379079497910645 0.15 0  0.634686192468906 0.15 0  0.6314644351467468 0.15 0  0.6282426778245765 0.15 0  0.6250209205024085 0.15 0  0.62179916318025 0.15 0  0.6185774058580914 0.15 0  0.6153556485359328 0.15 0  0.6121338912137689 0.15 0  0.6089121338915987 0.15 0  0.6056903765694354 0.15 0  0.6024686192472768 0.15 0  0.5992468619251182 0.15 0  0.5960251046029597 0.15 0  0.5928033472807912 0.15 0  0.589581589958621 0.15 0  0.5863598326364508 0.15 0  0.5831380753142792 0.15 0  0.5799163179920974 0.15 0  0.57669456
[...]
<PointData  Scalars="pressure"> 
<DataArray  type="Float64"  Name="pressure"  format="ascii">1.1089692372636790e+04  8.1911375311418733e-01  -9.7448151335997546e-02  1.1102891055717510e+04  1.1063823381312612e+04  1.1044157428829054e+04  1.1026780324082329e+04  8.0155876907852689e+03  7.9987728105241849e+03  7.9835395585859787e+03  7.9684277562348980e+03  7.9534116678561577e+03  7.9384662967642180e+03  7.9235709639479765e+03  7.9087129632149417e+03  7.8938840568601381e+03  7.8790786545929723e+03  7.8642928821706791e+03  7.8495240403935977e+03  7.8347702701793141e+03  7.8200303357691018e+03  7.8053034791296332e+03  7.7905893191887681e+03  7.7758877804106196e+03  7.7611990412311516e+03  7.7465234963542707e+03  7.7318617289966369e+03  7.7172144904654178e+03  7.7025826852790669e+03  7.6879673605820253e+03  7.6733696989654345e+03  7.6587910140525482e+03  7.6442327483784120e+03  7.6296964732138795e+03  7.6151838900704543e+03  7.6006968336843302e+03  7.5862372763234753e+03  7.5718073332943550e+03  7.5574092695485451e+03  7.5430455073060484e+03  7.5287186346225353e+03  7.5144314148340400e+03  7.5001867968141541e+03  7.4859879259775162e+03  7.4718381559585669e+03  7.4577410608883265e+03  7.4437004481828753e+03  7.4297203717483726e+03  7.4158051454972056e+03  7.4019593570596453e+03  7.3881878815649416e+03  7.3744958953537534e+03  7.3608888894685197e+03  7.3473726827468190e+03  7.3339534343101996e+03  7.3206376551917083e+03  7.3074322187720400e+03  7.2943443695888136e+03  7.2813817299361008e+03  7.2685523034723237e+03  7.2558644747920325e+03  7.2433270035782925e+03  7.2309490115198796e+03  7.2187399596309197e+03  7.2067096129142519e+03  7.1948679884137628e+03  7.1832252815173197e+03  7.1717917637537676e+03  7.1605776430163824e+03  7.1495928736798342e+03  7.1388468986141906e+03  7.1283482960520223e+03  7.1181042885581455e+03  7.1081200427744507e+03  7.0983976340046447e+03  7.0889344393671672e+03  7.0797204845659999e+03  7.0707337131907443e+03  7.0619307799402541e+03  7.0532277408667669e+03  7.0444526110544730e+03  7.0350843426855417e+03  7.0227538758866376e+03  6.9995574749777643e+03  6.9604835412241409e+03  6.9213958595672357e+03  6.8818681664266242e+03  6.8422360337303071e+03  6.8026409033337859e+03  6.7631583950171616e+03  6.7238350983123328e+03  6.6846988948457647e+03  6.6457652713798625e+03  6.6070412894361034e+03  6.5685282450113700e+03  6.5302236678726686e+03  6.4921230328809843e+03  6.4542214299033867e+03  6.4165153944217782e+03  6.3790051109157548e+03  6.3416972730828320e+03  6.3046090636288191e+03  6.2677740312179831e+03  6.2312509116945203e+03  6.1951368196805852e+03  6.1596015885653997e+03  6.1249951128956345e+03  6.0921196986410023e+03  6.0620532583542072e+03  6.0236238184580943e+03  5.9691008133801142e+03  5.9207500139448130e+03  5.8745406038585952e+03  5.8293523769547282e+03  5.7847614178638460e+03  5.7405584129491872e+03  5.6966311977699770e+03  5.6529182141384817e+03  5.6093863907728437e+03  5.5660194640731752e+03  5.5228112552440798e+03  5.4797615443526256e+03  5.4368734237528788e+03  5.3941515544738641e+03  5.3516010056322402e+03  5.3092264870813860e+03  5.2670318557240380e+03  5.2250198160639002e+03  5.1831917598567397e+03  5.1415477052304050e+03  5.1000863060557058e+03  5.0588049096573259e+03  5.0176996462731740e+03  4.9767655376568146e+03  4.9359966152696943e+03  4.8953860408831051e+03  4.8549262242732566e+03  4.8146089341632960e+03  4.7744253997281203e+03  4.7343664008894793e+03  4.6944223463363169e+03  4.6545833387401108e+03  4.6148392270213235e+03  4.5751796457787668e+03  4.5355940421351615e+03  4.4960716902901841e+03  4.4566016940252821e+03  4.4171729772879817e+03  4.3777742628210381e+03  4.3383940386206395e+03  4.2990205118414478e+03  4.2596415496514701e+03  4.2202446065167851e+03  4.1808166375052315e+03  4.1413439974784878e+03  4.1018123265282475e+03  4.0622064227307378e+03  4.0225101042670626e+03  3.9827060641888415e+03  3.9427757225961186e+03  3.9026990827085742e+03  3.8624545992004428e+03  3.8220190691403759e+03  3.7813675577952495e+03  3.7404733732224227e+03  3.6993081047218161e+03  3.6578417405262835e+03  3.6160428791966788e+03  3.5738790466873943e+03  3.5313171266554596e+03  3.4883239051582345e+03  3.4448667225625882e+03  3.4009142157739266e+03  3.3564371236931888e+03  3.3114091194013185e+03  3.2658076253980562e+03  3.2196145646725640e+03  3.1728170014436691e+03  3.1254076313894702e+03  3.0773850916129068e+03  3.0287540741991152e+03  2.9795252422366038e+03  2.9297149616469528e+03  2.8793448743442063e+03  2.8284413468910557e+03  2.7770348333521024e+03  2.7251591915492513e+03  2.6728509890221512e+03  2.6201488296238631e+03  2.5670927249052129e+03  2.5137235272369430e+03  2.4600824347738426e+03  2.4062105724209414e+03  2.3521486481942920e+03  2.2979366808570558e+03  2.2436137923797205e+03  2.1892180574437311e+03  2.1347864016810304e+03  2.0803545403944822e+03  2.0259569499499535e+03  1.9716268647091629e+03  1.9173962931528542e+03  1.8632960476442356e+03  1.8093557830351858e+03  1.7556040399808876e+03  1.7020682893889723e+03  1.6487749748673839e+03  1.5957495503551727e+03  1.5430165103330305e+03  1.4905994101177273e+03  1.4385208737760861e+03  1.3868025871635734e+03  1.3354652735348670e+03  1.2845286491280688e+03  1.2340113561311889e+03  1.1839308705644492e+03  1.1343033829173694e+03  1.0851436499370657e+03  1.0364648168615988e+03  9.8827821069397476e+02  9.4059310688123480e+02  8.9341647403140621e+02  8.4675270403134778e+02  8.0060333802682646e+02  7.5496680197401543e+02  7.0983816853417409e+02  6.6520896449433894e+02  6.2106704407129632e+02  5.7739654777768146e+02  5.3417796344544888e+02  4.9138830019635554e+02  4.4900137773612403e+02  4.0698822300778426e+02  3.6531755531012607e+02  3.2395633146080644e+02  2.8287031705147604e+02  2.4202465123198948e+02  2.0138439015656499e+02  1.6091515885461251e+02  1.2058434037064831e+02  8.0357451421627147e+01  4.0195290040064549e+01  1.7020617422051257e-01  9.2237571886089869e-03  3.0718586035245678e-03  3.1230644435964552e-03  3.4042033970885519e-03  3.8965357287964234e-03  4.5050791553330020e-03  5.1657930531266091e-03  5.8467359884762397e-03  6.5304804335332743e-03  7.2058336226129777e-03  7.8641843891737728e-03  8.4977374487529445e-03  9.0985635610075551e-03  9.6580203347856834e-03  1.0166347622980281e-02  1.0612349692838703e-02  1.0983127765820498e-02  1.1263854736695536e-02  1.1437603446431615e-02  1.1485257640789785e-02  1.1385554196352031e-02  1.1115327954816887e-02  1.0650056318565039e-02  9.9648264494980512e-03  9.0358654044029648e-03  7.8427673306222852e-03  6.3714970484872527e-03  4.6181115695710382e-03  2.5928703070746276e-03  3.2396530668373587e-04  -2.1401685945424387e-03  -4.7304239475361599e-03  -7.3657681203334437e-03  -9.9737988531773021e-03  -1.2512292556283956e-02  -1.4985907041504652e-02  -1.7451818764297872e-02  -2.0003424765267730e-02  -2.2736116833242788e-02  -2.5737508481694229e-02  -2.8726879394868905e-02  -2.9807727999232019e-02  -2.9075864586802173e-02  -2.1929530599564359e-02  -3.1054215138888398e-04  3.0636550532290058e-02  6.3760569346738002e-02  9.2417324446015553e-02  1.4464424612312518e-01  -5.1927927106047278e-01  -1.5203988928260606e+00  -5.3361117687907167e-01  -4.2128493725896543e-01  -2.6372496842810877e-01  -1.5598523221495675e-01  -9.5244677708391901e-02  -6.2557276498958286e-02  -4.6238394637158106e-02  -4.0588762090107110e-02  -3.9054440013289379e-02  -5.9526067605484782e-02  -3.2555006505014600e-01  6.4337982780238145e-01  -3.1624442263891659e+00  2.4951321072550239e+00  -1.8808388576469055e+00  5.5794833200261851e-01  2.2778423427452535e-01  1.4652365958982319e-01  1.1149840089348084e-01  7.7091940762037819e-02  5.2912261348628364e-02  3.5804393162753453e-02  2.3684178465906057e-02  1.4916629451854296e-02  8.2670788454323810e-03  2.9910134736845172e-03  -1.4259107019248703e-03  -5.2353856387368780e-03  -8.3150317591002398e-03  -1.0277676378408452e-02  -1.0304138389960653e-02  6.0569351108982004e-02  2.4388885656119590e+00  -2.3357621346473703e-01  2.7815534400210886e+00  3.8602554556088714e-02  3.7906874459334901e+01  6.8707069448008994e+01  1.3316840658102367e+02  1.6856427022958300e+02  1.5395316591793866e+02  1.8725394340767772e+02  2.9788147072071422e+02  3.3684052921141773e+02  3.7542175031109576e+02  3.0582171024236459e+02  3.4022259494578481e+02  5.0909395790409485e+02  5.4726428062502748e+02  4.3203692895314697e+02  4.6626762772407608e+02  4.9970216329524726e+02  5.3371813188332749e+02  5.6841244893617238e+02  6.0387369208629002e+02  6.4019532022140288e+02  6.7747282925802563e+02  7.1580509718192218e+02  7.5529414847568728e+02  7.9604439016799984e+02  8.3816225489328201e+02  8.8175848206503213e+02  9.2696313001117915e+02  9.7409096170446594e+02  1.0254845381161906e+03  1.4755555558161047e+03  1.5426695181252696e+03  1.6151229728610203e+03  1.6903680079569008e+03  1.7680236166844584e+03  1.8480047026271559e+03  1.9302632647903304e+03  2.0147642316050326e+03  2.1015043027384636e+03  2.1904824134285955e+03  2.2816411987904435e+03  2.3747982651874991e+03  2.4695980409360500e+03  2.5655649089446588e+03  2.6622215450189869e+03  2.7591838878987605e+03  2.8561848729520907e+03  2.9530450204554154e+03  3.0496264863822739e+03  3.1457886142771476e+03  3.2413498733587385e+03  3.3360638512816336e+03  3.4296235242174052e+03  3.5216781876479222e+03  3.6114901249840377e+03  3.6947378638343907e+03  2.7595702067576967e+03  2.8305221639244892e+03  3.9709191706210095e+03  4.0508862768338108e+03  4.1285919638894393e+03  3.0710810369771598e+03  3.1365591734975292e+03  4.3824481916214199e+03  4.4492728781812893e+03  3.2972380409128814e+03  3.3539734925381999e+03  4.6692268452911676e+03  4.7249958768553024e+03  3.4883118934999225e+03  3.5349700519406128e+03  4.9064502230632070e+03  4.9531691260202106e+03  3.6476920586722681e+03  3.6883768227119208e+03  5.1116231109529745e+03  5.1568010631557818e+03  5.2007668073304003e+03  3.8248087798160868e+03  3.8627845811448901e+03  5.3486510502529709e+03  5.3921756031595387e+03  5.4349812462727014e+03  3.9948106893616327e+03  4.0324490145591085e+03  5.5814321748255707e+03  5.6250050302380214e+03  5.6679620395832426e+03  4.1647164228690444e+03  4.2025923513322123e+03  5.8153163076101964e+03  5.8592338315141915e+03  5.9027551018343293e+03  4.3375904270013416e+03  6.0022961860816367e+03  6.0440837802809147e+03  4.4405019579527334e+03  6.1436471048585481e+03  6.1855114442089425e+03  4.5436454850328846e+03  6.2856924178158706e+03  6.3303946654344427e+03  6.3770096837702458e+03  6.4237044518025486e+03  6.4702973338972306e+03  6.5164754186829932e+03  6.5601135396970176e+03  4.8163218037409661e+03  6.6591770023865201e+03  6.7006205485355031e+03  4.9184082943729809e+03  6.7991986334373960e+03  6.8406075234527862e+03  5.0204091271993238e+03  6.9393275937217149e+03  6.9808748581447271e+03  5.1226637671994595e+03  7.0775367457245648e+03  5.1920588014985287e+03  7.1759123136498674e+03  7.2185357728614481e+03  5.2970901518225883e+03  7.3213170542382768e+03  7.3651494586836143e+03  5.4051047966769574e+03  7.4713139707340379e+03  7.5167991398081349e+03  5.5172148028332440e+03  7.6279139873566037e+03  7.6786829737482594e+03  7.7322317442586764e+03  7.7863060270281330e+03  7.8382386543691655e+03  5.7552934438926104e+03  7.9592916488499905e+03  8.0116313728015348e+03  5.8853325624682420e+03  8.1474056402576907e+03  8.2002757423163530e+03  6.0062656134918452e+03  6.0478113306864816e+03  6.0874931229151862e+03  6.1273612771113530e+03  6.1672326332550492e+03  6.2068892408747943e+03  6.2461764217683731e+03  6.2849539489514718e+03  6.3230922823386463e+03  6.3604758220444164e+03  6.3970073171384065e+03  6.4326112573867003e+03  6.4672351950647508e+03  6.5008489968361382e+03  6.5334424931477870e+03  6.5650221475926237e+03  6.5956073925556793e+03  6.6252271658662721e+03  6.6539169607610947e+03  6.6817164712806480e+03  6.7086677707288009e+03  6.7348139179445807e+03  6.7601979000721421e+03  6.7848618439509810e+03  6.8088464424358290e+03  6.8321905487670383e+03  6.8549308968810064e+03  6.8771019100141366e+03  6.8987355632800236e+03  6.9198612668952455e+03  6.9405057345809719e+03  6.9606927954151524e+03  6.9804430949681664e+03  6.9997736085793958e+03  7.0186968481115046e+03  7.0372195700598013e+03  7.0553406661329718e+03  7.0730477471422410e+03  7.0903125711482826e+03  7.1070945080272813e+03  7.1234022053134031e+03  7.1394707042048431e+03  7.1556450929412513e+03  7.1717079453988927e+03  7.1892063381541238e+03  7.2101910945635382e+03  7.2233470362751004e+03  7.2435680525449689e+03  7.2701859083286254e+03  7.2875856879039757e+03  1.0024868032619952e+04  7.3287732866912002e+03  7.3486581411537873e+03  1.0104732671725889e+04  7.3760516739287623e+03  7.3946215021001126e+03  1.0168680634243248e+04  7.4231080014912550e+03  7.4402393990481560e+03  1.0230060254586482e+04  1.0243192254496689e+04  7.4757173937599409e+03  1.0283729412033766e+04  1.0308162835754432e+04  7.5219688319885299e+03  7.5411037918112543e+03  7.5565693908057865e+03  1.0393677919748523e+04  7.5894683078084727e+03  7.6075290981323396e+03  7.6226630124089879e+03  1.0482085163620546e+04  7.6479909338745438e+03  7.6670814732376166e+03  7.6829520176741198e+03  7.6981517362803452e+03  7.7114424180212436e+03  7.7225023037579131e+03  7.7390811342162015e+03  7.7544296513731579e+03  7.7707543002180582e+03  7.7884112465009157e+03  7.8061135993551934e+03  7.8233560372612510e+03  7.8401089194750512e+03  7.8562846917285933e+03  7.8724532888654558e+03  7.8898683653801309e+03  7.9077808295612658e+03  7.9254664531903054e+03  7.9424020114953628e+03  7.9584512858656335e+03  7.9747473843091666e+03  7.9901292465085307e+03  8.0015401219660016e+03  8.0153325384305317e+03  8.0309599832338454e+03  1.1042745098048917e+04  1.1060260410275168e+04  1.1079946296223879e+04  1.1100526795953045e+04  1.1099414113628180e+04  1.1098638620374455e+04  1.1097907971997740e+04  1.1097160384096733e+04  1.1096389911711238e+04  1.1095601486555259e+04  1.1094801638326388e+04  1.1093996625692518e+04  1.1093192033341888e+04  1.1092392705029166e+04  1.1091602769255433e+04  1.1090825691851536e+04  1.1090064335892244e+04  1.1089321023097313e+04  1.1088597594605002e+04  1.1087895469828316e+04  1.1087215702327738e+04  1.1086559031849420e+04  1.1085925931947189e+04  1.1085316652882972e+04  1.1084731259742497e+04  1.1084169665891444e+04  1.1083631662029826e+04  1.1083116941186263e+04  1.1082625120038103e+04  1.1082155756957642e+04  1.1081708367178717e+04  1.1081282435457693e+04  1.1080877426574414e+04  1.1080492793986206e+04  1.1080127986914022e+04  1.1079782456106301e+04  1.1079455658495006e+04  1.1079147060928908e+04  1.1078856143143470e+04  1.1078582400103302e+04  1.1078325343833179e+04  1.1078084504835975e+04  1.1077859433180889e+04  1.1077649699332565e+04  1.1077454894781082e+04  1.1077274632523409e+04  1.1077108547439888e+04  1.1076956296602853e+04  1.1076817559549618e+04  1.1076692038548259e+04  1.1076579458881468e+04  1.1076479569171634e+04  1.1076392141768996e+04  1.1076316973223797e+04  1.1076253884863581e+04  1.1076202723497185e+04  1.1076163362268486e+04  1.1076135701684840e+04  1.1076119670848067e+04  1.1076115228919458e+04  1.1076122366854897e+04  1.1076141109451744e+04  1.1076171517756306e+04  1.1076213691888688e+04  1.1076267774351876e+04  1.1076333953903297e+04  1.1076412470080293e+04  1.1076503618485858e+04  1.1076607756956875e+04  1.1076725312752971e+04  1.1076856790917705e+04  1.1077002783970967e+04  1.1077163983083439e+04  1.1077341190847346e+04  1.1077535335666475e+04  1.1077747487597975e+04  1.1077978875112147e+04  1.1078230901561115e+04  1.1078505158941196e+04  1.1078803434438871e+04  1.1079127701738542e+04  1.1079480083552953e+04  1.1079862764324265e+04  1.1080277825562618e+04  1.1080726982788996e+04  1.1081211249471273e+04  1.1081730667039228e+04  1.1082284557723806e+04  1.1082876250281815e+04  1.1083564584463740e+04  1.1084847494383821e+04  1.1064193356030361e+04  1.1063644893206680e+04  1.1063029077958403e+04  1.1062439148459005e+04  1.1061882301833324e+04  1.1061361029864187e+04  1.1060876781192930e+04  1.1060429183226637e+04  1.1060016602448775e+04  1.1059636799781423e+04  1.1059287353096377e+04  1.1058965887505958e+04  1.1058670188248601e+04  1.1058398247516381e+04  1.1058148275681349e+04  1.1057918694304741e+04  1.1057708120654786e+04  1.1057515349051404e+04  1.1057339331846653e+04  1.1057179161438142e+04  1.1057034053930956e+04  1.1056903334641494e+04  1.1056786425417988e+04  1.1056682833647461e+04  1.1056592142776424e+04  1.1056514004163755e+04  1.1056448130091971e+04  1.1056394287778872e+04  1.1056352294249620e+04  1.1056322011947812e+04  1.1056303344981096e+04  1.1056296235912105e+04  1.1056300663018797e+04  1.1056316637959588e+04  1.1056344203788447e+04  1.1056383433273037e+04  1.1056434427475628e+04  1.1056497314562239e+04  1.1056572248809651e+04  1.1056659409783580e+04  1.1056759001663999e+04  1.1056871252695526e+04  1.1056996414742127e+04  1.1057134762925903e+04  1.1057286595329875e+04  1.1057452232743846e+04  1.1057632018431157e+04  1.1057826317892059e+04  1.1058035518596573e+04  1.1058260029655879e+04  1.1058500281396584e+04  1.1058756724796256e+04  1.1059029830731386e+04  1.1059320088980221e+04  1.1059628006912453e+04  1.1059954107785286e+04  1.1060298928550779e+04  1.1060663017062141e+04  1.1061046928546744e+04  1.1061451221190613e+04  1.1061876450653064e+04  1.1062323163300845e+04  1.1062791887918765e+04  1.1063283125619038e+04  1.1063797337635096e+04  1.1064334930649609e+04  1.1064896239272632e+04  1.1065481505258767e+04  1.1066090853036589e+04  1.1066724261126430e+04  1.1067381529053340e+04  1.1068062239431089e+04  1.1068765715013951e+04  1.1069490970697676e+04  1.1070236660709150e+04  1.1071001021551785e+04  1.1071781811636247e+04  1.1072576248822777e+04  1.1073380947108944e+04  1.1074191853038035e+04  1.1075004180766904e+04  1.1075812342831594e+04  1.1076609872358122e+04  1.1077389294300448e+04  1.1078141446134370e+04  1.1078850681604254e+04  1.1079469461977496e+04  1.1079835159262475e+04  1.1044124985273838e+04  1.1043656931699137e+04  1.1043083949773536e+04  1.1042475741735541e+04  1.1041899122258650e+04  1.1041370524928296e+04  1.1040889107523437e+04  1.1040450219164681e+04  1.1040049047237200e+04  1.1039681415609184e+04  1.1039343838632212e+04  1.1039033415143520e+04  1.1038747713228380e+04  1.1038484676857437e+04  1.1038242555050176e+04  1.1038019848380105e+04  1.1037815267926844e+04  1.1037627703104634e+04  1.1037456195937983e+04  1.1037299920147441e+04  1.1037158163923590e+04  1.1037030315597614e+04  1.1036915851631715e+04  1.1036814326496160e+04  1.1036725364098897e+04  1.1036648650504701e+04  1.1036583927733376e+04  1.1036530988466402e+04  1.1036489671522624e+04  1.1036459857987897e+04  1.1036441467903465e+04  1.1036434457433787e+04  1.1036438816447217e+04  1.1036454566453864e+04  1.1036481758853361e+04  1.1036520473452592e+04  1.1036570817219035e+04  1.1036632923240328e+04  1.1036706949864303e+04  1.1036793079996889e+04  1.1036891520537485e+04  1.1037002501933219e+04  1.1037126277834559e+04  1.1037263124835326e+04  1.1037413342280219e+04  1.1037577252122392e+04  1.1037755198812551e+04  1.1037947549199314e+04  1.1038154692418202e+04  1.1038377039743331e+04  1.1038615024372022e+04  1.1038869101107233e+04  1.1039139745896720e+04  1.1039427455179932e+04  1.1039732744984700e+04  1.1040056149704480e+04  1.1040398220473644e+04  1.1040759523042565e+04  1.1041140635035299e+04  1.1041542142450520e+04  1.1041964635240469e+04  1.1042408701772083e+04  1.1042874921939801e+04  1.1043363858659483e+04  1.1043876047428146e+04  1.1044411983585193e+04  1.1044972106858089e+04  1.1045556782722195e+04  1.1046166280053229e+04  1.1046800744508715e+04  1.1047460167049969e+04  1.1048144347023121e+04  1.1048852849276856e+04  1.1049584954937440e+04  1.1050339605734014e+04  1.1051115342232606e+04  1.1051910237058410e+04  1.1052721825135448e+04  1.1053547033692077e+04  1.1054382113302367e+04  1.1055222560967864e+04  1.1056062987812133e+04  1.1056896767050806e+04  1.1057714996633067e+04