<?xml version="1.0"?>
<VTKFile type="UnstructuredGrid"  version="0.1"  >
<UnstructuredGrid>
<Piece  NumberOfPoints="21600" NumberOfCells="42542">
<Points>
<DataArray  type="Float64"  NumberOfComponents="3"  format="ascii">0 0 0  0.77 0 0  0.77 0.15 0  0 0.15 0  0.003221757322170014 0 0  0.006443514644340046 0 0  0.009665271966510193 0 0  0.01288702928868034 0 0  0.01610878661085048 0 0  0.01933054393302049 0 0  0.02255230125519027 0 0  0.02577405857735967 0 0  0.02899581589952872 0 0  0.03221757322169801 0 0  0.03543933054386744 0 0  0.03866108786603686 0 0  0.04188284518820627 0 0  0.0451046025103757 0 0  0.04832635983254521 0 0  0.05154811715471607 0 0  0.05476987447688695 0 0  0.05799163179905782 0 0  0.06121338912122846 0 0  0.06443514644339859 0 0  0.06765690376556875 0 0  0.0708786610877389 0 0  0.07410041840990904 0 0  0.0773221757320792 0 0  0.08054393305425039 0 0  0.08376569037642198 0 0  0.0869874476985936 0 0  0.09020920502076518 0 0  0.0934309623429339 0 0  0.0966527196651024 0 0  0.09987447698726967 0 0  0.1030962343094369 0 0  0.1063179916316041 0 0  0.1095397489537714 0 0  0.1127615062759386 0 0  0.1159832635981051 0 0  0.1192050209202709 0 0  0.1224267782424358 0 0  0.1256485355646001 0 0  0.1288702928867644 0 0  0.1320920502089288 0 0  0.1353138075310958 0 0  0.1385355648532632 0 0  0.1417573221754333 0 0  0.1449790794976035 0 0  0.1482008368197736 0 0  0.1514225941419428 0 0  0.1546443514641101 0 0  0.157866108786276 0 0  0.1610878661084403 0 0  0.1643096234306047 0 0  0.167531380752769 0 0  0.1707531380749333 0 0  0.1739748953970977 0 0  0.177196652719262 0 0  0.1804184100414264 0 0  0.1836401673635935 0 0  0.1868619246857611 0 0  0.1900836820079313 0 0  0.1933054393301014 0 0  0.1965271966522716 0 0  0.1997489539744406 0 0  0.2029707112966078 0 0  0.2061924686187736 0 0  0.209414225940938 0 0  0.2126359832631022 0 0  0.2158577405852666 0 0  0.219079497907431 0 0  0.2223012552295953 0 0  0.2255230125517597 0 0  0.2287447698739242 0 0  0.2319665271960914 0 0  0.2351882845182592 0 0  0.2384100418404293 0 0  0.2416317991625994 0 0  0.2448535564847696 0 0  0.2480753138069371 0 0  0.2512970711291014 0 0  0.2545188284512658 0 0  0.2577405857734302 0 0  0.2609623430955986 0 0  0.2641841004177688 0 0  0.2674058577399389 0 0  0.270627615062109 0 0  0.2738493723842792 0 0  0.2770711297064487 0 0  0.280292887028613 0 0  0.2835146443507774 0 0  0.2867364016729417 0 0  0.2899581589951061 0 0  0.2931799163172705 0 0  0.2964016736394348 0 0  0.2996234309615992 0 0  0.3028451882837672 0 0  0.3060669456059373 0 0  0.3092887029281075 0 0  0.3125104602502776 0 0  0.3157322175724478 0 0  0.3189539748946177 0 0  0.322175732216782 0 0  0.3253974895389464 0 0  0.3286192468611107 0 0  0.3318410041832751 0 0  0.3350627615054395 0 0  0.3382845188276038 0 0  0.3415062761497681 0 0  0.3447280334719325 0 0  0.3479497907940968 0 0  0.3511715481162612 0 0  0.3543933054384255 0 0  0.3576150627605947 0 0  0.3608368200827649 0 0  0.364058577404935 0 0  0.3672803347271051 0 0  0.3705020920492753 0 0  0.373723849371444 0 0  0.3769456066936084 0 0  0.3801673640157748 0 0  0.383389121337945 0 0  0.3866108786601209 0 0  0.3898326359823028 0 0  0.3930543933044846 0 0  0.3962761506266662 0 0  0.399497907948848 0 0  0.4027196652710298 0 0  0.4059414225932116 0 0  0.4091631799153934 0 0  0.4123849372375751 0 0  0.4156066945597569 0 0  0.4188284518819387 0 0  0.4220502092041222 0 0  0.4252719665263097 0 0  0.4284937238484974 0 0  0.4317154811706849 0 0  0.4349372384928725 0 0  0.4381589958150601 0 0  0.4413807531372476 0 0  0.4446025104594352 0 0  0.4478242677816181 0 0  0.4510460251037998 0 0  0.4542677824259815 0 0  0.4574895397481634 0 0  0.4607112970703451 0 0  0.4639330543925269 0 0  0.4671548117147087 0 0  0.4703765690368904 0 0  0.4735983263590722 0 0  0.4768200836812568 0 0  0.4800418410034444 0 0  0.483263598325632 0 0  0.4864853556478196 0 0  0.4897071129700028 0 0  0.4929288702921845 0 0  0.4961506276143663 0 0  0.4993723849365479 0 0  0.5025941422587239 0 0  0.5058158995809008 0 0  0.5090376569030826 0 0  0.5122594142252677 0 0  0.515481171547461 0 0  0.5187029288696494 0 0  0.5219246861918312 0 0  0.525146443514013 0 0  0.5283682008361947 0 0  0.5315899581583845 0 0  0.5348117154805778 0 0  0.5380334728027617 0 0  0.5412552301249435 0 0  0.5444769874471141 0 0  0.5476987447692853 0 0  0.550920502091467 0 0  0.5541422594136513 0 0  0.5573640167358447 0 0  0.560585774058034 0 0  0.5638075313802158 0 0  0.5670292887023975 0 0  0.5702510460245793 0 0  0.5734728033467682 0 0  0.5766945606689615 0 0  0.579916317991155 0 0  0.5831380753133483 0 0  0.5863598326355314 0 0  0.5895815899577131 0 0  0.5928033472798949 0 0  0.5960251046020785 0 0  0.5992468619242718 0 0  0.6024686192464619 0 0  0.6056903765686437 0 0  0.6089121338908206 0 0  0.6121338912129908 0 0  0.6153556485351673 0 0  0.618577405857349 0 0  0.6217991631795386 0 0  0.625020920501732 0 0  0.6282426778239159 0 0  0.6314644351460976 0 0  0.6346861924682795 0 0  0.6379079497904622 0 0  0.6411297071126555 0 0  0.6443514644348465 0 0  0.6475732217570283 0 0  0.650794979079206 0 0  0.6540167364013761 0 0  0.6572384937235518 0 0  0.6604602510457335 0 0  0.6636820083679225 0 0  0.6669037656901158 0 0  0.6701255230123004 0 0  0.6733472803344823 0 0  0.6765690376566641 0 0  0.6797907949788459 0 0  0.6830125523010393 0 0  0.686234309623231 0 0  0.6894560669454127 0 0  0.6926778242675914 0 0  0.6958995815897615 0 0  0.6991213389119363 0 0  0.7023430962341181 0 0  0.7055648535563062 0 0  0.7087866108784994 0 0  0.712008368200685 0 0  0.7152301255228668 0 0  0.7184518828450486 0 0  0.7216736401672305 0 0  0.724895397489423 0 0  0.7281171548116155 0 0  0.7313389121337973 0 0  0.7345606694559768 0 0  0.7377824267781468 0 0  0.7410041841003209 0 0  0.7442259414225026 0 0  0.7474476987446899 0 0  0.7506694560668832 0 0  0.7538912133890696 0 0  0.7571129707112513 0 0  0.760334728033433 0 0  0.7635564853556149 0 0  0.7667782426778067 0 0  0.77 0.001685393258423789 0  0.77 0.003370786516847669 0  0.77 0.005056179775271247 0  0.77 0.006741573033694517 0  0.77 0.008426966292117821 0  0.77 0.01011235955054176 0  0.77 0.01179775280896623 0  0.77 0.0134831460673904 0  0.77 0.01516853932581489 0  0.77 0.01685393258423891 0  0.77 0.01853932584266291 0  0.77 0.02022471910108589 0  0.77 0.02191011235950794 0  0.77 0.02359550561792999 0  0.77 0.02528089887635205 0  0.77 0.02696629213477411 0  0.77 0.02865168539319714 0  0.77 0.03033707865161956 0  0.77 0.03202247191004162 0  0.77 0.03370786516846367 0  0.77 0.03539325842688572 0  0.77 0.03707865168530778 0  0.77 0.03876404494372984 0  0.77 0.0404494382021519 0  0.77 0.04213483146057394 0  0.77 0.04382022471899601 0  0.77 0.04550561797741807 0  0.77 0.04719101123584013 0  0.77 0.04887640449426219 0  0.77 0.05056179775268425 0  0.77 0.0522471910111063 0  0.77 0.05393258426952837 0  0.77 0.05561797752795105 0  0.77 0.05730337078637505 0  0.77 0.05898876404479723 0  0.77 0.0606741573032193 0  0.77 0.06235955056164135 0  0.77 0.06404494382006341 0  0.77 0.06573033707848548 0  0.77 0.06741573033690752 0  0.77 0.06910112359532959 0  0.77 0.07078651685375165 0  0.77 0.0724719101121737 0  0.77 0.07415730337059653 0  0.77 0.07584269662902443 0  0.77 0.07752808988745429 0  0.77 0.07921348314588413 0  0.77 0.08089887640431678 0  0.77 0.08258426966274923 0  0.77 0.08426966292117907 0  0.77 0.08595505617960987 0  0.77 0.08764044943804362 0  0.77 0.08932584269647403 0  0.77 0.09101123595490389 0  0.77 0.09269662921333673 0  0.77 0.09438202247176901 0  0.77 0.09606741573019884 0  0.77 0.09775280898862983 0  0.77 0.09943820224706355 0  0.77 0.1011235955054938 0  0.77 0.1028089887639236 0  0.77 0.1044943820223567 0  0.77 0.1061797752807888 0  0.77 0.1078651685392186 0  0.77 0.1095505617976498 0  0.77 0.1112359550560835 0  0.77 0.1129213483145136 0  0.77 0.1146067415729456 0  0.77 0.1162921348313787 0  0.77 0.1179775280898085 0  0.77 0.1196629213482387 0  0.77 0.1213483146066724 0  0.77 0.1230337078651035 0  0.77 0.1247191011235322 0  0.77 0.1264044943819605 0  0.77 0.1280898876403903 0  0.77 0.1297752808988242 0  0.77 0.1314606741572554 0  0.77 0.1331460674156853 0  0.77 0.1348314606741154 0  0.77 0.1365168539325504 0  0.77 0.1382022471909802 0  0.77 0.13988764044941 0  0.77 0.1415730337078443 0  0.77 0.1432584269662752 0  0.77 0.144943820224705 0  0.77 0.1466292134831355 0  0.77 0.1483146067415701 0  0.7667782426778414 0.15 0  0.7635564853556813 0.15 0  0.7603347280335111 0.15 0  0.757112970711341 0.15 0  0.7538912133891708 0.15 0  0.7506694560670005 0.15 0  0.7474476987448303 0.15 0  0.7442259414226602 0.15 0  0.74100418410049 0.15 0  0.7377824267783197 0.15 0  0.7345606694561496 0.15 0  0.7313389121339794 0.15 0  0.7281171548118092 0.15 0  0.724895397489639 0.15 0  0.7216736401674688 0.15 0  0.7184518828452986 0.15 0  0.7152301255231284 0.15 0  0.7120083682009583 0.15 0  0.708786610878788 0.15 0  0.7055648535566178 0.15 0  0.7023430962344477 0.15 0  0.6991213389122775 0.15 0  0.6958995815901072 0.15 0  0.692677824267937 0.15 0  0.6894560669457669 0.15 0  0.6862343096235967 0.15 0  0.6830125523014264 0.15 0  0.6797907949792563 0.15 0  0.6765690376570861 0.15 0  0.6733472803349159 0.15 0  0.6701255230127456 0.15 0  0.6669037656905755 0.15 0  0.6636820083684053 0.15 0  0.6604602510462351 0.15 0  0.657238493724065 0.15 0  0.6540167364018947 0.15 0  0.6507949790797245 0.15 0  0.6475732217575543 0.15 0  0.644351464435384 0.15 0  0.6411297071132231 0.15 0  0.6379079497910645 0.15 0  0.634686192468906 0.15 0  0.6314644351467468 0.15 0  0.6282426778245765 0.15 0  0.6250209205024085 0.15 0  0.62179916318025 0.15 0  0.6185774058580914 0.15 0  0.6153556485359328 0.15 0  0.6121338912137689 0.15 0  0.6089121338915987 0.15 0  0.6056903765694354 0.15 0  0.6024686192472768 0.15 0  0.5992468619251182 0.15 0  0.5960251046029597 0.15 0  0.5928033472807912 0.15 0  0.589581589958621 0.15 0  0.5863598326364508 0.15 0  0.5831380753142792 0.15 0  0.5799163179920974 0.15 0  0.57669456
[...]
<PointData  Scalars="pressure"> 
<DataArray  type="Float64"  Name="pressure"  format="ascii">1.1140082582313718e+04  1.4512163173331347e+00  -1.9087809491744809e+00  1.1155470167324387e+04  1.1114211982164587e+04  1.1094539736160355e+04  1.1077153067036936e+04  8.0522686557501393e+03  8.0354354069073452e+03  8.0201807466869423e+03  8.0050433631810438e+03  7.9899974062483998e+03  7.9750177337325840e+03  7.9600834968231138e+03  7.9451817998906399e+03  7.9303041940302519e+03  7.9154448544178313e+03  7.9005996476185128e+03  7.8857655892633547e+03  7.8709405077404808e+03  7.8561228259200825e+03  7.8413114139559693e+03  7.8265054867873232e+03  7.8117045308335382e+03  7.7969082503913787e+03  7.7821165277223645e+03  7.7673293929062447e+03  7.7525470008308776e+03  7.7377696135143769e+03  7.7229975864943817e+03  7.7082313583799851e+03  7.6934714429065589e+03  7.6787184230043040e+03  7.6639729465106439e+03  7.6492357232428321e+03  7.6345075232092058e+03  7.6197891757840616e+03  7.6050815697059461e+03  7.5903856537862721e+03  7.5757024382367044e+03  7.5610329965413957e+03  7.5463784678154252e+03  7.5317400596038960e+03  7.5171190510890156e+03  7.5025167966836088e+03  7.4879347300020472e+03  7.4733743682104596e+03  7.4588373167701366e+03  7.4443252746004118e+03  7.4298400396986472e+03  7.4153835152675556e+03  7.4009577164113198e+03  7.3865647774728204e+03  7.3722069600937493e+03  7.3578866620862473e+03  7.3436064272094773e+03  7.3293689559438790e+03  7.3151771173512961e+03  7.3010339620966743e+03  7.2869427366870723e+03  7.2729068989544230e+03  7.2589301347678402e+03  7.2450163759097877e+03  7.2311698189871167e+03  7.2173949451727613e+03  7.2036965404895491e+03  7.1900797162539602e+03  7.1765499291994347e+03  7.1631130006965259e+03  7.1497751343845121e+03  7.1365429314249595e+03  7.1234234024817351e+03  7.1104239754177797e+03  7.0975524975684311e+03  7.0848172312907845e+03  7.0722268412801623e+03  7.0597903718654843e+03  7.0475172121139221e+03  7.0354170460507885e+03  7.0234997845712887e+03  7.0117754745905986e+03  7.0002541794875469e+03  6.9889458226682209e+03  6.9778599826191512e+03  6.9670056222447238e+03  6.9563907259294338e+03  6.9460218014253023e+03  6.9359031738901422e+03  6.9260359425546285e+03  6.9164163558359051e+03  6.9070331130887253e+03  6.8978625249829993e+03  6.8888590482902946e+03  6.8799353642344695e+03  6.8709133684999233e+03  6.8612538886608600e+03  6.8485059067835855e+03  6.8244921954079073e+03  6.7840364768898744e+03  6.7435688792567626e+03  6.7026557375707225e+03  6.6616544842250369e+03  6.6207222715728403e+03  6.5799489760058486e+03  6.5393951414346993e+03  6.4991024956699766e+03  6.4591002550882886e+03  6.4194089092995737e+03  6.3800425253075500e+03  6.3410102050512169e+03  6.3023170303845691e+03  6.2639646790149955e+03  6.2259518169763533e+03  6.1882743305934246e+03  6.1509254371716661e+03  6.1138957010008216e+03  6.0771729759168020e+03  6.0407422958092338e+03  6.0045857390954870e+03  5.9686823014566953e+03  5.9330078219157422e+03  5.8975350190847948e+03  5.8622337053839829e+03  5.8270712559743688e+03  5.7920134163594666e+03  5.7570255411216522e+03  5.7220743728097304e+03  5.6871305070811422e+03  5.6521717749648833e+03  5.6171879601550736e+03  5.5821875910921071e+03  5.5472078175749539e+03  5.5123287499783455e+03  5.4777092572977590e+03  5.4436968533706649e+03  5.4111035173956543e+03  5.3810293807551388e+03  5.3422026980035525e+03  5.2866948143323943e+03  5.2369918457667345e+03  5.1890628743343132e+03  5.1418138670621802e+03  5.0948516893541582e+03  5.0479979111831844e+03  5.0011704715204978e+03  4.9543366110641155e+03  4.9074904240809010e+03  4.8606410230699767e+03  4.8138057992921413e+03  4.7670063830700201e+03  4.7202661500673594e+03  4.6736086652190352e+03  4.6270567190047168e+03  4.5806317480869166e+03  4.5343535092345237e+03  4.4882399211963520e+03  4.4423070177679801e+03  4.3965689738278124e+03  4.3510381784475012e+03  4.3057253375195987e+03  4.2606395940290759e+03  4.2157886579802744e+03  4.1711789406356620e+03  4.1268156895119864e+03  4.0827031217722911e+03  4.0388445544260567e+03  3.9952425302350275e+03  3.9518989384960682e+03  3.9088151299963524e+03  3.8659920254491899e+03  3.8234302166402508e+03  3.7811300593651854e+03  3.7390917570282181e+03  3.6973154334989267e+03  3.6558011935053446e+03  3.6145491684652611e+03  3.5735595452313910e+03  3.5328325747422764e+03  3.4923685570059483e+03  3.4521677981777170e+03  3.4122305346659500e+03  3.3725568181395593e+03  3.3331463539162614e+03  3.2939982833465510e+03  3.2551108983260046e+03  3.2164812727963949e+03  3.1781047918725512e+03  3.1399745539529558e+03  3.1020806148734978e+03  3.0644090362262018e+03  3.0269406933743294e+03  2.9896497944547341e+03  2.9525020632029814e+03  2.9154525508518609e+03  2.8784430721470271e+03  2.8413993146645585e+03  2.8042277551395700e+03  2.7668126354596316e+03  2.7290134057910145e+03  2.6906632293294565e+03  2.6515693434931368e+03  2.6115162314053823e+03  2.5702725648324126e+03  2.5276025753396912e+03  2.4832817428731846e+03  2.4371154335858823e+03  2.3889576211128419e+03  2.3387257107299561e+03  2.2864075883818250e+03  2.2320588095779826e+03  2.1757907911740408e+03  2.1177535058804897e+03  2.0581171593657423e+03  1.9970564641805856e+03  1.9347393175802360e+03  1.8713200233326754e+03  1.8069362202645784e+03  1.7417083757383716e+03  1.6757408059542893e+03  1.6091234454245730e+03  1.5419338553799018e+03  1.4742391738772110e+03  1.4060978581686129e+03  1.3375611628214785e+03  1.2686743505069207e+03  1.1994776599306024e+03  1.1300070671362612e+03  1.0602948790959103e+03  9.9037019636013258e+02  9.2025927713303167e+02  8.4998582995607421e+02  7.7957125711759988e+02  7.0903486647112993e+02  6.3839406596054323e+02  5.6766455342453980e+02  4.9686051549748225e+02  4.2599485597759508e+02  3.5507950095435046e+02  2.8412607088150361e+02  2.1314771595198948e+02  1.4215268803382278e+02  7.1139753829088122e+01  3.0176644995287422e-01  1.5392757181705997e-02  2.9826579071684555e-03  1.5435700067342303e-03  5.2050199256367614e-04  -1.1466115290060296e-04  -5.2593106016668879e-04  -8.2177679617839912e-04  -1.0529617690397750e-03  -1.2435650299563654e-03  -1.4054638824772328e-03  -1.5445863143691203e-03  -1.6637889907942050e-03  -1.7642598784953349e-03  -1.8462355193362590e-03  -1.9093840669537538e-03  -1.9530179872456832e-03  -1.9762163862367434e-03  -1.9778976297675495e-03  -1.9568637475526063e-03  -1.9118283930341299e-03  -1.8414350183508239e-03  -1.7442691400129408e-03  -1.6188670025278715e-03  -1.4637220298678475e-03  -1.2772898949528293e-03  -1.0579926775027212e-03  -8.0422233236128330e-04  -5.1434350593234333e-04  -1.8669558714867239e-04  1.8040625335114278e-04  5.8867140721574770e-04  1.0398360485806583e-03  1.5356678475747176e-03  2.0779739156088278e-03  2.6686128423112979e-03  3.3095118368406157e-03  4.0026896052321485e-03  4.7502874543987926e-03  5.5546107125640024e-03  6.4181807254661749e-03  7.3437934793954569e-03  8.3345818879228834e-03  9.3940900579258073e-03  1.0526441216281379e-02  1.1736656661425277e-02  1.3030313293791469e-02  1.4414214020383400e-02  1.5896201623351678e-02  1.7485851002254190e-02  1.9194557020649615e-02  2.1036278916031177e-02  2.3027213375263630e-02  2.5186179946514339e-02  2.7536662124213105e-02  3.0109223508677785e-02  3.2922248319910613e-02  3.6039980076034962e-02  3.9560168785027751e-02  4.3511077362770850e-02  4.7878929247174955e-02  5.2853343540183673e-02  5.9070012743964263e-02  6.5748684287136927e-02  7.1910188349406282e-02  8.0104312608716990e-02  8.9554796979878365e-02  1.0300668971368722e-01  9.7885188311862673e-02  1.4955434938017229e-01  1.6231068907799928e-01  1.6068418949590405e-01  -7.7893325166022398e-01  -2.1943531891503909e+00  -7.4696054575341941e-01  -5.9492497271286471e-01  -4.0270541059071202e-01  -2.8162750845017664e-01  -2.1606735156756254e-01  -1.7641397339010415e-01  -1.4816069304970778e-01  -1.2490664456275496e-01  -1.0373616694747674e-01  -8.2080369304720194e-02  -5.5544092809666240e-02  -1.4282948361580922e-01  1.7072055100251076e+00  -2.5704575160319076e+00  6.8955834409692613e+01  1.4161895186197793e+02  2.1408935169702042e+02  2.8852621077093204e+02  3.6578051518730967e+02  4.4640410561190072e+02  5.3081403731289367e+02  6.1921177894691471e+02  7.1142815700005201e+02  8.0686225396120903e+02  9.0474247872785759e+02  1.0046162407372875e+03  1.1065389816291902e+03  1.2106768120575309e+03  1.3166623829099706e+03  1.4235020976358046e+03  1.5302534756392388e+03  1.6365611197470664e+03  1.7424340696492923e+03  1.8477527334759270e+03  1.9522750668420595e+03  2.0556213586342751e+03  2.1570882591092218e+03  2.2561339186570799e+03  2.3529603227364196e+03  2.4482285206306142e+03  2.5425121786557424e+03  2.6361307629643802e+03  2.7292159513019869e+03  2.8217811192283366e+03  2.9137387094147857e+03  3.0048695528232383e+03  3.0947629912271191e+03  3.1827846485071964e+03  3.2681641167144503e+03  3.3502100244419148e+03  3.4284549523839419e+03  3.5025800360666203e+03  3.5723330273786610e+03  3.6373759061555802e+03  3.6952230332525405e+03  2.7374463190497263e+03  2.7835762759259192e+03  3.8755359521796877e+03  3.9260363734847792e+03  3.9749919415233676e+03  2.9357887644522075e+03  2.9775384992268937e+03  4.1370946035493325e+03  4.1811331079167085e+03  3.0835835387531029e+03  3.1228927104450531e+03  4.3335348501937096e+03  4.3746975456125710e+03  3.2220452027896636e+03  3.2587171391809284e+03  4.5173752081048269e+03  4.5588930213340509e+03  4.6018246700505233e+03  4.6444366615578911e+03  4.6864402764341239e+03  4.7260124740484453e+03  3.4767161045941593e+03  4.8158162530759137e+03  4.8535380522016312e+03  3.5696949962677763e+03  4.9439576745165041e+03  4.9821372265928521e+03  3.6626967859196643e+03  3.6984814330312697e+03  5.1212390206329446e+03  5.1636157915090234e+03  5.2058263505777095e+03  3.8278540208563941e+03  3.8659870433490755e+03  5.3541605549632022e+03  5.3994376197641177e+03  5.4445625070429769e+03  4.0042401260451602e+03  4.0450432597215727e+03  5.6032864251398660e+03  5.6517886919664807e+03  5.7001667616596769e+03  4.1932343278666713e+03  4.2371147236507986e+03  5.8708868070039234e+03  5.9232994599352332e+03  5.9757112964658518e+03  4.3974951425927429e+03  4.4453079256601259e+03  6.1612633143686835e+03  6.2152263409856478e+03  4.5754238051964503e+03  4.6272302135661967e+03  6.4164666306819054e+03  6.4786556826341202e+03  6.5407975981365171e+03  4.8172111811184704e+03  4.8733143553364071e+03  6.7586925291053994e+03  6.8240969882868903e+03  6.8882834727691898e+03  5.0708958019103156e+03  5.1263390841559412e+03  7.1042278169335577e+03  7.1677489978668991e+03  7.2304400462681579e+03  5.3194264873369993e+03  5.3747392864750009e+03  7.4455069010409843e+03  7.5091859212600993e+03  7.5715372551700066e+03  5.5671477372224572e+03  5.6222032062118078e+03  7.7882145511857261e+03  7.8431545212331575e+03  5.7466713666586948e+03  5.7882043080536323e+03  5.8267460868112084e+03  5.8640673704136952e+03  5.8997097742757451e+03  5.9334216520312129e+03  5.9653247978826357e+03  5.9957696557758936e+03  6.0251607265799603e+03  6.0538482208890018e+03  6.0820853773310218e+03  6.1100003109863437e+03  6.1376001115515637e+03  6.1648226735795515e+03  6.1916255962758405e+03  6.2180303965729827e+03  6.2441007010649791e+03  6.2699036415237615e+03  6.2954899458754771e+03  6.3208918512128676e+03  6.3461275999852714e+03  6.3712063370596798e+03  6.3961316767357748e+03  6.4209038109318217e+03  6.4455204543479495e+03  6.4699770227389808e+03  6.4942664619532925e+03  6.5183791068091869e+03  6.5423028164356920e+03  6.5660234333252574e+03  6.5895254402192895e+03  6.6127926353634411e+03  6.6358087211037819e+03  6.6585578145890595e+03  6.6810249404112747e+03  6.7031965287124085e+03  6.7250608749451812e+03  6.7466084857770074e+03  6.7678322589892960e+03  6.7887274983649631e+03  6.8092918120698860e+03  6.8295249631127899e+03  6.8494287288479036e+03  6.8690067926513830e+03  6.8882646527559209e+03  6.9072095089148797e+03  6.9258500863668241e+03  6.9441963748505596e+03  6.9622592856198498e+03  6.9800502485065717e+03  6.9975807771165282e+03  7.0148620233853662e+03  7.0319043271739956e+03  7.0487167465142129e+03  7.0653065308865298e+03  7.0816784708467485e+03  7.0978340151070270e+03  7.1137699782100108e+03  7.1294765489712563e+03  7.1449341645379363e+03  7.1601094224084964e+03  7.1749583868220006e+03  7.1894822319778978e+03  7.2038851377936726e+03  7.2184649310627765e+03  7.2330139143280212e+03  7.2489589606567861e+03  7.2681609475257828e+03  7.2803095291244881e+03  7.2990698833420483e+03  7.3238308759631173e+03  7.3401036673421613e+03  1.0095697594300556e+04  7.3788590522357044e+03  7.3976635005852550e+03  1.0171148283388893e+04  7.4237175928951438e+03  7.4414668841107286e+03  1.0232250516467951e+04  7.4688009281024870e+03  7.4852975333291506e+03  1.0291348930452277e+04  1.0304057418027060e+04  7.5196353711706925e+03  1.0343422031868382e+04  1.0367206297131890e+04  7.5646715236938926e+03  7.5833699920103845e+03  7.5985265892389380e+03  1.0450881934334106e+04  7.6308102928393591e+03  7.6485629963549500e+03  7.6634665944409780e+03  1.0537831843402362e+04  7.6884374549531549e+03  7.7072868787009656e+03  7.7229732073303821e+03  7.7380087685337439e+03  7.7511653197463693e+03  7.7621263241946845e+03  7.7785647675200698e+03  7.7937942148692528e+03  7.8100029885521199e+03  7.8275434096900435e+03  7.8451371177632254e+03  7.8622820174512199e+03  7.8789479680060613e+03  7.8950477033693087e+03  7.9111489758881607e+03  7.9284988647245691e+03  7.9463502218107060e+03  7.9639812222192777e+03  7.9808699853106400e+03  7.9968809153233442e+03  8.0131436670546836e+03  8.0284980580329584e+03  8.0398927480134016e+03  8.0536689845255623e+03  8.0692820226798794e+03  1.1095339314191564e+04  1.1112846387670852e+04  1.1132526866243732e+04  1.1153105553885596e+04  1.1151991411359902e+04  1.1151213335427492e+04  1.1150478966943954e+04  1.1149726497650810e+04  1.1148949957121957e+04  1.1148154254056666e+04  1.1147345898919430e+04  1.1146531135198027e+04  1.1145715536428745e+04  1.1144903939164005e+04  1.1144100468570174e+04  1.1143308590922685e+04  1.1142531173417179e+04  1.1141770545449144e+04  1.1141028559248889e+04  1.1140306648585560e+04  1.1139605884479050e+04  1.1138927027073029e+04  1.1138270573091148e+04  1.1137636798574216e+04  1.1137025796837079e+04  1.1136437511771735e+04  1.1135871766755366e+04  1.1135328289505267e+04  1.1134806733266436e+04  1.1134306694732037e+04  1.1133827729090535e+04  1.1133369362572996e+04  1.1132931102845618e+04  1.1132512447560062e+04  1.1132112891340121e+04  1.1131731931449740e+04  1.1131369072356531e+04  1.1131023829375328e+04  1.1130695731550757e+04  1.1130384323914510e+04  1.1130089169233093e+04  1.1129809849343999e+04  1.1129545966163638e+04  1.1129297142437445e+04  1.1129063022291795e+04  1.1128843271638591e+04  1.1128637578475616e+04  1.1128445653119996e+04  1.1128267228406754e+04  1.1128102059880959e+04  1.1127949926008760e+04  1.1127810628430314e+04  1.1127683992276696e+04  1.1127569866571470e+04  1.1127468124738294e+04  1.1127378665236072e+04  1.1127301412344670e+04  1.1127236317126351e+04  1.1127183358590619e+04  1.1127142545094162e+04  1.1127113916011866e+04  1.1127097543720738e+04  1.1127093535945472e+04  1.1127102038522562e+04  1.1127123238649790e+04  1.1127157368699280e+04  1.1127204710685650e+04  1.1127265601495545e+04  1.1127340439000573e+04  1.1127429689191707e+04  1.1127533894486793e+04  1.1127653683369401e+04  1.1127789781509615e+04  1.1127943024480152e+04  1.1128114372089620e+04  1.1128304924163875e+04  1.1128515937238959e+04  1.1128748840952756e+04  1.1129005251714179e+04  1.1129286979130306e+04  1.1129596017155494e+04  1.1129934506400674e+04  1.1130304646517159e+04  1.1130708531074588e+04  1.1131147883845935e+04  1.1131623721867772e+04  1.1132136084469692e+04  1.1132684285287751e+04  1.1133271636924284e+04  1.1133956952181270e+04  1.1135238118352147e+04  1.1114582354847334e+04  1.1114035569990339e+04  1.1113422734048629e+04  1.1112837115755512e+04  1.1112285938301575e+04  1.1111771710335421e+04  1.1111295888434719e+04  1.1110858100515976e+04  1.1110456707948173e+04  1.1110089462227024e+04  1.1109753928348176e+04  1.1109447715660919e+04  1.1109168591127751e+04  1.1108914526407058e+04  1.1108683709259472e+04  1.1108474536689380e+04  1.1108285599564577e+04  1.1108115664043355e+04  1.1107963652625018e+04  1.1107828626225550e+04  1.1107709767897020e+04  1.1107606368386183e+04  1.1107517813508337e+04  1.1107443573207020e+04  1.1107383192127665e+04  1.1107336281523809e+04  1.1107302512322540e+04  1.1107281609191219e+04  1.1107273345465726e+04  1.1107277538818813e+04  1.1107294047564159e+04  1.1107322767506928e+04  1.1107363629264864e+04  1.1107416595995383e+04  1.1107481661473668e+04  1.1107558848474928e+04  1.1107648207420480e+04  1.1107749815253037e+04  1.1107863774510837e+04  1.1107990212573841e+04  1.1108129281057965e+04  1.1108281155335208e+04  1.1108446034158920e+04  1.1108624139373944e+04  1.1108815715691495e+04  1.1109021030507869e+04  1.1109240373744818e+04  1.1109474057687294e+04  1.1109722416791454e+04  1.1109985807432049e+04  1.1110264607553527e+04  1.1110559216183403e+04  1.1110870052759126e+04  1.1111197556210987e+04  1.1111542183733258e+04  1.1111904409163284e+04  1.1112284720873618e+04  1.1112683619065167e+04  1.1113101612329474e+04  1.1113539213325226e+04  1.1113996933388064e+04  1.1114475275863564e+04  1.1114974727920851e+04  1.1115495750569598e+04  1.1116038766566813e+04  1.1116604145863672e+04  1.1117192188208837e+04  1.1117803102497757e+04  1.1118436982441368e+04  1.1119093778130633e+04  1.1119773263103367e+04  1.1120474996588837e+04  1.1121198280725490e+04  1.1121942112731464e+04  1.1122705132264478e+04  1.1123485564534316e+04  1.1124281160092503e+04  1.1125089132519639e+04  1.1125906095238055e+04  1.1126727998020393e+04  1.1127550062132939e+04  1.1128366711163326e+04  1.1129171493311269e+04  1.1129956952786168e+04  1.1130713950827096e+04  1.1131426869962774e+04  1.1132048205361032e+04  1.1132415363677655e+04  1.1094507663391487e+04  1.1094041088501308e+04  1.1093470922063731e+04  1.1092866891601667e+04  1.1092295858906242e+04  1.1091774269684451e+04  1.1091301279156427e+04  1.1090872228228702e+04  1.1090482293043382e+04  1.1090127283939146e+04  1.1089803699668841e+04  1.1089508621482106e+04  1.1089239597938025e+04  1.1088994551588978e+04  1.1088771708191445e+04  1.1088569543259231e+04  1.1088386741063649e+04  1.1088222162509819e+04  1.1088074819459831e+04  1.1087943853866034e+04  1.1087828520592702e+04  1.1087728173134827e+04  1.1087642251657440e+04  1.1087570272922499e+04  1.1087511821769396e+04  1.1087466543886138e+04  1.1087434139660836e+04  1.1087414358942924e+04  1.1087406996574640e+04  1.1087411888577823e+04  1.1087428908900707e+04  1.1087457966645383e+04  1.1087499003709370e+04  1.1087551992785569e+04  1.1087616935673197e+04  1.1087693861859858e+04  1.1087782827340234e+04  1.1087883913642016e+04  1.1087997227033271e+04  1.1088122897888552e+04  1.1088261080193361e+04  1.1088411951168331e+04  1.1088575710995516e+04  1.1088752582629826e+04  1.1088942811678766e+04  1.1089146666332806e+04  1.1089364437328086e+04  1.1089596437920989e+04  1.1089843003852076e+04  1.1090104493273504e+04  1.1090381286610027e+04  1.1090673786318781e+04  1.1090982416506622e+04  1.1091307622356333e+04  1.1091649869303734e+04  1.1092009641896750e+04  1.1092387442254123e+04  1.1092783788025696e+04  1.1093199209737493e+04  1.1093634247382603e+04  1.1094089446092885e+04  1.1094565350696388e+04  1.1095062498930369e+04  1.1095581413039967e+04  1.1096122589448036e+04  1.1096686486132372e+04  1.1097273507294216e+04  1.1097883984848417e+04  1.1098518156214548e+04  1.1099176137845989e+04  1.1099857893908862e+04  1.1100563199529654e+04  1.1101291598088690e+04  1.1102042352178971e+04  1.1102814388121207e+04  1.1103606234389710e+04  1.1104415955022789e+04  1.1105241080037647e+04  1.1106078535584646e+04  1.1106924575092515e+04  1.1107774702387287e+04  1.1108623539346221e+04  1.1109464473790567e+04  1.1110288622218006