<?xml version="1.0"?>
<VTKFile type="UnstructuredGrid"  version="0.1"  >
<UnstructuredGrid>
<Piece  NumberOfPoints="21600" NumberOfCells="42542">
<Points>
<DataArray  type="Float64"  NumberOfComponents="3"  format="ascii">0 0 0  0.77 0 0  0.77 0.15 0  0 0.15 0  0.003221757322170014 0 0  0.006443514644340046 0 0  0.009665271966510193 0 0  0.01288702928868034 0 0  0.01610878661085048 0 0  0.01933054393302049 0 0  0.02255230125519027 0 0  0.02577405857735967 0 0  0.02899581589952872 0 0  0.03221757322169801 0 0  0.03543933054386744 0 0  0.03866108786603686 0 0  0.04188284518820627 0 0  0.0451046025103757 0 0  0.04832635983254521 0 0  0.05154811715471607 0 0  0.05476987447688695 0 0  0.05799163179905782 0 0  0.06121338912122846 0 0  0.06443514644339859 0 0  0.06765690376556875 0 0  0.0708786610877389 0 0  0.07410041840990904 0 0  0.0773221757320792 0 0  0.08054393305425039 0 0  0.08376569037642198 0 0  0.0869874476985936 0 0  0.09020920502076518 0 0  0.0934309623429339 0 0  0.0966527196651024 0 0  0.09987447698726967 0 0  0.1030962343094369 0 0  0.1063179916316041 0 0  0.1095397489537714 0 0  0.1127615062759386 0 0  0.1159832635981051 0 0  0.1192050209202709 0 0  0.1224267782424358 0 0  0.1256485355646001 0 0  0.1288702928867644 0 0  0.1320920502089288 0 0  0.1353138075310958 0 0  0.1385355648532632 0 0  0.1417573221754333 0 0  0.1449790794976035 0 0  0.1482008368197736 0 0  0.1514225941419428 0 0  0.1546443514641101 0 0  0.157866108786276 0 0  0.1610878661084403 0 0  0.1643096234306047 0 0  0.167531380752769 0 0  0.1707531380749333 0 0  0.1739748953970977 0 0  0.177196652719262 0 0  0.1804184100414264 0 0  0.1836401673635935 0 0  0.1868619246857611 0 0  0.1900836820079313 0 0  0.1933054393301014 0 0  0.1965271966522716 0 0  0.1997489539744406 0 0  0.2029707112966078 0 0  0.2061924686187736 0 0  0.209414225940938 0 0  0.2126359832631022 0 0  0.2158577405852666 0 0  0.219079497907431 0 0  0.2223012552295953 0 0  0.2255230125517597 0 0  0.2287447698739242 0 0  0.2319665271960914 0 0  0.2351882845182592 0 0  0.2384100418404293 0 0  0.2416317991625994 0 0  0.2448535564847696 0 0  0.2480753138069371 0 0  0.2512970711291014 0 0  0.2545188284512658 0 0  0.2577405857734302 0 0  0.2609623430955986 0 0  0.2641841004177688 0 0  0.2674058577399389 0 0  0.270627615062109 0 0  0.2738493723842792 0 0  0.2770711297064487 0 0  0.280292887028613 0 0  0.2835146443507774 0 0  0.2867364016729417 0 0  0.2899581589951061 0 0  0.2931799163172705 0 0  0.2964016736394348 0 0  0.2996234309615992 0 0  0.3028451882837672 0 0  0.3060669456059373 0 0  0.3092887029281075 0 0  0.3125104602502776 0 0  0.3157322175724478 0 0  0.3189539748946177 0 0  0.322175732216782 0 0  0.3253974895389464 0 0  0.3286192468611107 0 0  0.3318410041832751 0 0  0.3350627615054395 0 0  0.3382845188276038 0 0  0.3415062761497681 0 0  0.3447280334719325 0 0  0.3479497907940968 0 0  0.3511715481162612 0 0  0.3543933054384255 0 0  0.3576150627605947 0 0  0.3608368200827649 0 0  0.364058577404935 0 0  0.3672803347271051 0 0  0.3705020920492753 0 0  0.373723849371444 0 0  0.3769456066936084 0 0  0.3801673640157748 0 0  0.383389121337945 0 0  0.3866108786601209 0 0  0.3898326359823028 0 0  0.3930543933044846 0 0  0.3962761506266662 0 0  0.399497907948848 0 0  0.4027196652710298 0 0  0.4059414225932116 0 0  0.4091631799153934 0 0  0.4123849372375751 0 0  0.4156066945597569 0 0  0.4188284518819387 0 0  0.4220502092041222 0 0  0.4252719665263097 0 0  0.4284937238484974 0 0  0.4317154811706849 0 0  0.4349372384928725 0 0  0.4381589958150601 0 0  0.4413807531372476 0 0  0.4446025104594352 0 0  0.4478242677816181 0 0  0.4510460251037998 0 0  0.4542677824259815 0 0  0.4574895397481634 0 0  0.4607112970703451 0 0  0.4639330543925269 0 0  0.4671548117147087 0 0  0.4703765690368904 0 0  0.4735983263590722 0 0  0.4768200836812568 0 0  0.4800418410034444 0 0  0.483263598325632 0 0  0.4864853556478196 0 0  0.4897071129700028 0 0  0.4929288702921845 0 0  0.4961506276143663 0 0  0.4993723849365479 0 0  0.5025941422587239 0 0  0.5058158995809008 0 0  0.5090376569030826 0 0  0.5122594142252677 0 0  0.515481171547461 0 0  0.5187029288696494 0 0  0.5219246861918312 0 0  0.525146443514013 0 0  0.5283682008361947 0 0  0.5315899581583845 0 0  0.5348117154805778 0 0  0.5380334728027617 0 0  0.5412552301249435 0 0  0.5444769874471141 0 0  0.5476987447692853 0 0  0.550920502091467 0 0  0.5541422594136513 0 0  0.5573640167358447 0 0  0.560585774058034 0 0  0.5638075313802158 0 0  0.5670292887023975 0 0  0.5702510460245793 0 0  0.5734728033467682 0 0  0.5766945606689615 0 0  0.579916317991155 0 0  0.5831380753133483 0 0  0.5863598326355314 0 0  0.5895815899577131 0 0  0.5928033472798949 0 0  0.5960251046020785 0 0  0.5992468619242718 0 0  0.6024686192464619 0 0  0.6056903765686437 0 0  0.6089121338908206 0 0  0.6121338912129908 0 0  0.6153556485351673 0 0  0.618577405857349 0 0  0.6217991631795386 0 0  0.625020920501732 0 0  0.6282426778239159 0 0  0.6314644351460976 0 0  0.6346861924682795 0 0  0.6379079497904622 0 0  0.6411297071126555 0 0  0.6443514644348465 0 0  0.6475732217570283 0 0  0.650794979079206 0 0  0.6540167364013761 0 0  0.6572384937235518 0 0  0.6604602510457335 0 0  0.6636820083679225 0 0  0.6669037656901158 0 0  0.6701255230123004 0 0  0.6733472803344823 0 0  0.6765690376566641 0 0  0.6797907949788459 0 0  0.6830125523010393 0 0  0.686234309623231 0 0  0.6894560669454127 0 0  0.6926778242675914 0 0  0.6958995815897615 0 0  0.6991213389119363 0 0  0.7023430962341181 0 0  0.7055648535563062 0 0  0.7087866108784994 0 0  0.712008368200685 0 0  0.7152301255228668 0 0  0.7184518828450486 0 0  0.7216736401672305 0 0  0.724895397489423 0 0  0.7281171548116155 0 0  0.7313389121337973 0 0  0.7345606694559768 0 0  0.7377824267781468 0 0  0.7410041841003209 0 0  0.7442259414225026 0 0  0.7474476987446899 0 0  0.7506694560668832 0 0  0.7538912133890696 0 0  0.7571129707112513 0 0  0.760334728033433 0 0  0.7635564853556149 0 0  0.7667782426778067 0 0  0.77 0.001685393258423789 0  0.77 0.003370786516847669 0  0.77 0.005056179775271247 0  0.77 0.006741573033694517 0  0.77 0.008426966292117821 0  0.77 0.01011235955054176 0  0.77 0.01179775280896623 0  0.77 0.0134831460673904 0  0.77 0.01516853932581489 0  0.77 0.01685393258423891 0  0.77 0.01853932584266291 0  0.77 0.02022471910108589 0  0.77 0.02191011235950794 0  0.77 0.02359550561792999 0  0.77 0.02528089887635205 0  0.77 0.02696629213477411 0  0.77 0.02865168539319714 0  0.77 0.03033707865161956 0  0.77 0.03202247191004162 0  0.77 0.03370786516846367 0  0.77 0.03539325842688572 0  0.77 0.03707865168530778 0  0.77 0.03876404494372984 0  0.77 0.0404494382021519 0  0.77 0.04213483146057394 0  0.77 0.04382022471899601 0  0.77 0.04550561797741807 0  0.77 0.04719101123584013 0  0.77 0.04887640449426219 0  0.77 0.05056179775268425 0  0.77 0.0522471910111063 0  0.77 0.05393258426952837 0  0.77 0.05561797752795105 0  0.77 0.05730337078637505 0  0.77 0.05898876404479723 0  0.77 0.0606741573032193 0  0.77 0.06235955056164135 0  0.77 0.06404494382006341 0  0.77 0.06573033707848548 0  0.77 0.06741573033690752 0  0.77 0.06910112359532959 0  0.77 0.07078651685375165 0  0.77 0.0724719101121737 0  0.77 0.07415730337059653 0  0.77 0.07584269662902443 0  0.77 0.07752808988745429 0  0.77 0.07921348314588413 0  0.77 0.08089887640431678 0  0.77 0.08258426966274923 0  0.77 0.08426966292117907 0  0.77 0.08595505617960987 0  0.77 0.08764044943804362 0  0.77 0.08932584269647403 0  0.77 0.09101123595490389 0  0.77 0.09269662921333673 0  0.77 0.09438202247176901 0  0.77 0.09606741573019884 0  0.77 0.09775280898862983 0  0.77 0.09943820224706355 0  0.77 0.1011235955054938 0  0.77 0.1028089887639236 0  0.77 0.1044943820223567 0  0.77 0.1061797752807888 0  0.77 0.1078651685392186 0  0.77 0.1095505617976498 0  0.77 0.1112359550560835 0  0.77 0.1129213483145136 0  0.77 0.1146067415729456 0  0.77 0.1162921348313787 0  0.77 0.1179775280898085 0  0.77 0.1196629213482387 0  0.77 0.1213483146066724 0  0.77 0.1230337078651035 0  0.77 0.1247191011235322 0  0.77 0.1264044943819605 0  0.77 0.1280898876403903 0  0.77 0.1297752808988242 0  0.77 0.1314606741572554 0  0.77 0.1331460674156853 0  0.77 0.1348314606741154 0  0.77 0.1365168539325504 0  0.77 0.1382022471909802 0  0.77 0.13988764044941 0  0.77 0.1415730337078443 0  0.77 0.1432584269662752 0  0.77 0.144943820224705 0  0.77 0.1466292134831355 0  0.77 0.1483146067415701 0  0.7667782426778414 0.15 0  0.7635564853556813 0.15 0  0.7603347280335111 0.15 0  0.757112970711341 0.15 0  0.7538912133891708 0.15 0  0.7506694560670005 0.15 0  0.7474476987448303 0.15 0  0.7442259414226602 0.15 0  0.74100418410049 0.15 0  0.7377824267783197 0.15 0  0.7345606694561496 0.15 0  0.7313389121339794 0.15 0  0.7281171548118092 0.15 0  0.724895397489639 0.15 0  0.7216736401674688 0.15 0  0.7184518828452986 0.15 0  0.7152301255231284 0.15 0  0.7120083682009583 0.15 0  0.708786610878788 0.15 0  0.7055648535566178 0.15 0  0.7023430962344477 0.15 0  0.6991213389122775 0.15 0  0.6958995815901072 0.15 0  0.692677824267937 0.15 0  0.6894560669457669 0.15 0  0.6862343096235967 0.15 0  0.6830125523014264 0.15 0  0.6797907949792563 0.15 0  0.6765690376570861 0.15 0  0.6733472803349159 0.15 0  0.6701255230127456 0.15 0  0.6669037656905755 0.15 0  0.6636820083684053 0.15 0  0.6604602510462351 0.15 0  0.657238493724065 0.15 0  0.6540167364018947 0.15 0  0.6507949790797245 0.15 0  0.6475732217575543 0.15 0  0.644351464435384 0.15 0  0.6411297071132231 0.15 0  0.6379079497910645 0.15 0  0.634686192468906 0.15 0  0.6314644351467468 0.15 0  0.6282426778245765 0.15 0  0.6250209205024085 0.15 0  0.62179916318025 0.15 0  0.6185774058580914 0.15 0  0.6153556485359328 0.15 0  0.6121338912137689 0.15 0  0.6089121338915987 0.15 0  0.6056903765694354 0.15 0  0.6024686192472768 0.15 0  0.5992468619251182 0.15 0  0.5960251046029597 0.15 0  0.5928033472807912 0.15 0  0.589581589958621 0.15 0  0.5863598326364508 0.15 0  0.5831380753142792 0.15 0  0.5799163179920974 0.15 0  0.57669456
[...]
<PointData  Scalars="pressure"> 
<DataArray  type="Float64"  Name="pressure"  format="ascii">1.0992882726670510e+04  7.8171600854780554e-01  -6.7335551468724986e-01  1.1005489791628946e+04  1.0967014171018580e+04  1.0947349922531204e+04  1.0929975407377417e+04  7.9450725644329823e+03  7.9282626577531901e+03  7.9130352026259779e+03  7.8979303271576218e+03  7.8829223269173945e+03  7.8679862447442501e+03  7.8531014477641302e+03  7.8382552812607346e+03  7.8234395649185726e+03  7.8086487721740486e+03  7.7938790992057857e+03  7.7791279242838236e+03  7.7643934732134476e+03  7.7496746029358410e+03  7.7349706563533364e+03  7.7202813620214374e+03  7.7056067632151380e+03  7.6909471668930037e+03  7.6763031065606065e+03  7.6616753151235007e+03  7.6470647051154947e+03  7.6324723545138422e+03  7.6178994968938387e+03  7.6033475150362492e+03  7.5888179373473267e+03  7.5743124366221027e+03  7.5598328308015161e+03  7.5453810854602398e+03  7.5309593178231080e+03  7.5165698021531189e+03  7.5022149763856578e+03  7.4878974499061469e+03  7.4736200123834587e+03  7.4593856435800199e+03  7.4451975240634110e+03  7.4310590467431166e+03  7.4169738291508384e+03  7.4029457263738122e+03  7.3889788445383692e+03  7.3750775547252952e+03  7.3612465071807264e+03  7.3474906456659292e+03  7.3338152217658308e+03  7.3202258089502911e+03  7.3067283161502355e+03  7.2933290005723429e+03  7.2800344794251159e+03  7.2668517401610552e+03  7.2537881487467812e+03  7.2408514553450013e+03  7.2280497966196417e+03  7.2153916936430733e+03  7.2028860440778471e+03  7.1905421069042295e+03  7.1783694774439709e+03  7.1663780497537955e+03  7.1545779625745072e+03  7.1429795238357037e+03  7.1315931070851675e+03  7.1204290108815940e+03  7.1094972687065319e+03  7.0988073914881479e+03  7.0883680158289717e+03  7.0781864154647892e+03  7.0682678052325728e+03  7.0586143129048396e+03  7.0492233853343077e+03  7.0400851597191913e+03  7.0311777816400800e+03  7.0224583010775614e+03  7.0138435890947940e+03  7.0051634761934538e+03  6.9959029427617988e+03  6.9837214636724229e+03  6.9608113356480408e+03  6.9222197319149072e+03  6.8836116683379105e+03  6.8445633731714752e+03  6.8054031955319133e+03  6.7662680452675086e+03  6.7272301734835219e+03  6.6883336856571159e+03  6.6496049321475093e+03  6.6110589742319817e+03  6.5727037873471027e+03  6.5345432416898229e+03  6.4965795307296839e+03  6.4588154617667133e+03  6.4212569297090731e+03  6.3839159162095084e+03  6.3468145076997071e+03  6.3099907250335164e+03  6.2735072174424558e+03  6.2374642446243461e+03  6.2020336268841220e+03  6.1675650962580112e+03  6.1348563648860172e+03  6.1049771746657916e+03  6.0668398781430224e+03  6.0127913310246813e+03  5.9649307670138096e+03  5.9192539300776589e+03  5.8746449994855420e+03  5.8306790159133998e+03  5.7871438025165926e+03  5.7439233913222679e+03  5.7009518908061336e+03  5.6581916127319919e+03  5.6156215580079270e+03  5.5732308102239986e+03  5.5310144922825129e+03  5.4889711771860984e+03  5.4471011827924522e+03  5.4054054355782700e+03  5.3638847177241096e+03  5.3225391812521057e+03  5.2813680523273615e+03  5.2403694723954923e+03  5.1995404376848383e+03  5.1588768084647581e+03  5.1183733663323501e+03  5.0780239028233755e+03  5.0378213264628703e+03  4.9977577783715742e+03  4.9578247489577698e+03  4.9180131901920922e+03  4.8783136195721045e+03  4.8387162131899377e+03  4.7992108863592093e+03  4.7597873610673278e+03  4.7204352201235915e+03  4.6811439482995747e+03  4.6419029610294165e+03  4.6027016213798815e+03  4.5635292460349137e+03  4.5243751009884236e+03  4.4852283875221847e+03  4.4460782188857220e+03  4.4069135879121695e+03  4.3677233256279287e+03  4.3284960507725082e+03  4.2892201100726616e+03  4.2498835091466271e+03  4.2104738340856075e+03  4.1709781641006530e+03  4.1313829761582892e+03  4.0916740432693291e+03  4.0518363290411708e+03  4.0118538822351529e+03  3.9717097363467165e+03  3.9313858205873144e+03  3.8908628900028471e+03  3.8501204837012101e+03  3.8091369211350025e+03  3.7678893469238988e+03  3.7263538346065470e+03  3.6845055587845286e+03  3.6423190431720900e+03  3.5997684889554257e+03  3.5568281835604193e+03  3.5134729845246238e+03  3.4696788669632460e+03  3.4254235166087797e+03  3.3806869442723250e+03  3.3354520926388959e+03  3.2897054033867785e+03  3.2434373123829464e+03  3.1966426435370513e+03  3.1493208777317141e+03  3.1014762815754457e+03  3.0531178906127629e+03  3.0042593518738831e+03  2.9549186400342205e+03  2.9051176689224808e+03  2.8548818249828214e+03  2.8042394513174636e+03  2.7532213102851060e+03  2.7018600498189535e+03  2.6501896943385873e+03  2.5982451760858248e+03  2.5460619175650158e+03  2.4936754709976431e+03  2.4411212166383903e+03  2.3884341185922999e+03  2.3356485344411603e+03  2.2827980734673793e+03  2.2299154974212838e+03  2.1770326574717155e+03  2.1241804610660101e+03  2.0713888627651972e+03  2.0186868736150402e+03  1.9661025841670719e+03  1.9136631968192773e+03  1.8613950636581403e+03  1.8093237264181296e+03  1.7574739555239087e+03  1.7058697854330355e+03  1.6545345436530354e+03  1.6034908708834266e+03  1.5527607297363722e+03  1.5023653994448243e+03  1.4523254539067179e+03  1.4026607203640581e+03  1.3533902160312357e+03  1.3045320601096244e+03  1.2561033589174135e+03  1.2081200623877526e+03  1.1605967910004588e+03  1.1135466333774623e+03  1.0669809163292755e+03  1.0209089511065564e+03  9.7533776198134797e+02  9.3027180598305631e+02  8.8571269551981004e+02  8.4165893852381771e+02  7.9810571336099201e+02  7.5504469765962563e+02  7.1246397096280634e+02  6.7034801019034580e+02  6.2867779384875132e+02  5.8743102544638793e+02  5.4658247866901320e+02  5.0610445699633289e+02  4.6596734955603051e+02  4.2614025456140467e+02  3.8659163336973847e+02  3.4728995371024939e+02  3.0820428132205228e+02  2.6930478606692458e+02  2.3056314211657156e+02  1.9195282859762844e+02  1.5344948085912830e+02  1.1503173226399983e+02  7.6677469395741497e+01  3.8360724348441586e+01  1.6252603765977636e-01  8.6161265767098847e-03  2.4858789168355220e-03  2.2508239468044945e-03  2.2311876762509675e-03  2.4080931381056151e-03  2.6893826323281600e-03  3.0126894771623077e-03  3.3464659878781220e-03  3.6732290771375065e-03  3.9817238487505451e-03  4.2635233665101078e-03  4.5114529352957523e-03  4.7188203495761322e-03  4.8790319605975050e-03  4.9854123227317986e-03  5.0311478939540789e-03  5.0093226808345520e-03  4.9130373177853921e-03  4.7356158496990250e-03  4.4709118140661636e-03  4.1137290699390606e-03  3.6603734551614959e-03  3.1093480124892523e-03  2.4621957905301348e-03  1.7244783695970654e-03  9.0685382823635699e-04  2.6184667073139428e-05  -8.9343302938505993e-04  -1.8198663315175218e-03  -2.7125256392343720e-03  -3.5224645365321849e-03  -4.1931799000650182e-03  -4.6619666305619352e-03  -4.8611056784744347e-03  -4.7179482367232144e-03  -4.1527657364027011e-03  -3.0730958359960919e-03  -1.3635678892217544e-03  1.1292859801900440e-03  4.6167556843058300e-03  9.3769412527248026e-03  1.5734289714176050e-02  2.4166699806724066e-02  3.5028430369004951e-02  4.7776081233321867e-02  6.1850898717280861e-02  9.4201609883982490e-02  -5.2494255825573488e-01  -1.5216470846092580e+00  -2.9560671950825868e-01  -3.6353682467926807e-01  -4.6458530915114882e-01  -3.0078602592995363e-01  -1.8817309772690977e-01  -1.4278170629275092e-01  -1.0717762984228114e-01  -2.3872328367686574e-02  2.5934326574617104e+00  -9.7112412797095756e-03  3.7168718440989801e-01  1.3785463233326076e+00  -2.9526899904168546e+00  2.8403621423542860e+00  -2.6089600196559415e+00  2.5682931607837030e+00  -2.6018398016392115e+00  2.4787264947642260e+00  -1.8689848660848718e+00  4.6940760079725963e-01  1.0746789846603344e-01  7.8722446452848607e-02  9.1147242971811662e-02  7.2996248652433121e-02  4.1450220567375032e-02  4.3801603570360559e-02  2.7710377166781215e-02  1.5516310202570648e-02  4.2298863685264337e-03  -7.5121322533237339e-03  -2.1229872222934900e-02  -3.9031599865467885e-02  -5.8023003380672115e-02  -1.7248414465729572e-01  1.0762832969939440e+00  -2.5285870102789483e+00  2.3231264932343754e+00  -1.6205866458390747e+00  4.7637602955131058e+01  7.6318673794723011e+01  1.1488717687503916e+02  1.9556220052134938e+02  2.3253807398488829e+02  2.7007197611790673e+02  2.2975872151167974e+02  3.5794032217635345e+02  3.9714526191033144e+02  4.3602034466661513e+02  3.5134491984350223e+02  5.2530901371378047e+02  5.6280424449513953e+02  4.4251927881735816e+02  4.7567911726746297e+02  5.0785943340845256e+02  5.4039456537595004e+02  5.7336439171058782e+02  6.0683906040227976e+02  6.4089230480426977e+02  6.7559897489524417e+02  7.1103643245916703e+02  7.4728423819028092e+02  7.8442310836720674e+02  8.2253363090430514e+02  8.6169517952466015e+02  9.0198590028814704e+02  9.4348264865934493e+02  9.8624957722338172e+02  1.0303720163221037e+03  1.0759319676973410e+03  1.1233105022767688e+03  1.1746919235538628e+03  1.6800730644261039e+03  1.7466052518163156e+03  1.8176523719412528e+03  1.8872793089280835e+03  1.4367887680157862e+03  2.0540733273442715e+03  2.1315123727271093e+03  2.2141616257279466e+03  2.2988548646646013e+03  2.3852094505977320e+03  2.4730376508523464e+03  2.5621350639630168e+03  2.6522496082978541e+03  2.7430694529720286e+03  2.8342601211028664e+03  2.9255176761796538e+03  3.0166030095761053e+03  3.1073481687362141e+03  3.1976354082027178e+03  3.2873536587598874e+03  3.3763523986726532e+03  3.4643917280851779e+03  3.5507505153639449e+03  3.6311308960240890e+03  2.7110714745962355e+03  2.7798989880280387e+03  3.8990617972505970e+03  3.9770736355924832e+03  4.0532653278545413e+03  3.0154745524016953e+03  3.0809668850457460e+03  4.3072691209154082e+03  4.3760339502102433e+03  3.2463734824937969e+03  3.3066708117472535e+03  4.6095983225641803e+03  4.6707103925513220e+03  3.4536658890261688e+03  3.5054826080714834e+03  4.8717976177669061e+03  4.9232507684949924e+03  3.6295267173427997e+03  3.6734904290476984e+03  5.0945546761414662e+03  5.1424846553721891e+03  5.1888272531590992e+03  3.8178437655387224e+03  3.8574285543083811e+03  5.3430472751275465e+03  5.3880940162852894e+03  5.4323004055073516e+03  3.9939536589688832e+03  4.0326886760303787e+03  5.5830469290703531e+03  5.6278363838840623e+03  5.6721879403013281e+03  4.1703193113153447e+03  5.7735098306400805e+03  5.8159916015998551e+03  4.2749368719798895e+03  5.9170739042971181e+03  5.9595124484099979e+03  4.3794839086307738e+03  6.0608105724186917e+03  6.1055068870837631e+03  6.1493664022986650e+03  4.5160399235073482e+03  4.5544524355685080e+03  6.2989994136778032e+03  6.3437767899117634e+03  6.3903798785939625e+03  6.4366919808430221e+03  6.4804488131717308e+03  4.7583574733686710e+03  6.5796284231301170e+03  6.6210274688519085e+03  4.8603222017952994e+03  6.7192292738855667e+03  6.7603500902702490e+03  4.9616190222552214e+03  6.8579848700283892e+03  6.8988339642834053e+03  5.0622203514967823e+03  6.9935655984201048e+03  5.1299404255582449e+03  7.0891833686347327e+03  7.1303590978601051e+03  5.2313904471062478e+03  7.2290270677002045e+03  7.2708340231335478e+03  5.3344061765195574e+03  7.3714889381914218e+03  7.4143680926882707e+03  5.4400934671450896e+03  7.5186188989441689e+03  7.5660536690440822e+03  7.6159870094678818e+03  7.6663243155610244e+03  7.7145979045992344e+03  5.6619565243464713e+03  7.8267877409649027e+03  7.8748961516771005e+03  5.7805945432672888e+03  7.9933188894701225e+03  8.0494509710465418e+03  8.1125345925182119e+03  8.1656647845307489e+03  5.9797665853174876e+03  6.0196555717837427e+03  6.0577903460011303e+03  6.0961423941067578e+03  6.1345426297660633e+03  6.1727834402828566e+03  6.2107188182641876e+03  6.2482217322670249e+03  6.2851799685501010e+03  6.3214962324449652e+03  6.3570883299966390e+03  6.3918892249928404e+03  6.4258469492391669e+03  6.4589243131551993e+03  6.4910983065928767e+03  6.5223591213432783e+03  6.5527088125919845e+03  6.5821596738579883e+03  6.6107324247177421e+03  6.6384543251839468e+03  6.6653573380224216e+03  6.6914764492140948e+03  6.7168482241810134e+03  6.7415096339324591e+03  6.7654971450859448e+03  6.7888460390885693e+03  6.8115899098379623e+03  6.8337602818585538e+03  6.8553862885282570e+03  6.8764943469060618e+03  6.8971077576638181e+03  6.9172461394666298e+03  6.9369245679761161e+03  6.9561522165637807e+03  6.9749301668346352e+03  6.9932478810219845e+03  7.0110784773695659e+03  7.0283822191595600e+03  7.0451697799662579e+03  7.0616845276947934e+03  7.0782844179121848e+03  7.0947497066998621e+03  7.1126589026088359e+03  7.1341133576537513e+03  7.1475324663457804e+03  7.1681332446194356e+03  7.1952327764770143e+03  7.2129237825892806e+03  9.9227016234702460e+03  7.2547376510685945e+03  7.2749002238377598e+03  1.0003701406348622e+04  7.3026379915917005e+03  7.3214189666570965e+03  1.0068381632409182e+04  7.3502026630073187e+03  7.3674982314563376e+03  1.0130351174931737e+04  1.0143593275055529e+04  7.4032726502163023e+03  1.0184436491099888e+04  1.0209039907667435e+04  7.4498424260673137e+03  7.4690922647595535e+03  7.4846395475615573e+03  1.0295039979189965e+04  7.5177013631714044e+03  7.5358439175115664e+03  7.5510391224418599e+03  1.0383834252926277e+04  7.5764621856047297e+03  7.5956170898207656e+03  7.6115368771278354e+03  7.6267805171680448e+03  7.6401071160478587e+03  7.6511935145612324e+03  7.6678099998658427e+03  7.6831904774389532e+03  7.6995462471172577e+03  7.7172345025338354e+03  7.7349660581920089e+03  7.7522347236465885e+03  7.7690109896297918e+03  7.7852072223211744e+03  7.8013939424873752e+03  7.8188265720596728e+03  7.8367554937847026e+03  7.8544558314956093e+03  7.8714039974609450e+03  7.8874636046658079e+03  7.9037686907086627e+03  7.9191579578998562e+03  7.9305731974064247e+03  7.9443699763416307e+03  7.9600013058645009e+03  1.0945339760694245e+04  1.0962857294657852e+04  1.0982544638804573e+04  1.1003125627295440e+04  1.1002013338795274e+04  1.1001238542061541e+04  1.1000508896940200e+04  1.0999762625472726e+04  1.0998993789578248e+04  1.0998207327192300e+04  1.0997409773217531e+04  1.0996607390437288e+04  1.0995805766572255e+04  1.0995009747347696e+04  1.0994223462195378e+04  1.0993450376860625e+04  1.0992693353343984e+04  1.0991954711334747e+04  1.0991236289021599e+04  1.0990539501989480e+04  1.0989865399135351e+04  1.0989214714750582e+04  1.0988587916187218e+04  1.0987985246801987e+04  1.0987406764114503e+04  1.0986852373304167e+04  1.0986321856303613e+04  1.0985814896830223e+04  1.0985331101741473e+04  1.0984870019114736e+04  1.0984431153445754e+04  1.0984013978339868e+04  1.0983617947041903e+04  1.0983242501117862e+04  1.0982887077567559e+04  1.0982551114614133e+04  1.0982234056384807e+04  1.0981935356668209e+04  1.0981654481907606e+04  1.0981390913566243e+04  1.0981144149980762e+04  1.0980913707801072e+04  1.0980699123100270e+04  1.0980499952225096e+04  1.0980315772446946e+04  1.0980146182464208e+04  1.0979990802799362e+04  1.0979849276128009e+04  1.0979721267572078e+04  1.0979606464985671e+04  1.0979504579258730e+04  1.0979415344661835e+04  1.0979338519253815e+04  1.0979273885373190e+04  1.0979221250234525e+04  1.0979180446651297e+04  1.0979151333908263e+04  1.0979133798808301e+04  1.0979127756921507e+04  1.0979133154068069e+04  1.0979149968071004e+04  1.0979178210820302e+04  1.0979217930697443e+04  1.0979269215416894e+04  1.0979332195351566e+04  1.0979407047420442e+04  1.0979493999629789e+04  1.0979593336374362e+04  1.0979705404620774e+04  1.0979830621111283e+04  1.0979969480739735e+04  1.0980122566258620e+04  1.0980290559468209e+04  1.0980474254002256e+04  1.0980674569733546e+04  1.0980892568632178e+04  1.0981129471543551e+04  1.0981386674678019e+04  1.0981665763398620e+04  1.0981968518799229e+04  1.0982296909055412e+04  1.0982653052014788e+04  1.0983039127984004e+04  1.0983457215192171e+04  1.0983909026911806e+04  1.0984395575632159e+04  1.0984916903341051e+04  1.0985472334587694e+04  1.0986065202496764e+04  1.0986754354108511e+04  1.0988037736187898e+04  1.0967384037913809e+04  1.0966835120720274e+04  1.0966218498769782e+04  1.0965627401960552e+04  1.0965069020367971e+04  1.0964545841215093e+04  1.0964059311003402e+04  1.0963609057012956e+04  1.0963193447124595e+04  1.0962810244826922e+04  1.0962457031493966e+04  1.0962131436523601e+04  1.0961831250121750e+04  1.0961554470060830e+04  1.0961299312857240e+04  1.0961064206744710e+04  1.0960847776164412e+04  1.0960648823087255e+04  1.0960466307975268e+04  1.0960299331778044e+04  1.0960147119578938e+04  1.0960009006083976e+04  1.0959884422927780e+04  1.0959772887666042e+04  1.0959673994281744e+04  1.0959587405023422e+04  1.0959512843401551e+04  1.0959450088185078e+04  1.0959398968258083e+04  1.0959359358215133e+04  1.0959331174590836e+04  1.0959314372634386e+04  1.0959308943553224e+04  1.0959314912161164e+04  1.0959332334876175e+04  1.0959361298020902e+04  1.0959401916385716e+04  1.0959454332019694e+04  1.0959518713219230e+04  1.0959595253687567e+04  1.0959684171841238e+04  1.0959785710241378e+04  1.0959900135129103e+04  1.0960027736044871e+04  1.0960168825511520e+04  1.0960323738760320e+04  1.0960492833477669e+04  1.0960676489548243e+04  1.0960875108767468e+04  1.0961089114492293e+04  1.0961318951194671e+04  1.0961565083876021e+04  1.0961827997293918e+04  1.0962108194943357e+04  1.0962406197724491e+04  1.0962722542216408e+04  1.0963057778461745e+04  1.0963412467149674e+04  1.0963787176065027e+04  1.0964182475648213e+04  1.0964598933484427e+04  1.0965037107511380e+04  1.0965497537702515e+04  1.0965980735947587e+04  1.0966487173816407e+04  1.0967017267855190e+04  1.0967571362031311e+04  1.0968149706915277e+04  1.0968752435172983e+04  1.0969379532944366e+04  1.0970030806715276e+04  1.0970705845358647e+04  1.0971403977141894e+04  1.0972124221682609e+04  1.0972865237092697e+04  1.0973625262879123e+04  1.0974402059532056e+04  1.0975192846028427e+04  1.0975994236486284e+04  1.0976802176546402e+04  1.0977611878419908e+04  1.0978417751637360e+04  1.0979213325237994e+04  1.0979991118964717e+04  1.0980741963870067e+04  1.0981450205924546e+04  1.0982068297245471e+04  1.0982433600492290e+04  1.0947317378531043e+04  1.0946848924531723e+04  1.0946275180249862e+04  1.0945665841056203e+04  1.0945087708882131e+04  1.0944557214040335e+04  1.0944073515011456e+04  1.0943631963150790e+04  1.0943227748900239e+04  1.0942856699805598e+04  1.0942515334458059e+04  1.0942200756474684e+04  1.0941910539247052e+04  1.0941642632566014e+04  1.0941395291772240e+04  1.0941167024248303e+04  1.0940956548357703e+04  1.0940762761260308e+04  1.0940584713175040e+04  1.0940421586452663e+04  1.0940272678336749e+04  1.0940137386621032e+04  1.0940015197626457e+04  1.0939905676064549e+04  1.0939808456453078e+04  1.0939723235820944e+04  1.0939649767491717e+04  1.0939587855775371e+04  1.0939537351428575e+04  1.0939498147768663e+04  1.0939470177345998e+04  1.0939453409095355e+04  1.0939447845899898e+04  1.0939453522511985e+04  1.0939470503783550e+04  1.0939498883166169e+04  1.0939538781446478e+04  1.0939590345687482e+04  1.0939653748350156e+04  1.0939729186572609e+04  1.0939816881586547e+04  1.0939917078252362e+04  1.0940030044695430e+04  1.0940156072026588e+04  1.0940295474129960e+04  1.0940448587500658e+04  1.0940615771113851e+04  1.0940797406304926e+04  1.0940993896638114e+04  1.0941205667737690e+04  1.0941433167051820e+04  1.0941676863514156e+04  1.0941937247061824e+04  1.0942214827960977e+04  1.0942510135881857e+04  1.0942823718654015e+04  1.0943156140619249e+04  1.0943507980483857e+04  1.0943879828552921e+04  1.0944272283207249e+04  1.0944685946457510e+04  1.0945121418379706e+04  1.0945579290201280e+04  1.0946060135767091e+04  1.0946564501069857e+04  1.0947092891480483e+04  1.0947645756261018e+04  1.0948223469889754e+04  1.0948826309676755e+04  1.0949454429105948e+04  1.0950107826315209e+04  1.0950786307132910e+04  1.0951489442148742e+04  1.0952216517439590e+04  1.0952966478844093e+04  1.0953737870145298e+04  1.0954528766242604e+04  1.0955336703344519e+04  1.0956158608934296e+04  1.0956990732783654e+04  1.0957828570024640e+04  1.0958666728855265e+04  1.0959498578530485e+04  1.0960315211979076e+04  1