<?xml version="1.0"?>
<VTKFile type="UnstructuredGrid"  version="0.1"  >
<UnstructuredGrid>
<Piece  NumberOfPoints="21600" NumberOfCells="42542">
<Points>
<DataArray  type="Float64"  NumberOfComponents="3"  format="ascii">0 0 0  0.77 0 0  0.77 0.15 0  0 0.15 0  0.003221757322170014 0 0  0.006443514644340046 0 0  0.009665271966510193 0 0  0.01288702928868034 0 0  0.01610878661085048 0 0  0.01933054393302049 0 0  0.02255230125519027 0 0  0.02577405857735967 0 0  0.02899581589952872 0 0  0.03221757322169801 0 0  0.03543933054386744 0 0  0.03866108786603686 0 0  0.04188284518820627 0 0  0.0451046025103757 0 0  0.04832635983254521 0 0  0.05154811715471607 0 0  0.05476987447688695 0 0  0.05799163179905782 0 0  0.06121338912122846 0 0  0.06443514644339859 0 0  0.06765690376556875 0 0  0.0708786610877389 0 0  0.07410041840990904 0 0  0.0773221757320792 0 0  0.08054393305425039 0 0  0.08376569037642198 0 0  0.0869874476985936 0 0  0.09020920502076518 0 0  0.0934309623429339 0 0  0.0966527196651024 0 0  0.09987447698726967 0 0  0.1030962343094369 0 0  0.1063179916316041 0 0  0.1095397489537714 0 0  0.1127615062759386 0 0  0.1159832635981051 0 0  0.1192050209202709 0 0  0.1224267782424358 0 0  0.1256485355646001 0 0  0.1288702928867644 0 0  0.1320920502089288 0 0  0.1353138075310958 0 0  0.1385355648532632 0 0  0.1417573221754333 0 0  0.1449790794976035 0 0  0.1482008368197736 0 0  0.1514225941419428 0 0  0.1546443514641101 0 0  0.157866108786276 0 0  0.1610878661084403 0 0  0.1643096234306047 0 0  0.167531380752769 0 0  0.1707531380749333 0 0  0.1739748953970977 0 0  0.177196652719262 0 0  0.1804184100414264 0 0  0.1836401673635935 0 0  0.1868619246857611 0 0  0.1900836820079313 0 0  0.1933054393301014 0 0  0.1965271966522716 0 0  0.1997489539744406 0 0  0.2029707112966078 0 0  0.2061924686187736 0 0  0.209414225940938 0 0  0.2126359832631022 0 0  0.2158577405852666 0 0  0.219079497907431 0 0  0.2223012552295953 0 0  0.2255230125517597 0 0  0.2287447698739242 0 0  0.2319665271960914 0 0  0.2351882845182592 0 0  0.2384100418404293 0 0  0.2416317991625994 0 0  0.2448535564847696 0 0  0.2480753138069371 0 0  0.2512970711291014 0 0  0.2545188284512658 0 0  0.2577405857734302 0 0  0.2609623430955986 0 0  0.2641841004177688 0 0  0.2674058577399389 0 0  0.270627615062109 0 0  0.2738493723842792 0 0  0.2770711297064487 0 0  0.280292887028613 0 0  0.2835146443507774 0 0  0.2867364016729417 0 0  0.2899581589951061 0 0  0.2931799163172705 0 0  0.2964016736394348 0 0  0.2996234309615992 0 0  0.3028451882837672 0 0  0.3060669456059373 0 0  0.3092887029281075 0 0  0.3125104602502776 0 0  0.3157322175724478 0 0  0.3189539748946177 0 0  0.322175732216782 0 0  0.3253974895389464 0 0  0.3286192468611107 0 0  0.3318410041832751 0 0  0.3350627615054395 0 0  0.3382845188276038 0 0  0.3415062761497681 0 0  0.3447280334719325 0 0  0.3479497907940968 0 0  0.3511715481162612 0 0  0.3543933054384255 0 0  0.3576150627605947 0 0  0.3608368200827649 0 0  0.364058577404935 0 0  0.3672803347271051 0 0  0.3705020920492753 0 0  0.373723849371444 0 0  0.3769456066936084 0 0  0.3801673640157748 0 0  0.383389121337945 0 0  0.3866108786601209 0 0  0.3898326359823028 0 0  0.3930543933044846 0 0  0.3962761506266662 0 0  0.399497907948848 0 0  0.4027196652710298 0 0  0.4059414225932116 0 0  0.4091631799153934 0 0  0.4123849372375751 0 0  0.4156066945597569 0 0  0.4188284518819387 0 0  0.4220502092041222 0 0  0.4252719665263097 0 0  0.4284937238484974 0 0  0.4317154811706849 0 0  0.4349372384928725 0 0  0.4381589958150601 0 0  0.4413807531372476 0 0  0.4446025104594352 0 0  0.4478242677816181 0 0  0.4510460251037998 0 0  0.4542677824259815 0 0  0.4574895397481634 0 0  0.4607112970703451 0 0  0.4639330543925269 0 0  0.4671548117147087 0 0  0.4703765690368904 0 0  0.4735983263590722 0 0  0.4768200836812568 0 0  0.4800418410034444 0 0  0.483263598325632 0 0  0.4864853556478196 0 0  0.4897071129700028 0 0  0.4929288702921845 0 0  0.4961506276143663 0 0  0.4993723849365479 0 0  0.5025941422587239 0 0  0.5058158995809008 0 0  0.5090376569030826 0 0  0.5122594142252677 0 0  0.515481171547461 0 0  0.5187029288696494 0 0  0.5219246861918312 0 0  0.525146443514013 0 0  0.5283682008361947 0 0  0.5315899581583845 0 0  0.5348117154805778 0 0  0.5380334728027617 0 0  0.5412552301249435 0 0  0.5444769874471141 0 0  0.5476987447692853 0 0  0.550920502091467 0 0  0.5541422594136513 0 0  0.5573640167358447 0 0  0.560585774058034 0 0  0.5638075313802158 0 0  0.5670292887023975 0 0  0.5702510460245793 0 0  0.5734728033467682 0 0  0.5766945606689615 0 0  0.579916317991155 0 0  0.5831380753133483 0 0  0.5863598326355314 0 0  0.5895815899577131 0 0  0.5928033472798949 0 0  0.5960251046020785 0 0  0.5992468619242718 0 0  0.6024686192464619 0 0  0.6056903765686437 0 0  0.6089121338908206 0 0  0.6121338912129908 0 0  0.6153556485351673 0 0  0.618577405857349 0 0  0.6217991631795386 0 0  0.625020920501732 0 0  0.6282426778239159 0 0  0.6314644351460976 0 0  0.6346861924682795 0 0  0.6379079497904622 0 0  0.6411297071126555 0 0  0.6443514644348465 0 0  0.6475732217570283 0 0  0.650794979079206 0 0  0.6540167364013761 0 0  0.6572384937235518 0 0  0.6604602510457335 0 0  0.6636820083679225 0 0  0.6669037656901158 0 0  0.6701255230123004 0 0  0.6733472803344823 0 0  0.6765690376566641 0 0  0.6797907949788459 0 0  0.6830125523010393 0 0  0.686234309623231 0 0  0.6894560669454127 0 0  0.6926778242675914 0 0  0.6958995815897615 0 0  0.6991213389119363 0 0  0.7023430962341181 0 0  0.7055648535563062 0 0  0.7087866108784994 0 0  0.712008368200685 0 0  0.7152301255228668 0 0  0.7184518828450486 0 0  0.7216736401672305 0 0  0.724895397489423 0 0  0.7281171548116155 0 0  0.7313389121337973 0 0  0.7345606694559768 0 0  0.7377824267781468 0 0  0.7410041841003209 0 0  0.7442259414225026 0 0  0.7474476987446899 0 0  0.7506694560668832 0 0  0.7538912133890696 0 0  0.7571129707112513 0 0  0.760334728033433 0 0  0.7635564853556149 0 0  0.7667782426778067 0 0  0.77 0.001685393258423789 0  0.77 0.003370786516847669 0  0.77 0.005056179775271247 0  0.77 0.006741573033694517 0  0.77 0.008426966292117821 0  0.77 0.01011235955054176 0  0.77 0.01179775280896623 0  0.77 0.0134831460673904 0  0.77 0.01516853932581489 0  0.77 0.01685393258423891 0  0.77 0.01853932584266291 0  0.77 0.02022471910108589 0  0.77 0.02191011235950794 0  0.77 0.02359550561792999 0  0.77 0.02528089887635205 0  0.77 0.02696629213477411 0  0.77 0.02865168539319714 0  0.77 0.03033707865161956 0  0.77 0.03202247191004162 0  0.77 0.03370786516846367 0  0.77 0.03539325842688572 0  0.77 0.03707865168530778 0  0.77 0.03876404494372984 0  0.77 0.0404494382021519 0  0.77 0.04213483146057394 0  0.77 0.04382022471899601 0  0.77 0.04550561797741807 0  0.77 0.04719101123584013 0  0.77 0.04887640449426219 0  0.77 0.05056179775268425 0  0.77 0.0522471910111063 0  0.77 0.05393258426952837 0  0.77 0.05561797752795105 0  0.77 0.05730337078637505 0  0.77 0.05898876404479723 0  0.77 0.0606741573032193 0  0.77 0.06235955056164135 0  0.77 0.06404494382006341 0  0.77 0.06573033707848548 0  0.77 0.06741573033690752 0  0.77 0.06910112359532959 0  0.77 0.07078651685375165 0  0.77 0.0724719101121737 0  0.77 0.07415730337059653 0  0.77 0.07584269662902443 0  0.77 0.07752808988745429 0  0.77 0.07921348314588413 0  0.77 0.08089887640431678 0  0.77 0.08258426966274923 0  0.77 0.08426966292117907 0  0.77 0.08595505617960987 0  0.77 0.08764044943804362 0  0.77 0.08932584269647403 0  0.77 0.09101123595490389 0  0.77 0.09269662921333673 0  0.77 0.09438202247176901 0  0.77 0.09606741573019884 0  0.77 0.09775280898862983 0  0.77 0.09943820224706355 0  0.77 0.1011235955054938 0  0.77 0.1028089887639236 0  0.77 0.1044943820223567 0  0.77 0.1061797752807888 0  0.77 0.1078651685392186 0  0.77 0.1095505617976498 0  0.77 0.1112359550560835 0  0.77 0.1129213483145136 0  0.77 0.1146067415729456 0  0.77 0.1162921348313787 0  0.77 0.1179775280898085 0  0.77 0.1196629213482387 0  0.77 0.1213483146066724 0  0.77 0.1230337078651035 0  0.77 0.1247191011235322 0  0.77 0.1264044943819605 0  0.77 0.1280898876403903 0  0.77 0.1297752808988242 0  0.77 0.1314606741572554 0  0.77 0.1331460674156853 0  0.77 0.1348314606741154 0  0.77 0.1365168539325504 0  0.77 0.1382022471909802 0  0.77 0.13988764044941 0  0.77 0.1415730337078443 0  0.77 0.1432584269662752 0  0.77 0.144943820224705 0  0.77 0.1466292134831355 0  0.77 0.1483146067415701 0  0.7667782426778414 0.15 0  0.7635564853556813 0.15 0  0.7603347280335111 0.15 0  0.757112970711341 0.15 0  0.7538912133891708 0.15 0  0.7506694560670005 0.15 0  0.7474476987448303 0.15 0  0.7442259414226602 0.15 0  0.74100418410049 0.15 0  0.7377824267783197 0.15 0  0.7345606694561496 0.15 0  0.7313389121339794 0.15 0  0.7281171548118092 0.15 0  0.724895397489639 0.15 0  0.7216736401674688 0.15 0  0.7184518828452986 0.15 0  0.7152301255231284 0.15 0  0.7120083682009583 0.15 0  0.708786610878788 0.15 0  0.7055648535566178 0.15 0  0.7023430962344477 0.15 0  0.6991213389122775 0.15 0  0.6958995815901072 0.15 0  0.692677824267937 0.15 0  0.6894560669457669 0.15 0  0.6862343096235967 0.15 0  0.6830125523014264 0.15 0  0.6797907949792563 0.15 0  0.6765690376570861 0.15 0  0.6733472803349159 0.15 0  0.6701255230127456 0.15 0  0.6669037656905755 0.15 0  0.6636820083684053 0.15 0  0.6604602510462351 0.15 0  0.657238493724065 0.15 0  0.6540167364018947 0.15 0  0.6507949790797245 0.15 0  0.6475732217575543 0.15 0  0.644351464435384 0.15 0  0.6411297071132231 0.15 0  0.6379079497910645 0.15 0  0.634686192468906 0.15 0  0.6314644351467468 0.15 0  0.6282426778245765 0.15 0  0.6250209205024085 0.15 0  0.62179916318025 0.15 0  0.6185774058580914 0.15 0  0.6153556485359328 0.15 0  0.6121338912137689 0.15 0  0.6089121338915987 0.15 0  0.6056903765694354 0.15 0  0.6024686192472768 0.15 0  0.5992468619251182 0.15 0  0.5960251046029597 0.15 0  0.5928033472807912 0.15 0  0.589581589958621 0.15 0  0.5863598326364508 0.15 0  0.5831380753142792 0.15 0  0.5799163179920974 0.15 0  0.57669456
[...]
<PointData  Scalars="pressure"> 
<DataArray  type="Float64"  Name="pressure"  format="ascii">3.3869115287156528e+04  2.1666022583173059e+00  -1.6077995587286016e+00  3.3868397975525972e+04  3.3843221119761896e+04  3.3823454185833631e+04  3.3805909860238942e+04  2.4609078036620293e+04  2.4591828541069142e+04  2.4575922018529564e+04  2.4557327888793865e+04  2.4509148655492347e+04  2.4403872593983731e+04  2.4298765589254588e+04  2.4193193750479324e+04  2.4087399972798834e+04  2.3981489223475735e+04  2.3875510435447457e+04  2.3769489179715252e+04  2.3663439969294453e+04  2.3557371608816451e+04  2.3451289724604929e+04  2.3345198061980998e+04  2.3239099198061755e+04  2.3132994955497725e+04  2.3026886653532052e+04  2.2920775266066430e+04  2.2814661524330801e+04  2.2708545985384375e+04  2.2602429078903355e+04  2.2496311139809459e+04  2.2390192431453364e+04  2.2284073162370427e+04  2.2177953498581417e+04  2.2071833572756321e+04  2.1965713491134211e+04  2.1859593338816627e+04  2.1753473183865892e+04  2.1647353080514422e+04  2.1541233071704948e+04  2.1435113191120887e+04  2.1328993464824518e+04  2.1222873912589304e+04  2.1116754548991965e+04  2.1010635384313406e+04  2.0904516425286205e+04  2.0798397675718210e+04  2.0692279137014099e+04  2.0586160808614073e+04  2.0480042688362581e+04  2.0373924772819708e+04  2.0267807057523780e+04  2.0161689537212973e+04  2.0055572206012490e+04  1.9949455057591880e+04  1.9843338085297626e+04  1.9737221282263985e+04  1.9631104641505619e+04  1.9524988155994415e+04  1.9418871818722961e+04  1.9312755622756355e+04  1.9206639561274598e+04  1.9100523627605857e+04  1.8994407815253398e+04  1.8888292117915647e+04  1.8782176529501616e+04  1.8676061044141679e+04  1.8569945656194755e+04  1.8463830360252399e+04  1.8357715151140317e+04  1.8251600023917770e+04  1.8145484973875271e+04  1.8039369996530710e+04  1.7933255087624493e+04  1.7827140243113732e+04  1.7721025459165656e+04  1.7614910732150831e+04  1.7508796058635493e+04  1.7402681435374212e+04  1.7296566859301878e+04  1.7190452327526073e+04  1.7084337837319101e+04  1.6978223386110218e+04  1.6872108971478287e+04  1.6765994591144045e+04  1.6659880242963292e+04  1.6553765924919597e+04  1.6447651635117483e+04  1.6341537371775943e+04  1.6235423133222201e+04  1.6129308917885781e+04  1.6023194724292312e+04  1.5917080551058505e+04  1.5810966396886779e+04  1.5704852260560243e+04  1.5598738140937972e+04  1.5492624036950499e+04  1.5386509947595487e+04  1.5280395871933933e+04  1.5174281809086237e+04  1.5068167758228477e+04  1.4962053718589141e+04  1.4855939689445853e+04  1.4749825670122571e+04  1.4643711659986157e+04  1.4537597658444271e+04  1.4431483664942662e+04  1.4325369678962787e+04  1.4219255700019585e+04  1.4113141727659367e+04  1.4007027761457874e+04  1.3900913801018389e+04  1.3794799845970048e+04  1.3688685895966188e+04  1.3582571950682670e+04  1.3476458009816901e+04  1.3370344073086104e+04  1.3264230140226113e+04  1.3158116210990289e+04  1.3052002285148403e+04  1.2945888362485652e+04  1.2839774442801319e+04  1.2733660525908359e+04  1.2627546611632386e+04  1.2521432699810952e+04  1.2415318790292966e+04  1.2309204882937629e+04  1.2203090977613958e+04  1.2096977074200246e+04  1.1990863172583466e+04  1.1884749272658797e+04  1.1778635374329117e+04  1.1672521477504579e+04  1.1566407582102223e+04  1.1460293688045507e+04  1.1354179795264017e+04  1.1248065903693365e+04  1.1141952013274587e+04  1.1035838123953958e+04  1.0929724235682781e+04  1.0823610348417164e+04  1.0717496462117801e+04  1.0611382576749962e+04  1.0505268692282918e+04  1.0399154808690126e+04  1.0293040925949072e+04  1.0186927044041169e+04  1.0080813162951612e+04  9.9746992826693513e+03  9.8685854031870276e+03  9.7624715245009356e+03  9.6563576466109298e+03  9.5502437695205754e+03  9.4441298932372065e+03  9.3380160177717444e+03  9.2319021431389901e+03  9.1257882693572974e+03  9.0196743964489560e+03  8.9135605244403032e+03  8.8074466533619234e+03  8.7013327832482755e+03  8.5952189141382751e+03  8.4891050460755905e+03  8.3829911791084396e+03  8.2768773132906117e+03  8.1707634486807374e+03  8.0646495853426550e+03  7.9585357233461755e+03  7.8524218627669316e+03  7.7463080036873616e+03  7.6401941461969718e+03  7.5340802903917829e+03  7.4279664363759339e+03  7.3218525842609661e+03  7.2157387341670064e+03  7.1096248862238708e+03  7.0035110405705591e+03  6.8973971973569842e+03  6.7912833567436774e+03  6.6851695189024513e+03  6.5790556840177414e+03  6.4729418522869792e+03  6.3668280239219766e+03  6.2607141991496101e+03  6.1546003782126418e+03  6.0484865613712218e+03  5.9423727489031280e+03  5.8362589411058425e+03  5.7301451382976393e+03  5.6240313408188094e+03  5.5179175490341077e+03  5.4118037633334734e+03  5.3056899841338100e+03  5.1995762118813818e+03  5.0934624470533081e+03  4.9873486901608039e+03  4.8812349417511577e+03  4.7751212024108772e+03  4.6690074727688279e+03  4.5628937534987235e+03  4.4567800453237560e+03  4.3506663490207902e+03  4.2445526654248515e+03  4.1384389954356657e+03  4.0323253400230192e+03  3.9262117002337936e+03  3.8200980772010303e+03  3.7139844721529348e+03  3.6078708864253099e+03  3.5017573214748068e+03  3.3956437788953208e+03  3.2895302604377166e+03  3.1834167680324858e+03  3.0773033038191661e+03  2.9711898701815153e+03  2.8650764697904769e+03  2.7589631056592893e+03  2.6528497812100100e+03  2.5467365003583295e+03  2.4406232676226505e+03  2.3345100882618503e+03  2.2283969684557801e+03  2.1222839155397678e+03  2.0161709383148507e+03  1.9100580474634637e+03  1.8039452561121475e+03  1.6978325806087448e+03  1.5917200416116739e+03  1.4856076656471873e+03  1.3794954873890065e+03  1.2733835530782835e+03  1.1672719258146928e+03  1.0611606940379338e+03  9.5504998570130158e+02  8.4893999323607522e+02  7.4283102040650067e+02  6.3672357516264208e+02  5.3061857526670838e+02  4.2451809758886139e+02  3.1842785730030499e+02  2.1234736255752281e+02  1.0626286444712127e+02  4.5046823637755445e-01  2.3100344624780198e-02  4.8791016745017646e-03  2.9867285011625855e-03  1.7092899568225742e-03  1.0061425203990058e-03  6.2985572178215533e-04  4.1632744839913171e-04  2.8783794207492950e-04  2.0657479110325848e-04  1.5295654281349781e-04  1.1627670627937695e-04  9.0396605894063687e-05  7.1645125060522982e-05  5.7743452532027488e-05  4.7229707480124253e-05  3.9138396986555401e-05  3.2815213335173661e-05  2.7806452928638765e-05  2.3791006532764763e-05  2.0537399161200963e-05  1.7875991021634772e-05  1.5680590762267741e-05  1.3856050797442838e-05  1.2329745231689005e-05  1.1045617674476106e-05  9.9599606619973447e-06  9.0383808600700210e-06  8.2535890113472802e-06  7.5837712490000893e-06  7.0113760971003356e-06  6.5222018224815273e-06  6.1047037525128897e-06  5.7494639595097292e-06  5.4487828935870310e-06  5.1963623944615606e-06  4.9870588624498415e-06  4.8166903650171927e-06  4.6818857895585361e-06  4.5799670306172162e-06  4.5088578073816858e-06  4.4670139427439843e-06  4.4533715649438719e-06  4.4673103605123964e-06  4.5086302762084239e-06  4.5775401329529274e-06  4.6746576837232969e-06  4.8010208682206667e-06  4.9581106231728634e-06  5.1478858908111998e-06  5.3728327400102959e-06  5.6360287207654729e-06  5.9412262033931989e-06  6.2929575446827940e-06  6.6966673748927890e-06  7.1588780917445170e-06  7.6873969887922773e-06  8.2915753552196128e-06  8.9826341801410539e-06  9.7740740986933066e-06  1.0682194852502664e-05  1.1726755882352628e-05  1.2931821485376414e-05  1.4326848891865879e-05  1.5948096804704102e-05  1.7840461562022681e-05  2.0059885053682292e-05  2.2676533494893547e-05  2.5779018175203501e-05  2.9480030813327048e-05  3.3923900013063690e-05  3.9296749151152758e-05  4.5840144636197775e-05  5.3869332471838081e-05  6.3797257542412160e-05  7.6165240266850578e-05  9.1679679697402502e-05  1.1124965384595568e-04  1.3600901102664653e-04  1.6728443042652089e-04  2.0646395687357952e-04  2.5500365825191983e-04  3.1832143089687736e-04  4.7556283892353563e-04  1.9544233223533895e-03  1.8162105572468543e-02  1.2963224143773730e-01  7.3269156767502550e-02  1.0523580913030398e+02  2.1203697681071949e+02  3.1820840835233082e+02  4.2435122156553376e+02  5.3048623698842471e+02  6.3661428381589997e+02  7.4273826991155045e+02  8.4885975226301093e+02  9.5497956439332472e+02  1.0610982057588051e+03  1.1672159944695877e+03  1.2733331424250287e+03  1.3794497961816694e+03  1.4855660603313722e+03  1.5916820115199855e+03  1.6977977072041060e+03  1.8039131913135129e+03  1.9100284980232341e+03  2.0161436543322445e+03  2.1222586818667478e+03  2.2283735981668092e+03  2.3344884176208320e+03  2.4406031521551581e+03  2.5467178117503490e+03  2.6528324048327181e+03  2.7589469385747957e+03  2.8650614191283735e+03  2.9711758518070892e+03  3.0772902412307744e+03  3.1834045914405228e+03  3.2895189059911909e+03  3.3956331880262737e+03  3.5017474403389920e+03  3.6078616654223838e+03  3.7139758655107398e+03  3.8200900426140320e+03  3.9262041985467022e+03  4.0323183349518690e+03  4.1384324533218396e+03  4.2445465550151994e+03  4.3506606412725614e+03  4.4567747132286695e+03  4.5628887719235845e+03  4.6690028183126115e+03  4.7751168532736237e+03  4.8812308776153241e+03  4.9873448920840692e+03  5.0934588973687187e+03  5.1995728941061525e+03  5.3056868828854849e+03  5.4118008642517525e+03  5.5179148387104697e+03  5.6240288067304909e+03  5.7301427687466830e+03  5.8362567251630462e+03  5.9423706763542168e+03  6.0484846226684276e+03  6.1545985644294133e+03  6.2607125019383566e+03  6.3668264354746916e+03  6.4729403652985575e+03  6.5790542916517315e+03  6.6851682147591346e+03  6.7912821348302223e+03  6.8973960520595601e+03  7.0035099666277811e+03  7.1096238787031116e+03  7.2157377884419138e+03  7.3218516959892750e+03  7.4279656014802249e+03  7.5340795050393745e+03  7.6401934067821849e+03  7.7463073068162566e+03  7.8524212052408593e+03  7.9585351021477736e+03  8.0646489976217090e+03  8.1707628917401253e+03  8.2768767845745169e+03  8.3829906761908715e+03  8.4891045666490318e+03  8.5952184560036021e+03  8.7013323443038098e+03  8.8074462315937089e+03  8.9135601179133610e+03  9.0196740032981415e+03  9.1257878877790263e+03  9.2319017713826852e+03  9.3380156541320412e+03  9.4441295360459080e+03  9.5502434171392651e+03  9.6563572974232757e+03  9.7624711769054084e+03  9.8685850555894158e+03  9.9746989334754962e+03  1.0080812810560015e+04  1.0186926686835612e+04  1.0293040562291295e+04  1.0399154436912286e+04  1.0505268310679963e+04  1.0611382183571612e+04  1.0717496055560840e+04  1.0823609926616944e+04  1.0929723796704910e+04  1.1035837665785259e+04  1.1141951533813910e+04  1.1248065400741914e+04  1.1354179266515266e+04  1.1460293131074654e+04  1.1566406994355153e+04  1.1672520856285977e+04  1.1778634716790270e+04  1.1884748575784295e+04  1.1990862433177488e+04  1.2096976288871903e+04  1.2203090142761765e+04  1.2309203994732925e+04  1.2415317844662326e+04  1.2521431692417784e+04  1.2627545537856902e+04  1.2733659380826604e+04  1.2839773221162292e+04  1.2945887058686994e+04  1.3052000893210889e+04  1.3158114724530256e+04  1.3264228552426493e+04  1.3370342376665092e+04  1.3476456196994533e+04  1.3582570013145134e+04  1.3688683824827694e+04  1.3794797631732228e+04  1.3900911433526449e+04  1.4007025229854220e+04  1.4113139020333607e+04  1.4219252804555364e+04  1.4325366582080880e+04  1.4431480352440060e+04  1.4537594115129010e+04  1.4643707869607644e+04  1.4749821615296918e+04  1.4855935351576351e+04  1.4962049077780710e+04  1.5068162793196736e+04  1.5174276497059673e+04  1.5280390188549422e+04  1.5386503866786516e+04  1.5492617530827620e+04  1.5598731179660808e+04  1.5704844812200512e+04  1.5810958427281710e+04  1.5917072023653987e+04  1.6023185599975142e+04  1.6129299154804023e+04  1.6235412686593165e+04  1.6341526193680336e+04  1.6447639674279530e+04  1.6553753126471154e+04  1.6659866548192036e+04  1.6765979937223477e+04  1.6872093291178684e+04  1.6978206607489523e+04  1.7084319883390966e+04  1.7190433115905849e+04  1.7296546301827126e+04  1.7402659437698050e+04  1.7508772519791535e+04  1.7614885544086315e+04  1.7720998506241587e+04  1.7827111401570110e+04  1.7933224225006157e+04  1.8039336971072938e+04  1.8145449633844444e+04  1.8251562206903633e+04  1.8357674683297806e+04  1.8463787055486828e+04  1.8569899315287916e+04  1.8676011453813120e+04  1.8782123461399169e+04  1.8888235327530241e+04  1.8994347040750650e+04  1.9100458588567861e+04  1.9206569957343760e+04  1.9312681132171485e+04  1.9418792096738442e+04  1.9524902833169595e+04  1.9631013321851475e+04  1.9737123541232548e+04  1.9843233467595266e+04  1.9949343074798355e+04  2.0055452333981473e+04  2.0161561213226458e+04  2.0267669677169593e+04  2.0373777686553436e+04  2.0479885197710708e+04  2.0585992161965220e+04  2.0692098524935776e+04  2.0798204225724821e+04  2.0904309195966332e+04  2.1010413358707403e+04  2.1116516627087956e+04  2.1222618902773687e+04  2.1328720074091405e+04  2.1434820013796016e+04  2.1540918576382977e+04  2.1647015594839064e+04  2.1753110876688039e+04  2.1859204199154028e+04  2.1965295303206520e+04  2.2071383886182113e+04  2.2177469592583195e+04  2.2283552002520268e+04  2.2389630617094503e+04  2.2495704839775823e+04  2.2601773952504405e+04  2.2707837084805786e+04  2.2813893173605309e+04  2.2919940910637375e+04  2.3025978673347850e+04  2.3132004434041766e+04  2.3238015641109258e+04  2.3344009066586623e+04  2.3449980619476173e+04  2.3555925143829252e+04  2.3661836282826553e+04  2.3767706685638357e+04  2.3873529447599278e+04  2.3979303182875534e+04  2.4085047995787216e+04  2.4190911002033452e+04  2.4297875424749192e+04  2.4407244812606899e+04  2.4492584941544970e+04  2.4536885930640510e+04  2.4573766980200213e+04  2.4598912439997075e+04  2.4614002312583641e+04  3.3807614117621342e+04  3.3825482165011650e+04  3.3845392949024150e+04  3.3866048542249897e+04  3.3864997149615680e+04  3.3864330553230640e+04  3.3863757224972614e+04  3.3863215996451065e+04  3.3862700707447795e+04  3.3862214955208714e+04  3.3861762648768687e+04  3.3861346162308793e+04  3.3860966148984444e+04  3.3860621808323624e+04  3.3860311278816895e+04  3.3860032027072579e+04  3.3859781177829951e+04  3.3859555765979007e+04  3.3859352911851463e+04  3.3859169931031174e+04  3.3859004393429117e+04  3.3858854146046120e+04  3.3858717311656073e+04  3.3858592272868438e+04  3.3858477648383392e+04  3.3858372266049875e+04  3.3858275135655545e+04  3.3858185423168572e+04  3.3858102427329664e+04  3.3858025558959613e+04  3.3857954323020669e+04  3.3857888303283755e+04  3.3857827149358876e+04  3.3857770565809638e+04  3.3857718303069167e+04  3.3857670149892780e+04  3.3857625927107205e+04  3.3857585482446542e+04  3.3857548686294322e+04  3.3857515428178209e+04  3.3857485613889148e+04  3.3857459163118168e+04  3.3857436007522694e+04  3.3857416089150815e+04  3.3857399359164432e+04  3.3857385776814837e+04  3.3857375308633222e+04  3.3857367927807340e+04  3.3857363613722402e+04  3.3857362351651274e+04  3.3857364132584218e+04  3.3857368953194302e+04  3.3857376815939846e+04  3.3857387729311005e+04  3.3857401708233185e+04  3.3857418774646751e+04  3.3857438958290157e+04  3.3857462297722093e+04  3.3857488841629143e+04  3.3857518650477628e+04  3.3857551798584405e+04  3.3857588376699205e+04  3.3857628495214405e+04  3.3857672288145826e+04  3.3857719918060720e+04  3.3857771582169982e+04  3.3857827519848201e+04  3.3857888021900137e+04  3.3857953441954363e+04  3.3858024210431999e+04  3.3858100851606374e+04  3.3858184004329800e+04  3.3858274447038093e+04  3.3858373127626954e+04  3.3858481198676527e+04  3.3858600058206808e+04  3.3858731395553194e+04  3.3858877240865520e+04  3.3859040014863742e+04  3.3859222572397783e+04  3.3859428228484503e+04  3.3859660748256902e+04  3.3859924272802862e+04  3.3860223144514443e+04  3.3860561600842389e+04  3.3860943352591712e+04  3.3861371182387295e+04  3.3861847019451081e+04  3.3862376462757064e+04  3.3863020041682503e+04  3.3864276475663151e+04  3.3843597377026606e+04  3.3843075658330948e+04  3.3842506159849298e+04  3.3841980896774025e+04  3.3841505198691302e+04  3.3841079021676102e+04  3.3840700938330374e+04  3.3840367604403276e+04  3.3840074518593894e+04  3.3839816814483987e+04  3.3839589759619405e+04  3.3839389015618290e+04  3.3839210747527461e+04  3.3839051645803658e+04  3.3838908901047849e+04  3.3838780155904999e+04  3.3838663448504092e+04  3.3838557155525647e+04  3.3838459939121742e+04  3.3838370699599385e+04  3.3838288534440588e+04  3.3838212703499579e+04  3.3838142599851133e+04  3.3838077725614421e+04  3.3838017672047776e+04  3.3837962103247410e+04  3.3837910742849926e+04  3.3837863363216471e+04  3.3837819776654476e+04  3.3837779828304541e+04  3.3837743390384167e+04  3.3837710357534714e+04  3.3837680643064930e+04  3.3837654175922544e+04  3.3837630898258394e+04  3.3837610763473393e+04  3.3837593734660390e+04  3.3837579783371053e+04  3.3837568888652131e+04  3.3837561036307423e+04  3.3837556218352045e+04  3.3837554432633333e+04  3.3837555682600447e+04  3.3837559977210411e+04  3.3837567330964172e+04  3.3837577764071517e+04  3.3837591302748559e+04  3.3837607979656896e+04  3.3837627834498984e+04  3.3837650914790298e+04  3.3837677276835777e+04  3.3837706986945916e+04  3.3837740122937314e+04  3.3837776775973231e+04  3.3837817052813218e+04  3.3837861078555798e+04  3.3837908999977226e+04  3.3837960989590283e+04  3.3838017250572433e+04  3.3838078022741014e+04  3.3838143589784413e+04  3.3838214287991781e+04  3.3838290516756744e+04  3.3838372751158378e+04  3.3838461556938935e+04  3.3838557608189287e+04  3.3838661708000749e+04  3.3838774812217365e+04  3.3838898056181235e+04  3.3839032783942617e+04  3.3839180578720698e+04  3.3839343292337420e+04  3.3839523069773626e+04  3.3839722362783337e+04  3.3839943923571627e+04  3.3840190765981250e+04  3.3840466077874771e+04  3.3840773065480877e+04  3.3841114710294314e+04  3.3841493424462511e+04  3.3841910604568999e+04  3.3842366108649883e+04  3.3842857715839920e+04  3.3843380632674998e+04  3.3843926705517930e+04  3.3844479920183476e+04  3.3844991416860619e+04  3.3845296333382015e+04  3.3823428862667439e+04  3.3822989535818037e+04  3.3822469201431704e+04  3.3821935524161898e+04  3.3821452846886321e+04  3.3821033813691640e+04  3.3820673436550969e+04  3.3820363113844774e+04  3.3820094507682123e+04  3.3819860445706589e+04  3.3819654992893316e+04  3.3819473309446978e+04  3.3819311472014298e+04  3.3819166307600753e+04  3.3819035251733163e+04  3.3818916231185489e+04  3.3818807568446937e+04  3.3818707904499141e+04  3.3818616136656485e+04  3.3818531368646734e+04  3.3818452870566929e+04  3.3818380046773629e+04  3.3818312410133272e+04  3.3818249561365039e+04  3.3818191172459425e+04  3.3818136973359360e+04  3.3818086741253930e+04  3.3818040291965721e+04  3.3817997473017473e+04  3.3817958158046946e+04  3.3817922242305787e+04  3.3817889639031033e+04  3.3817860276520572e+04  3.3817834095777638e+04  3.3817811048616793e+04  3.3817791096145324e+04  3.3817774207551774e+04  3.3817760359147425e+04  3.3817749533617694e+04  3.3817741719450351e+04  3.3817736910514366e+04  3.3817735105770516e+04  3.3817736309099564e+04  3.3817740529239192e+04  3.3817747779824880e+04  3.3817758079533967e+04  3.3817771452336383e+04  3.3817787927859143e+04  3.3817807541876617e+04  3.3817830336942774e+04  3.3817856363187668e+04  3.3817885679306441e+04  3.3817918353777037e+04  3.3817954466351890e+04  3.3817994109880012e+04  3.3818037392529543e+04  3.3818084440497420e+04  3.3818135401313295e+04  3.3818190447869776e+04  3.3818249783341700e+04  3.3818313647195020e+04  3.3818382322531077e+04  3.3818456145068201e+04  3.3818535514128154e+04  3.3818620906074051e+04  3.3818712890735267e+04  3.3818812151452512e+04  3.3818919509471758e+04  3.3819035953489030e+04  3.3819162675156986e+04  3.3819301111229492e+04  3.3819452992601342e+04  3.3819620399551088e+04  3.3819805820623849e+04  3.3820012209202519e+04  3.3820243026124917e+04  3.3820502247880402e+04  3.3820794307588701e+04  3.3821123921213810e+04  3.3821495738073208e+04  3.3821913748234037e+04  3.3822380376534056e+04  3.3822895146969036e+04  3.3823452574603762e+04  3.3824038454104884e+04  3.38246238