<?xml version="1.0"?>
<VTKFile type="UnstructuredGrid"  version="0.1"  >
<UnstructuredGrid>
<Piece  NumberOfPoints="21600" NumberOfCells="42542">
<Points>
<DataArray  type="Float64"  NumberOfComponents="3"  format="ascii">0 0 0  0.77 0 0  0.77 0.15 0  0 0.15 0  0.003221757322170014 0 0  0.006443514644340046 0 0  0.009665271966510193 0 0  0.01288702928868034 0 0  0.01610878661085048 0 0  0.01933054393302049 0 0  0.02255230125519027 0 0  0.02577405857735967 0 0  0.02899581589952872 0 0  0.03221757322169801 0 0  0.03543933054386744 0 0  0.03866108786603686 0 0  0.04188284518820627 0 0  0.0451046025103757 0 0  0.04832635983254521 0 0  0.05154811715471607 0 0  0.05476987447688695 0 0  0.05799163179905782 0 0  0.06121338912122846 0 0  0.06443514644339859 0 0  0.06765690376556875 0 0  0.0708786610877389 0 0  0.07410041840990904 0 0  0.0773221757320792 0 0  0.08054393305425039 0 0  0.08376569037642198 0 0  0.0869874476985936 0 0  0.09020920502076518 0 0  0.0934309623429339 0 0  0.0966527196651024 0 0  0.09987447698726967 0 0  0.1030962343094369 0 0  0.1063179916316041 0 0  0.1095397489537714 0 0  0.1127615062759386 0 0  0.1159832635981051 0 0  0.1192050209202709 0 0  0.1224267782424358 0 0  0.1256485355646001 0 0  0.1288702928867644 0 0  0.1320920502089288 0 0  0.1353138075310958 0 0  0.1385355648532632 0 0  0.1417573221754333 0 0  0.1449790794976035 0 0  0.1482008368197736 0 0  0.1514225941419428 0 0  0.1546443514641101 0 0  0.157866108786276 0 0  0.1610878661084403 0 0  0.1643096234306047 0 0  0.167531380752769 0 0  0.1707531380749333 0 0  0.1739748953970977 0 0  0.177196652719262 0 0  0.1804184100414264 0 0  0.1836401673635935 0 0  0.1868619246857611 0 0  0.1900836820079313 0 0  0.1933054393301014 0 0  0.1965271966522716 0 0  0.1997489539744406 0 0  0.2029707112966078 0 0  0.2061924686187736 0 0  0.209414225940938 0 0  0.2126359832631022 0 0  0.2158577405852666 0 0  0.219079497907431 0 0  0.2223012552295953 0 0  0.2255230125517597 0 0  0.2287447698739242 0 0  0.2319665271960914 0 0  0.2351882845182592 0 0  0.2384100418404293 0 0  0.2416317991625994 0 0  0.2448535564847696 0 0  0.2480753138069371 0 0  0.2512970711291014 0 0  0.2545188284512658 0 0  0.2577405857734302 0 0  0.2609623430955986 0 0  0.2641841004177688 0 0  0.2674058577399389 0 0  0.270627615062109 0 0  0.2738493723842792 0 0  0.2770711297064487 0 0  0.280292887028613 0 0  0.2835146443507774 0 0  0.2867364016729417 0 0  0.2899581589951061 0 0  0.2931799163172705 0 0  0.2964016736394348 0 0  0.2996234309615992 0 0  0.3028451882837672 0 0  0.3060669456059373 0 0  0.3092887029281075 0 0  0.3125104602502776 0 0  0.3157322175724478 0 0  0.3189539748946177 0 0  0.322175732216782 0 0  0.3253974895389464 0 0  0.3286192468611107 0 0  0.3318410041832751 0 0  0.3350627615054395 0 0  0.3382845188276038 0 0  0.3415062761497681 0 0  0.3447280334719325 0 0  0.3479497907940968 0 0  0.3511715481162612 0 0  0.3543933054384255 0 0  0.3576150627605947 0 0  0.3608368200827649 0 0  0.364058577404935 0 0  0.3672803347271051 0 0  0.3705020920492753 0 0  0.373723849371444 0 0  0.3769456066936084 0 0  0.3801673640157748 0 0  0.383389121337945 0 0  0.3866108786601209 0 0  0.3898326359823028 0 0  0.3930543933044846 0 0  0.3962761506266662 0 0  0.399497907948848 0 0  0.4027196652710298 0 0  0.4059414225932116 0 0  0.4091631799153934 0 0  0.4123849372375751 0 0  0.4156066945597569 0 0  0.4188284518819387 0 0  0.4220502092041222 0 0  0.4252719665263097 0 0  0.4284937238484974 0 0  0.4317154811706849 0 0  0.4349372384928725 0 0  0.4381589958150601 0 0  0.4413807531372476 0 0  0.4446025104594352 0 0  0.4478242677816181 0 0  0.4510460251037998 0 0  0.4542677824259815 0 0  0.4574895397481634 0 0  0.4607112970703451 0 0  0.4639330543925269 0 0  0.4671548117147087 0 0  0.4703765690368904 0 0  0.4735983263590722 0 0  0.4768200836812568 0 0  0.4800418410034444 0 0  0.483263598325632 0 0  0.4864853556478196 0 0  0.4897071129700028 0 0  0.4929288702921845 0 0  0.4961506276143663 0 0  0.4993723849365479 0 0  0.5025941422587239 0 0  0.5058158995809008 0 0  0.5090376569030826 0 0  0.5122594142252677 0 0  0.515481171547461 0 0  0.5187029288696494 0 0  0.5219246861918312 0 0  0.525146443514013 0 0  0.5283682008361947 0 0  0.5315899581583845 0 0  0.5348117154805778 0 0  0.5380334728027617 0 0  0.5412552301249435 0 0  0.5444769874471141 0 0  0.5476987447692853 0 0  0.550920502091467 0 0  0.5541422594136513 0 0  0.5573640167358447 0 0  0.560585774058034 0 0  0.5638075313802158 0 0  0.5670292887023975 0 0  0.5702510460245793 0 0  0.5734728033467682 0 0  0.5766945606689615 0 0  0.579916317991155 0 0  0.5831380753133483 0 0  0.5863598326355314 0 0  0.5895815899577131 0 0  0.5928033472798949 0 0  0.5960251046020785 0 0  0.5992468619242718 0 0  0.6024686192464619 0 0  0.6056903765686437 0 0  0.6089121338908206 0 0  0.6121338912129908 0 0  0.6153556485351673 0 0  0.618577405857349 0 0  0.6217991631795386 0 0  0.625020920501732 0 0  0.6282426778239159 0 0  0.6314644351460976 0 0  0.6346861924682795 0 0  0.6379079497904622 0 0  0.6411297071126555 0 0  0.6443514644348465 0 0  0.6475732217570283 0 0  0.650794979079206 0 0  0.6540167364013761 0 0  0.6572384937235518 0 0  0.6604602510457335 0 0  0.6636820083679225 0 0  0.6669037656901158 0 0  0.6701255230123004 0 0  0.6733472803344823 0 0  0.6765690376566641 0 0  0.6797907949788459 0 0  0.6830125523010393 0 0  0.686234309623231 0 0  0.6894560669454127 0 0  0.6926778242675914 0 0  0.6958995815897615 0 0  0.6991213389119363 0 0  0.7023430962341181 0 0  0.7055648535563062 0 0  0.7087866108784994 0 0  0.712008368200685 0 0  0.7152301255228668 0 0  0.7184518828450486 0 0  0.7216736401672305 0 0  0.724895397489423 0 0  0.7281171548116155 0 0  0.7313389121337973 0 0  0.7345606694559768 0 0  0.7377824267781468 0 0  0.7410041841003209 0 0  0.7442259414225026 0 0  0.7474476987446899 0 0  0.7506694560668832 0 0  0.7538912133890696 0 0  0.7571129707112513 0 0  0.760334728033433 0 0  0.7635564853556149 0 0  0.7667782426778067 0 0  0.77 0.001685393258423789 0  0.77 0.003370786516847669 0  0.77 0.005056179775271247 0  0.77 0.006741573033694517 0  0.77 0.008426966292117821 0  0.77 0.01011235955054176 0  0.77 0.01179775280896623 0  0.77 0.0134831460673904 0  0.77 0.01516853932581489 0  0.77 0.01685393258423891 0  0.77 0.01853932584266291 0  0.77 0.02022471910108589 0  0.77 0.02191011235950794 0  0.77 0.02359550561792999 0  0.77 0.02528089887635205 0  0.77 0.02696629213477411 0  0.77 0.02865168539319714 0  0.77 0.03033707865161956 0  0.77 0.03202247191004162 0  0.77 0.03370786516846367 0  0.77 0.03539325842688572 0  0.77 0.03707865168530778 0  0.77 0.03876404494372984 0  0.77 0.0404494382021519 0  0.77 0.04213483146057394 0  0.77 0.04382022471899601 0  0.77 0.04550561797741807 0  0.77 0.04719101123584013 0  0.77 0.04887640449426219 0  0.77 0.05056179775268425 0  0.77 0.0522471910111063 0  0.77 0.05393258426952837 0  0.77 0.05561797752795105 0  0.77 0.05730337078637505 0  0.77 0.05898876404479723 0  0.77 0.0606741573032193 0  0.77 0.06235955056164135 0  0.77 0.06404494382006341 0  0.77 0.06573033707848548 0  0.77 0.06741573033690752 0  0.77 0.06910112359532959 0  0.77 0.07078651685375165 0  0.77 0.0724719101121737 0  0.77 0.07415730337059653 0  0.77 0.07584269662902443 0  0.77 0.07752808988745429 0  0.77 0.07921348314588413 0  0.77 0.08089887640431678 0  0.77 0.08258426966274923 0  0.77 0.08426966292117907 0  0.77 0.08595505617960987 0  0.77 0.08764044943804362 0  0.77 0.08932584269647403 0  0.77 0.09101123595490389 0  0.77 0.09269662921333673 0  0.77 0.09438202247176901 0  0.77 0.09606741573019884 0  0.77 0.09775280898862983 0  0.77 0.09943820224706355 0  0.77 0.1011235955054938 0  0.77 0.1028089887639236 0  0.77 0.1044943820223567 0  0.77 0.1061797752807888 0  0.77 0.1078651685392186 0  0.77 0.1095505617976498 0  0.77 0.1112359550560835 0  0.77 0.1129213483145136 0  0.77 0.1146067415729456 0  0.77 0.1162921348313787 0  0.77 0.1179775280898085 0  0.77 0.1196629213482387 0  0.77 0.1213483146066724 0  0.77 0.1230337078651035 0  0.77 0.1247191011235322 0  0.77 0.1264044943819605 0  0.77 0.1280898876403903 0  0.77 0.1297752808988242 0  0.77 0.1314606741572554 0  0.77 0.1331460674156853 0  0.77 0.1348314606741154 0  0.77 0.1365168539325504 0  0.77 0.1382022471909802 0  0.77 0.13988764044941 0  0.77 0.1415730337078443 0  0.77 0.1432584269662752 0  0.77 0.144943820224705 0  0.77 0.1466292134831355 0  0.77 0.1483146067415701 0  0.7667782426778414 0.15 0  0.7635564853556813 0.15 0  0.7603347280335111 0.15 0  0.757112970711341 0.15 0  0.7538912133891708 0.15 0  0.7506694560670005 0.15 0  0.7474476987448303 0.15 0  0.7442259414226602 0.15 0  0.74100418410049 0.15 0  0.7377824267783197 0.15 0  0.7345606694561496 0.15 0  0.7313389121339794 0.15 0  0.7281171548118092 0.15 0  0.724895397489639 0.15 0  0.7216736401674688 0.15 0  0.7184518828452986 0.15 0  0.7152301255231284 0.15 0  0.7120083682009583 0.15 0  0.708786610878788 0.15 0  0.7055648535566178 0.15 0  0.7023430962344477 0.15 0  0.6991213389122775 0.15 0  0.6958995815901072 0.15 0  0.692677824267937 0.15 0  0.6894560669457669 0.15 0  0.6862343096235967 0.15 0  0.6830125523014264 0.15 0  0.6797907949792563 0.15 0  0.6765690376570861 0.15 0  0.6733472803349159 0.15 0  0.6701255230127456 0.15 0  0.6669037656905755 0.15 0  0.6636820083684053 0.15 0  0.6604602510462351 0.15 0  0.657238493724065 0.15 0  0.6540167364018947 0.15 0  0.6507949790797245 0.15 0  0.6475732217575543 0.15 0  0.644351464435384 0.15 0  0.6411297071132231 0.15 0  0.6379079497910645 0.15 0  0.634686192468906 0.15 0  0.6314644351467468 0.15 0  0.6282426778245765 0.15 0  0.6250209205024085 0.15 0  0.62179916318025 0.15 0  0.6185774058580914 0.15 0  0.6153556485359328 0.15 0  0.6121338912137689 0.15 0  0.6089121338915987 0.15 0  0.6056903765694354 0.15 0  0.6024686192472768 0.15 0  0.5992468619251182 0.15 0  0.5960251046029597 0.15 0  0.5928033472807912 0.15 0  0.589581589958621 0.15 0  0.5863598326364508 0.15 0  0.5831380753142792 0.15 0  0.5799163179920974 0.15 0  0.57669456
[...]
<PointData  Scalars="pressure"> 
<DataArray  type="Float64"  Name="pressure"  format="ascii">3.1629824209167196e+04  2.1666017723707656e+00  -1.6077999278262909e+00  3.1607393321551510e+04  3.1603968402627492e+04  3.1584353868693175e+04  3.1567054512828261e+04  2.2978537946188200e+04  2.2961869292493302e+04  2.2946803615633511e+04  2.2931888128450988e+04  2.2917095901102693e+04  2.2902400523414639e+04  2.2887779587109231e+04  2.2873218215587531e+04  2.2858705457090280e+04  2.2844232307034748e+04  2.2829790539762143e+04  2.2815371807084000e+04  2.2800966721152905e+04  2.2786563566185439e+04  2.2772146059422437e+04  2.2757689517022020e+04  2.2743158664955889e+04  2.2728510765445961e+04  2.2713615905392158e+04  2.2696047169290247e+04  2.2650278263090589e+04  2.2550215151405209e+04  2.2450242155985597e+04  2.2349766671512480e+04  2.2249022857270193e+04  2.2148110415712570e+04  2.2047073440745957e+04  2.1945932316995702e+04  2.1844695994201422e+04  2.1743367473617345e+04  2.1641946499856520e+04  2.1540431004482867e+04  2.1438817941095444e+04  2.1337103798065407e+04  2.1235284928108187e+04  2.1133357767241581e+04  2.1031318983179204e+04  2.0929165576398835e+04  2.0826894948000096e+04  2.0724504943309268e+04  2.0621993877172168e+04  2.0519360545061081e+04  2.0416604222994654e+04  2.0313724658554656e+04  2.0210722054811537e+04  2.0107597048649299e+04  2.0004350684749737e+04  1.9900984386321295e+04  1.9797499923518248e+04  1.9693899380376348e+04  1.9590185120986211e+04  1.9486359755529109e+04  1.9382426106709936e+04  1.9278387177037886e+04  1.9174246117326988e+04  1.9070006196713650e+04  1.8965670774422571e+04  1.8861243273448217e+04  1.8756727156265533e+04  1.8652125902632684e+04  1.8547442989506722e+04  1.8442681873056350e+04  1.8337845972725117e+04  1.8232938657274142e+04  1.8127963232713406e+04  1.8022922932016369e+04  1.7917820906502027e+04  1.7812660218761961e+04  1.7707443837006409e+04  1.7602174630703154e+04  1.7496855367383407e+04  1.7391488710494206e+04  1.7286077218179405e+04  1.7180623342879331e+04  1.7075129431644011e+04  1.6969597727063450e+04  1.6864030368725154e+04  1.6758429395116102e+04  1.6652796745895295e+04  1.6547134264468030e+04  1.6441443700802152e+04  1.6335726714431932e+04  1.6229984877601712e+04  1.6124219678507287e+04  1.6018432524597756e+04  1.5912624745907400e+04  1.5806797598388852e+04  1.5700952267225000e+04  1.5595089870099875e+04  1.5489211460412374e+04  1.5383318030419096e+04  1.5277410514296076e+04  1.5171489791110165e+04  1.5065556687693863e+04  1.4959611981418877e+04  1.4853656402865088e+04  1.4747690638382883e+04  1.4641715332547226e+04  1.4535731090505316e+04  1.4429738480216580e+04  1.4323738034587706e+04  1.4217730253504253e+04  1.4111715605761399e+04  1.4005694530896539e+04  1.3899667440926751e+04  1.3793634721994424e+04  1.3687596735924339e+04  1.3581553821695590e+04  1.3475506296832469e+04  1.3369454458716640e+04  1.3263398585825193e+04  1.3157338938897627e+04  1.3051275762035310e+04  1.2945209283736553e+04  1.2839139717870390e+04  1.2733067264593301e+04  1.2626992111210491e+04  1.2520914432985581e+04  1.2414834393901343e+04  1.2308752147373605e+04  1.2202667836921981e+04  1.2096581596799269e+04  1.1990493552581911e+04  1.1884403821723872e+04  1.1778312514076059e+04  1.1672219732373254e+04  1.1566125572690649e+04  1.1460030124871508e+04  1.1353933472928051e+04  1.1247835695417189e+04  1.1141736865791907e+04  1.1035637052730815e+04  1.0929536320446576e+04  1.0823434728974733e+04  1.0717332334444080e+04  1.0611229189329883e+04  1.0505125342690351e+04  1.0399020840388683e+04  1.0292915725300449e+04  1.0186810037507747e+04  1.0080703814480768e+04  9.9745970912477896e+03  9.8684899005541065e+03  9.7623822730108059e+03  9.6562742372337652e+03  9.5501658199739777e+03  9.4440570462392989e+03  9.3379479394080918e+03  9.2318385213359707e+03  9.1257288124549868e+03  9.0196188318670993e+03  8.9135085974312860e+03  8.8073981258451604e+03  8.7012874327206137e+03  8.5951765326555560e+03  8.4890654393007080e+03  8.3829541654215682e+03  8.2768427229575191e+03  8.1707311230754831e+03  8.0646193762210278e+03  7.9585074921666310e+03  7.8523954800559159e+03  7.7462833484461125e+03  7.6401711053470990e+03  7.5340587582571025e+03  7.4279463141981823e+03  7.3218337797471913e+03  7.2157211610665408e+03  7.1096084639330165e+03  7.0034956937630786e+03  6.8973828556388125e+03  6.7912699543302015e+03  6.6851569943169079e+03  6.5790439798093694e+03  6.4729309147675931e+03  6.3668178029198079e+03  6.2607046477792537e+03  6.1545914526600518e+03  6.0484782206928048e+03  5.9423649548379863e+03  5.8362516579003004e+03  5.7301383325412853e+03  5.6240249812912771e+03  5.5179116065618782e+03  5.4117982106560894e+03  5.3056847957788341e+03  5.1995713640475751e+03  5.0934579175014605e+03  4.9873444581117355e+03  4.8812309877904036e+03  4.7751175083996404e+03  4.6690040217607839e+03  4.5628905296622734e+03  4.4567770338694290e+03  4.3506635361333892e+03  4.2445500382000855e+03  4.1384365418209600e+03  4.0323230487622209e+03  3.9262095608155410e+03  3.8200960798105434e+03  3.7139826076269801e+03  3.6078691462101729e+03  3.5017556975870493e+03  3.3956422638851659e+03  3.2895288473548635e+03  3.1834154503942304e+03  3.0773020755806651e+03  2.9711887257080575e+03  2.8650754038316286e+03  2.7589621133248056e+03  2.6528488579474101e+03  2.5467356419320063e+03  2.4406224700944404e+03  2.3345093479729649e+03  2.2283962820100264e+03  2.1222832797879619e+03  2.0161703503403737e+03  1.9100575045688825e+03  1.8039447558068373e+03  1.6978321205974594e+03  1.5917196197840240e+03  1.4856072800679485e+03  1.3794951362892452e+03  1.2733832348472370e+03  1.1672716389923762e+03  1.0611604373084390e+03  9.5504975788674869e+02  8.4893979329119747e+02  7.4283084741382402e+02  6.3672342832823108e+02  5.3061845391643647e+02  4.2451800116506053e+02  3.1842778535843314e+02  2.1234731476570525e+02  1.0626284058659820e+02  4.5046813613146253e-01  2.3100337177802081e-02  4.8790963505875827e-03  2.9867212700370495e-03  1.7092804668020329e-03  1.0061306821112668e-03  6.2984147666653363e-04  4.1631077702840579e-04  2.8781884621801527e-04  2.0655328406717150e-04  1.5293264533727276e-04  1.1625044447544414e-04  9.0368010321851365e-05  7.1614229949861692e-05  5.7710295556970067e-05  4.7194329469093733e-05  3.9100841780398650e-05  3.2775527631170821e-05  2.7764686267880997e-05  2.3747211051100832e-05  2.0491629682349056e-05  1.7828304826977509e-05  1.5631047578284137e-05  1.3804712706221178e-05  1.2276676593770250e-05  1.0990885016270506e-05  9.9036326308687148e-06  8.9805281047360980e-06  8.1942840975175514e-06  7.5230885567151249e-06  6.9493917685348146e-06  6.4589936232051562e-06  6.0403509590501048e-06  5.6840473352477779e-06  5.3823845449188048e-06  5.1290655991315654e-06  4.9189480564584848e-06  4.7478510428474065e-06  4.6124042904867968e-06  4.5099305684373796e-06  4.4383542543549771e-06  4.3961317921713457e-06  4.3821997372915330e-06  4.3959381872828297e-06  4.4371473093983789e-06  4.5060360682592214e-06  4.6032222707900843e-06  4.7297437630165284e-06  4.8870812302259376e-06  5.0771933861767510e-06  5.3025658099381506e-06  5.5662755759945916e-06  5.8720743796989169e-06  6.2244938299618125e-06  6.6289776693754039e-06  7.0920473837318480e-06  7.6215091461246677e-06  8.2267130935989322e-06  8.9188788775590881e-06  9.7115058078613534e-06  1.0620892098731177e-05  1.1666795633623775e-05  1.2873279035576660e-05  1.4269797742547500e-05  1.5892608612993044e-05  1.7786605989959498e-05  2.0007729795897488e-05  2.2626144087400431e-05  2.5730457950962043e-05  2.9433360879561895e-05  3.3879179089021931e-05  3.9254033577887020e-05  4.5799488295139030e-05  5.3830786706036983e-05  6.3760871172864099e-05  7.6131059522194404e-05  9.1647748177873115e-05  1.1122001256501310e-04  1.3598169830289484e-04  1.6725948179074928e-04  2.0644140449191018e-04  2.5498352951683253e-04  3.1830374716984474e-04  4.7554763434547225e-04  1.9544109285244428e-03  1.8162099630640999e-02  1.2963226330784547e-01  7.3269169678825199e-02  1.0523583275737073e+02  2.1203702452999192e+02  3.1820848024182538e+02  4.2435131794842124e+02  5.3048635830528553e+02  6.3661443062184810e+02  7.4273844287925772e+02  8.4885995218551170e+02  9.5497979218749470e+02  1.0610984624694947e+03  1.1672162812743761e+03  1.2733334606396018e+03  1.3794501472658458e+03  1.4855664458957860e+03  1.5916824333334750e+03  1.6977981672018216e+03  1.8039136916057937e+03  1.9100290409052880e+03  2.0161442422946759e+03  2.1222593176069836e+03  2.2283742846014738e+03  2.3344891578991269e+03  2.4406039496733092e+03  2.5467186701671931e+03  2.6528333280864776e+03  2.7589479309011590e+03  2.8650624850799200e+03  2.9711769962741782e+03  3.0772914694639812e+03  3.1834059090747323e+03  3.2895203190714460e+03  3.3956347030355096e+03  3.5017490642277821e+03  3.6078634056408287e+03  3.7139777300426445e+03  3.8200920400135496e+03  3.9262063379775655e+03  4.0323206262294480e+03  4.1384349069581631e+03  4.2445491822672002e+03  4.3506634541937128e+03  4.4567777247243012e+03  4.5628919958100914e+03  4.6690062693808513e+03  4.7751205473567770e+03  4.8812348316615535e+03  4.9873491242342780e+03  5.0934634270397937e+03  5.1995777420800741e+03  5.3056920714046692e+03  5.4118064171211226e+03  5.5179207814067022e+03  5.6240351665189191e+03  5.7301495748064162e+03  5.8362640087208792e+03  5.9423784708279363e+03  6.0484929638201702e+03  6.1546074905298010e+03  6.2607220539421314e+03  6.3668366572086952e+03  6.4729513036628723e+03  6.5790659968349746e+03  6.6851807404687925e+03  6.7912955385392024e+03  6.8974103952700243e+03  7.0035253151534571e+03  7.1096403029714538e+03  7.2157553638174240e+03  7.3218705031195223e+03  7.4279857266661556e+03  7.5341010406315736e+03  7.6402164516049561e+03  7.7463319666214766e+03  7.8524475931936422e+03  7.9585633393462722e+03  8.0646792136533550e+03  8.1707952252769282e+03  8.2769113840101818e+03  8.3830277003226001e+03  8.4891441854072473e+03  8.5952608512329043e+03  8.7013777105987774e+03  8.8074947771934440e+03  8.9136120656588755e+03  9.0197295916570329e+03  9.1258473719421727e+03  9.2319654244380781e+03  9.3380837683211594e+03  9.4442024241084582e+03  9.5503214137525629e+03  9.6564407607429566e+03  9.7625604902145587e+03  9.8686806290639397e+03  9.9748012060738183e+03  1.0080922252045983e+04  1.0187043799944071e+04  1.0293165885046405e+04  1.0399288545109497e+04  1.0505411820543251e+04  1.0611535754598452e+04  1.0717660393568323e+04  1.0823785787003371e+04  1.0929911987942274e+04  1.1036039053159138e+04  1.1142167043428453e+04  1.1248296023809033e+04  1.1354426063948356e+04  1.1460557238408896e+04  1.1566689627017820e+04  1.1672823315242154e+04  1.1778958394591133e+04  1.1885094963047206e+04  1.1991233125529267e+04  1.2097372994389174e+04  1.2203514689944664e+04  1.2309658341051354e+04  1.2415804085716845e+04  1.2521952071760612e+04  1.2628102457521878e+04  1.2734255412620847e+04  1.2840411118776519e+04  1.2946569770685783e+04  1.3052731576969283e+04  1.3158896761188224e+04  1.3265065562938760e+04  1.3371238239030105e+04  1.3477415064753162e+04  1.3583596335247446e+04  1.3689782366974248e+04  1.3795973499305470e+04  1.3902170096237760e+04  1.4008372548242993e+04  1.4114581274266799e+04  1.4220796723889222e+04  1.4327019379661118e+04  1.4433249759632739e+04  1.4539488420092588e+04  1.4645735958535957e+04  1.4751993016885230e+04  1.4858260284986880e+04  1.4964538504411130e+04  1.5070828472585850e+04  1.5177131047298160e+04  1.5283447151601891e+04  1.5389777779173734e+04  1.5496124000166097e+04  1.5602486967611170e+04  1.5708867924437538e+04  1.5815268211168594e+04  1.5921689274382277e+04  1.6028132676022005e+04  1.6134600103661025e+04  1.6241093381838589e+04  1.6347614484601505e+04  1.6454165549407389e+04  1.6560748892567855e+04  1.6667367026439926e+04  1.6774022678604309e+04  1.6880718813311927e+04  1.6987458655526072e+04  1.7094245717942107e+04  1.7201083831438791e+04  1.7307977179491467e+04  1.7414930337179430e+04  1.7521948315540903e+04  1.7629036612172422e+04  1.7736201269154051e+04  1.7843448939602833e+04  1.7950786964430332e+04  1.8058223461233629e+04  1.8165767427674084e+04  1.8273428862254077e+04  1.8381218906101003e+04  1.8489150010260222e+04  1.8597236134168561e+04  1.8705492982487627e+04  1.8813938289474660e+04  1.8922592162722016e+04  1.9031477501656060e+04  1.9140620511032175e+04  1.9250051336322336e+04  1.9359804857180487e+04  1.9469921688318107e+04  1.9580449456014376e+04  1.9691444446146226e+04  1.9802973760885550e+04  1.9915118184132858e+04  2.0027976054053121e+04  2.0141668598836586e+04  2.0256347452907725e+04  2.0372205518231636e+04  2.0489493133204531e+04  2.0608543001690763e+04  2.0729810276997261e+04  2.0853940348693173e+04  2.0981890352851977e+04  2.1115169324265091e+04  2.1256453245809967e+04  2.1411142738950795e+04  2.1582354189668647e+04  2.1711888004139819e+04  2.1767864992012455e+04  2.1833487369652466e+04  2.1887978360216541e+04  2.1939591249459154e+04  2.1991898025618128e+04  2.2042605986170456e+04  2.2093968110621907e+04  2.2146473802635206e+04  2.2209248709115262e+04  2.2291782872467720e+04  2.2357194168366688e+04  2.2406765556291426e+04  2.2475223851526382e+04  2.2522352358440672e+04  2.2547374686305338e+04  2.2576977757639532e+04  2.2614528166678425e+04  2.2645953723088878e+04  2.2676257002207956e+04  2.2704191276797224e+04  2.2729424025709159e+04  2.2752426602720807e+04  2.2773427205032083e+04  2.2793316893705065e+04  2.2813943967910891e+04  2.2834643352312774e+04  2.2854661002147561e+04  2.2873480531150177e+04  2.2890981523352391e+04  2.2908469165494527e+04  2.2924794826732927e+04  2.2936735840851012e+04  2.2951045204337999e+04  2.2967124353049221e+04  3.1546785901743435e+04  3.1564553539752804e+04  3.1584404216873005e+04  3.1605039802510935e+04  3.1603971419952479e+04  3.1603274145796418e+04  3.1602655871327017e+04  3.1602055217605852e+04  3.1601466590258708e+04  3.1600895092201750e+04  3.1600347206125691e+04  3.1599828921282606e+04  3.1599345337432645e+04  3.1598900608273991e+04  3.1598497979277308e+04  3.1598139854052115e+04  3.1597827869675446e+04  3.1597562974965989e+04  3.1597345509254734e+04  3.1597175279944204e+04  3.1597051637359946e+04  3.1596973545639019e+04  3.1596939648720418e+04  3.1596948330836683e+04  3.1596997771209659e+04  3.1597085992898614e+04  3.1597210905935623e+04  3.1597370345013871e+04  3.1597562102079904e+04  3.1597783954229781e+04  3.1598033687331932e+04  3.1598309115801225e+04  3.1598608098938741e+04  3.1598928554231639e+04  3.1599268467982180e+04  3.1599625903607346e+04  3.1599999007920702e+04  3.1600386015679778e+04  3.1600785252653433e+04  3.1601195137437531e+04  3.1601614182221761e+04  3.1602040992687911e+04  3.1602474267198490e+04  3.1602912795415461e+04  3.1603355456471789e+04  3.1603801216802724e+04  3.1604249127730636e+04  3.1604698322883924e+04  3.1605148015521529e+04  3.1605597495823564e+04  3.1606046128202102e+04  3.1606493348678625e+04  3.1606938662369492e+04  3.1607381641115844e+04  3.1607821921291881e+04  3.1608259201821962e+04  3.1608693242436591e+04  3.1609123862196397e+04  3.1609550938314187e+04  3.1609974405307348e+04  3.1610394254515249e+04  3.1610810534021410e+04  3.1611223349025720e+04  3.1611632862719405e+04  3.1612039297724892e+04  3.1612442938173732e+04  3.1612844132508577e+04  3.1613243297110828e+04  3.1613640920870861e+04  3.1614037570835138e+04  3.1614433899078769e+04  3.1614830650960550e+04  3.1615228674912058e+04  3.1615628933877830e+04  3.1616032518437358e+04  3.1616440661453969e+04  3.1616854753738109e+04  3.1617276359549251e+04  3.1617707229573021e+04  3.1618149306943436e+04  3.1618604718412036e+04  3.1619075737314190e+04  3.1619564697564765e+04  3.1620073831547928e+04  3.1620605011323707e+04  3.1621159418739917e+04  3.1621737282681290e+04  3.1622338138047075e+04  3.1622965560205004e+04  3.1623678694728133e+04  3.1624975909384721e+04  3.1604335102229772e+04  3.1603772910031694e+04  3.1603132698004858e+04  3.1602507396285968e+04  3.1601903904760191e+04  3.1601324463249690e+04  3.1600770312763772e+04  3.1600240905507893e+04  3.1599734451139047e+04  3.1599248562330926e+04  3.1598780671289423e+04  3.1598328256589659e+04  3.1597888954237616e+04  3.1597460603723306e+04  3.1597041259156864e+04  3.1596629182640732e+04  3.1596222829455986e+04  3.1595820830285862e+04  3.1595421973223587e+04  3.1595025186921415e+04  3.1594629525470162e+04  3.1594234155186128e+04  3.1593838343270352e+04  3.1593441448204325e+04  3.1593042911707998e+04  3.1592642252078662e+04  3.1592239058739640e+04  3.1591832987844144e+04  3.1591423758799199e+04  3.1591011151593157e+04  3.1590595004828101e+04  3.1590175214373121e+04  3.1589751732568384e+04  3.1589324567920004e+04  3.1588893785235534e+04  3.1588459506156636e+04  3.1588021910051342e+04  3.1587581235232698e+04  3.1587137780473080e+04  3.1586691906785782e+04  3.1586244039445788e+04  3.1585794670221370e+04  3.1585344359786945e+04  3.1584893740284984e+04  3.1584443518001764e+04  3.1583994476116881e+04  3.1583547477481672e+04  3.1583103467374262e+04  3.1582663476171834e+04  3.1582228621871291e+04  3.1581800112378834e+04  3.1581379247477460e+04  3.1580967420367171e+04  3.1580566118658004e+04  3.1580176924678191e+04  3.1579801514941359e+04  3.1579441658595038e+04  3.1579099214650167e+04  3.1578776127765617e+04  3.1578474422335221e+04  3.1578196194595737e+04  3.1577943602444084e+04  3.1577718852621718e+04  3.1577524184893377e+04  3.1577361852819562e+04  3.1577234100697540e+04  3.1577143136229046e+04  3.1577091098467827e+04  3.1577080020612357e+04  3.1577111787246260e+04  3.1577188085700582e+04  3.1577310351328837e+04  3.1577479706661165e+04  3.1577696894649071e+04  3.1577962206535096e+04  3.1578275405276960e+04  3.1578635645882277e+04  3.1579041394359545e+04  3.1579490347021852e+04  3.1579979351182425e+04  3.1580504326485610e+04  3.1581060183849218e+04  3.1581640737026286e+04  3.1582238562635896e+04  3.1582844306542742e+04  3.1583441869761453e+04  3.1583982997491876e+04  3.1584304220362777e+04  3.1584318417421327e+04  3.1583838419978158e+04  3.1583242679412822e+04  3.1582600627020838e+04  3.1581978615529039e+04  3.1581392866097405e+04  3.1580842412014379e+04  3.1580322494539145e+04  3.1579828189623859e+04  3.1579355201159284e+04  3.1578899914326521e+04  3.1578459290142637e+04  3.1578030751090755e+04  3.1577612088729602e+04  3.1577201393887837e+04  3.1576797004252479e+04  3.1576397464455091e+04  3.1576001495082044e+04  3.1575607968175013e+04  3.1575215887580202e+04  3.1574824373020812e+04  3.1574432647099107e+04  3.1574040024650705e+04  3.1573645904019228e+04  3.1573249759919589e+04  3.1572851137630940e+04  3.1572449648313377e+04  3.1572044965283596e+04  3.1571636821116223e+04  3.1571225005462369e+04  3.1570809363496810e+04  3.1570389794921211e+04  3.1569966253463532e+04  3.1569538746823666e+04  3.1569107337023721e+04  3.1568672141127714e+04  3.1568233332299969e+04  3.1567791141175418e+04  3.1567345857517150e+04  3.1566897832138107e+04  3.1566447479063914e+04  3.1565995277913829e+04  3.1565541776474907e+04  3.1565087593442389e+04  3.1564633421296152e+04  3.1564180029278818e+04  3.1563728266435974e+04  3.1563279064672734e+04  3.1562833441773513e+04  3.1562392504323179e+04  3.1561957450457816e+04  3.1561529572362044e+04  3.1561110258416305e+04  3.1560700994883427e+04  3.1560303367006552e+04  3.1559919059372121e+04  3.1559549855370700e+04  3.1559197635565193e+04  3.1558864374750570e+04  3.1558552137460472e+04  3.1558263071646092e+04  3.1557999400218199e+04  3.1557763410108026e+04  3.1557557438464017e+04  3.1557383855561715e+04  3.1557245043964333e+04  3.1557143373432216e+04  3.1557081171045666e+04  3.1557060685979814e+04  3.1557084048360652e+04  3.1557153221646709e+04  3.1557269948036970e+04  3.1557435686522218e+04  3.1557651543408479e+04  3.1557918195492039e+04  3.1558235806623907e+04  3.1558603939232424e+04  3.1559021463456640e+04  3.1559486467426683e+04  3.1559996170927199e+04  3.1560546834509882e+04  3.1561133617360272e+04  3.1561750218626275e+04  3.1562387830449388e+04  3.1563032313114851e+04  3.15636578