<?xml version="1.0"?>
<VTKFile type="UnstructuredGrid"  version="0.1"  >
<UnstructuredGrid>
<Piece  NumberOfPoints="21600" NumberOfCells="42542">
<Points>
<DataArray  type="Float64"  NumberOfComponents="3"  format="ascii">0 0 0  0.77 0 0  0.77 0.15 0  0 0.15 0  0.003221757322170014 0 0  0.006443514644340046 0 0  0.009665271966510193 0 0  0.01288702928868034 0 0  0.01610878661085048 0 0  0.01933054393302049 0 0  0.02255230125519027 0 0  0.02577405857735967 0 0  0.02899581589952872 0 0  0.03221757322169801 0 0  0.03543933054386744 0 0  0.03866108786603686 0 0  0.04188284518820627 0 0  0.0451046025103757 0 0  0.04832635983254521 0 0  0.05154811715471607 0 0  0.05476987447688695 0 0  0.05799163179905782 0 0  0.06121338912122846 0 0  0.06443514644339859 0 0  0.06765690376556875 0 0  0.0708786610877389 0 0  0.07410041840990904 0 0  0.0773221757320792 0 0  0.08054393305425039 0 0  0.08376569037642198 0 0  0.0869874476985936 0 0  0.09020920502076518 0 0  0.0934309623429339 0 0  0.0966527196651024 0 0  0.09987447698726967 0 0  0.1030962343094369 0 0  0.1063179916316041 0 0  0.1095397489537714 0 0  0.1127615062759386 0 0  0.1159832635981051 0 0  0.1192050209202709 0 0  0.1224267782424358 0 0  0.1256485355646001 0 0  0.1288702928867644 0 0  0.1320920502089288 0 0  0.1353138075310958 0 0  0.1385355648532632 0 0  0.1417573221754333 0 0  0.1449790794976035 0 0  0.1482008368197736 0 0  0.1514225941419428 0 0  0.1546443514641101 0 0  0.157866108786276 0 0  0.1610878661084403 0 0  0.1643096234306047 0 0  0.167531380752769 0 0  0.1707531380749333 0 0  0.1739748953970977 0 0  0.177196652719262 0 0  0.1804184100414264 0 0  0.1836401673635935 0 0  0.1868619246857611 0 0  0.1900836820079313 0 0  0.1933054393301014 0 0  0.1965271966522716 0 0  0.1997489539744406 0 0  0.2029707112966078 0 0  0.2061924686187736 0 0  0.209414225940938 0 0  0.2126359832631022 0 0  0.2158577405852666 0 0  0.219079497907431 0 0  0.2223012552295953 0 0  0.2255230125517597 0 0  0.2287447698739242 0 0  0.2319665271960914 0 0  0.2351882845182592 0 0  0.2384100418404293 0 0  0.2416317991625994 0 0  0.2448535564847696 0 0  0.2480753138069371 0 0  0.2512970711291014 0 0  0.2545188284512658 0 0  0.2577405857734302 0 0  0.2609623430955986 0 0  0.2641841004177688 0 0  0.2674058577399389 0 0  0.270627615062109 0 0  0.2738493723842792 0 0  0.2770711297064487 0 0  0.280292887028613 0 0  0.2835146443507774 0 0  0.2867364016729417 0 0  0.2899581589951061 0 0  0.2931799163172705 0 0  0.2964016736394348 0 0  0.2996234309615992 0 0  0.3028451882837672 0 0  0.3060669456059373 0 0  0.3092887029281075 0 0  0.3125104602502776 0 0  0.3157322175724478 0 0  0.3189539748946177 0 0  0.322175732216782 0 0  0.3253974895389464 0 0  0.3286192468611107 0 0  0.3318410041832751 0 0  0.3350627615054395 0 0  0.3382845188276038 0 0  0.3415062761497681 0 0  0.3447280334719325 0 0  0.3479497907940968 0 0  0.3511715481162612 0 0  0.3543933054384255 0 0  0.3576150627605947 0 0  0.3608368200827649 0 0  0.364058577404935 0 0  0.3672803347271051 0 0  0.3705020920492753 0 0  0.373723849371444 0 0  0.3769456066936084 0 0  0.3801673640157748 0 0  0.383389121337945 0 0  0.3866108786601209 0 0  0.3898326359823028 0 0  0.3930543933044846 0 0  0.3962761506266662 0 0  0.399497907948848 0 0  0.4027196652710298 0 0  0.4059414225932116 0 0  0.4091631799153934 0 0  0.4123849372375751 0 0  0.4156066945597569 0 0  0.4188284518819387 0 0  0.4220502092041222 0 0  0.4252719665263097 0 0  0.4284937238484974 0 0  0.4317154811706849 0 0  0.4349372384928725 0 0  0.4381589958150601 0 0  0.4413807531372476 0 0  0.4446025104594352 0 0  0.4478242677816181 0 0  0.4510460251037998 0 0  0.4542677824259815 0 0  0.4574895397481634 0 0  0.4607112970703451 0 0  0.4639330543925269 0 0  0.4671548117147087 0 0  0.4703765690368904 0 0  0.4735983263590722 0 0  0.4768200836812568 0 0  0.4800418410034444 0 0  0.483263598325632 0 0  0.4864853556478196 0 0  0.4897071129700028 0 0  0.4929288702921845 0 0  0.4961506276143663 0 0  0.4993723849365479 0 0  0.5025941422587239 0 0  0.5058158995809008 0 0  0.5090376569030826 0 0  0.5122594142252677 0 0  0.515481171547461 0 0  0.5187029288696494 0 0  0.5219246861918312 0 0  0.525146443514013 0 0  0.5283682008361947 0 0  0.5315899581583845 0 0  0.5348117154805778 0 0  0.5380334728027617 0 0  0.5412552301249435 0 0  0.5444769874471141 0 0  0.5476987447692853 0 0  0.550920502091467 0 0  0.5541422594136513 0 0  0.5573640167358447 0 0  0.560585774058034 0 0  0.5638075313802158 0 0  0.5670292887023975 0 0  0.5702510460245793 0 0  0.5734728033467682 0 0  0.5766945606689615 0 0  0.579916317991155 0 0  0.5831380753133483 0 0  0.5863598326355314 0 0  0.5895815899577131 0 0  0.5928033472798949 0 0  0.5960251046020785 0 0  0.5992468619242718 0 0  0.6024686192464619 0 0  0.6056903765686437 0 0  0.6089121338908206 0 0  0.6121338912129908 0 0  0.6153556485351673 0 0  0.618577405857349 0 0  0.6217991631795386 0 0  0.625020920501732 0 0  0.6282426778239159 0 0  0.6314644351460976 0 0  0.6346861924682795 0 0  0.6379079497904622 0 0  0.6411297071126555 0 0  0.6443514644348465 0 0  0.6475732217570283 0 0  0.650794979079206 0 0  0.6540167364013761 0 0  0.6572384937235518 0 0  0.6604602510457335 0 0  0.6636820083679225 0 0  0.6669037656901158 0 0  0.6701255230123004 0 0  0.6733472803344823 0 0  0.6765690376566641 0 0  0.6797907949788459 0 0  0.6830125523010393 0 0  0.686234309623231 0 0  0.6894560669454127 0 0  0.6926778242675914 0 0  0.6958995815897615 0 0  0.6991213389119363 0 0  0.7023430962341181 0 0  0.7055648535563062 0 0  0.7087866108784994 0 0  0.712008368200685 0 0  0.7152301255228668 0 0  0.7184518828450486 0 0  0.7216736401672305 0 0  0.724895397489423 0 0  0.7281171548116155 0 0  0.7313389121337973 0 0  0.7345606694559768 0 0  0.7377824267781468 0 0  0.7410041841003209 0 0  0.7442259414225026 0 0  0.7474476987446899 0 0  0.7506694560668832 0 0  0.7538912133890696 0 0  0.7571129707112513 0 0  0.760334728033433 0 0  0.7635564853556149 0 0  0.7667782426778067 0 0  0.77 0.001685393258423789 0  0.77 0.003370786516847669 0  0.77 0.005056179775271247 0  0.77 0.006741573033694517 0  0.77 0.008426966292117821 0  0.77 0.01011235955054176 0  0.77 0.01179775280896623 0  0.77 0.0134831460673904 0  0.77 0.01516853932581489 0  0.77 0.01685393258423891 0  0.77 0.01853932584266291 0  0.77 0.02022471910108589 0  0.77 0.02191011235950794 0  0.77 0.02359550561792999 0  0.77 0.02528089887635205 0  0.77 0.02696629213477411 0  0.77 0.02865168539319714 0  0.77 0.03033707865161956 0  0.77 0.03202247191004162 0  0.77 0.03370786516846367 0  0.77 0.03539325842688572 0  0.77 0.03707865168530778 0  0.77 0.03876404494372984 0  0.77 0.0404494382021519 0  0.77 0.04213483146057394 0  0.77 0.04382022471899601 0  0.77 0.04550561797741807 0  0.77 0.04719101123584013 0  0.77 0.04887640449426219 0  0.77 0.05056179775268425 0  0.77 0.0522471910111063 0  0.77 0.05393258426952837 0  0.77 0.05561797752795105 0  0.77 0.05730337078637505 0  0.77 0.05898876404479723 0  0.77 0.0606741573032193 0  0.77 0.06235955056164135 0  0.77 0.06404494382006341 0  0.77 0.06573033707848548 0  0.77 0.06741573033690752 0  0.77 0.06910112359532959 0  0.77 0.07078651685375165 0  0.77 0.0724719101121737 0  0.77 0.07415730337059653 0  0.77 0.07584269662902443 0  0.77 0.07752808988745429 0  0.77 0.07921348314588413 0  0.77 0.08089887640431678 0  0.77 0.08258426966274923 0  0.77 0.08426966292117907 0  0.77 0.08595505617960987 0  0.77 0.08764044943804362 0  0.77 0.08932584269647403 0  0.77 0.09101123595490389 0  0.77 0.09269662921333673 0  0.77 0.09438202247176901 0  0.77 0.09606741573019884 0  0.77 0.09775280898862983 0  0.77 0.09943820224706355 0  0.77 0.1011235955054938 0  0.77 0.1028089887639236 0  0.77 0.1044943820223567 0  0.77 0.1061797752807888 0  0.77 0.1078651685392186 0  0.77 0.1095505617976498 0  0.77 0.1112359550560835 0  0.77 0.1129213483145136 0  0.77 0.1146067415729456 0  0.77 0.1162921348313787 0  0.77 0.1179775280898085 0  0.77 0.1196629213482387 0  0.77 0.1213483146066724 0  0.77 0.1230337078651035 0  0.77 0.1247191011235322 0  0.77 0.1264044943819605 0  0.77 0.1280898876403903 0  0.77 0.1297752808988242 0  0.77 0.1314606741572554 0  0.77 0.1331460674156853 0  0.77 0.1348314606741154 0  0.77 0.1365168539325504 0  0.77 0.1382022471909802 0  0.77 0.13988764044941 0  0.77 0.1415730337078443 0  0.77 0.1432584269662752 0  0.77 0.144943820224705 0  0.77 0.1466292134831355 0  0.77 0.1483146067415701 0  0.7667782426778414 0.15 0  0.7635564853556813 0.15 0  0.7603347280335111 0.15 0  0.757112970711341 0.15 0  0.7538912133891708 0.15 0  0.7506694560670005 0.15 0  0.7474476987448303 0.15 0  0.7442259414226602 0.15 0  0.74100418410049 0.15 0  0.7377824267783197 0.15 0  0.7345606694561496 0.15 0  0.7313389121339794 0.15 0  0.7281171548118092 0.15 0  0.724895397489639 0.15 0  0.7216736401674688 0.15 0  0.7184518828452986 0.15 0  0.7152301255231284 0.15 0  0.7120083682009583 0.15 0  0.708786610878788 0.15 0  0.7055648535566178 0.15 0  0.7023430962344477 0.15 0  0.6991213389122775 0.15 0  0.6958995815901072 0.15 0  0.692677824267937 0.15 0  0.6894560669457669 0.15 0  0.6862343096235967 0.15 0  0.6830125523014264 0.15 0  0.6797907949792563 0.15 0  0.6765690376570861 0.15 0  0.6733472803349159 0.15 0  0.6701255230127456 0.15 0  0.6669037656905755 0.15 0  0.6636820083684053 0.15 0  0.6604602510462351 0.15 0  0.657238493724065 0.15 0  0.6540167364018947 0.15 0  0.6507949790797245 0.15 0  0.6475732217575543 0.15 0  0.644351464435384 0.15 0  0.6411297071132231 0.15 0  0.6379079497910645 0.15 0  0.634686192468906 0.15 0  0.6314644351467468 0.15 0  0.6282426778245765 0.15 0  0.6250209205024085 0.15 0  0.62179916318025 0.15 0  0.6185774058580914 0.15 0  0.6153556485359328 0.15 0  0.6121338912137689 0.15 0  0.6089121338915987 0.15 0  0.6056903765694354 0.15 0  0.6024686192472768 0.15 0  0.5992468619251182 0.15 0  0.5960251046029597 0.15 0  0.5928033472807912 0.15 0  0.589581589958621 0.15 0  0.5863598326364508 0.15 0  0.5831380753142792 0.15 0  0.5799163179920974 0.15 0  0.57669456
[...]
<PointData  Vectors="velocity"> 
<DataArray  type="Float64"  Name="velocity"  NumberOfComponents="3" format="ascii">1.0000000000000000e-02 0.0000000000000000e+00 0.0000000000000000e+00  0.0000000000000000e+00 0.0000000000000000e+00 0.0000000000000000e+00  0.0000000000000000e+00 0.0000000000000000e+00 0.0000000000000000e+00  1.0000000000000000e-02 0.0000000000000000e+00 0.0000000000000000e+00  0.0000000000000000e+00 0.0000000000000000e+00 0.0000000000000000e+00  0.0000000000000000e+00 0.0000000000000000e+00 0.0000000000000000e+00  0.0000000000000000e+00 0.0000000000000000e+00 0.0000000000000000e+00  0.0000000000000000e+00 0.0000000000000000e+00 0.0000000000000000e+00  0.0000000000000000e+00 0.0000000000000000e+00 0.0000000000000000e+00  0.0000000000000000e+00 0.0000000000000000e+00 0.0000000000000000e+00  0.0000000000000000e+00 0.0000000000000000e+00 0.0000000000000000e+00  0.0000000000000000e+00 0.0000000000000000e+00 0.0000000000000000e+00  0.0000000000000000e+00 0.0000000000000000e+00 0.0000000000000000e+00  0.0000000000000000e+00 0.0000000000000000e+00 0.0000000000000000e+00  0.0000000000000000e+00 0.0000000000000000e+00 0.0000000000000000e+00  0.0000000000000000e+00 0.0000000000000000e+00 0.0000000000000000e+00  0.0000000000000000e+00 0.0000000000000000e+00 0.0000000000000000e+00  0.0000000000000000e+00 0.0000000000000000e+00 0.0000000000000000e+00  0.0000000000000000e+00 0.0000000000000000e+00 0.0000000000000000e+00  0.0000000000000000e+00 0.0000000000000000e+00 0.0000000000000000e+00  0.0000000000000000e+00 0.0000000000000000e+00 0.0000000000000000e+00  0.0000000000000000e+00 0.0000000000000000e+00 0.0000000000000000e+00  0.0000000000000000e+00 0.0000000000000000e+00 0.0000000000000000e+00  0.0000000000000000e+00 0.0000000000000000e+00 0.0000000000000000e+00  0.0000000000000000e+00 0.0000000000000000e+00 0.0000000000000000e+00  0.0000000000000000e+00 0.0000000000000000e+00 0.0000000000000000e+00  0.0000000000000000e+00 0.0000000000000000e+00 0.0000000000000000e+00  0.0000000000000000e+00 0.0000000000000000e+00 0.0000000000000000e+00  0.0000000000000000e+00 0.0000000000000000e+00 0.0000000000000000e+00  0.0000000000000000e+00 0.0000000000000000e+00 0.0000000000000000e+00  0.0000000000000000e+00 0.0000000000000000e+00 0.0000000000000000e+00  0.0000000000000000e+00 0.0000000000000000e+00 0.0000000000000000e+00  0.0000000000000000e+00 0.0000000000000000e+00 0.0000000000000000e+00  0.0000000000000000e+00 0.0000000000000000e+00 0.0000000000000000e+00  0.0000000000000000e+00 0.0000000000000000e+00 0.0000000000000000e+00  0.0000000000000000e+00 0.0000000000000000e+00 0.0000000000000000e+00  0.0000000000000000e+00 0.0000000000000000e+00 0.0000000000000000e+00  0.0000000000000000e+00 0.0000000000000000e+00 0.0000000000000000e+00  0.0000000000000000e+00 0.0000000000000000e+00 0.0000000000000000e+00  0.0000000000000000e+00 0.0000000000000000e+00 0.0000000000000000e+00  0.0000000000000000e+00 0.0000000000000000e+00 0.0000000000000000e+00  0.0000000000000000e+00 0.0000000000000000e+00 0.0000000000000000e+00  0.0000000000000000e+00 0.0000000000000000e+00 0.0000000000000000e+00  0.0000000000000000e+00 0.0000000000000000e+00 0.0000000000000000e+00  0.0000000000000000e+00 0.0000000000000000e+00 0.0000000000000000e+00  0.0000000000000000e+00 0.0000000000000000e+00 0.0000000000000000e+00  0.0000000000000000e+00 0.0000000000000000e+00 0.0000000000000000e+00  0.0000000000000000e+00 0.0000000000000000e+00 0.0000000000000000e+00  0.0000000000000000e+00 0.0000000000000000e+00 0.0000000000000000e+00  0.0000000000000000e+00 0.0000000000000000e+00 0.0000000000000000e+00  0.0000000000000000e+00 0.0000000000000000e+00 0.0000000000000000e+00  0.0000000000000000e+00 0.0000000000000000e+00 0.0000000000000000e+00  0.0000000000000000e+00 0.0000000000000000e+00 0.0000000000000000e+00  0.0000000000000000e+00 0.0000000000000000e+00 0.0000000000000000e+00  0.0000000000000000e+00 0.0000000000000000e+00 0.0000000000000000e+00  0.0000000000000000e+00 0.0000000000000000e+00 0.0000000000000000e+00  0.0000000000000000e+00 0.0000000000000000e+00 0.0000000000000000e+00  0.0000000000000000e+00 0.0000000000000000e+00 0.0000000000000000e+00  0.0000000000000000e+00 0.0000000000000000e+00 0.0000000000000000e+00  0.0000000000000000e+00 0.0000000000000000e+00 0.0000000000000000e+00  0.0000000000000000e+00 0.0000000000000000e+00 0.0000000000000000e+00  0.0000000000000000e+00 0.0000000000000000e+00 0.0000000000000000e+00  0.0000000000000000e+00 0.0000000000000000e+00 0.0000000000000000e+00  0.0000000000000000e+00 0.0000000000000000e+00 0.0000000000000000e+00  0.0000000000000000e+00 0.0000000000000000e+00 0.0000000000000000e+00  0.0000000000000000e+00 0.0000000000000000e+00 0.0000000000000000e+00  0.0000000000000000e+00 0.0000000000000000e+00 0.0000000000000000e+00  0.0000000000000000e+00 0.0000000000000000e+00 0.0000000000000000e+00  0.0000000000000000e+00 0.0000000000000000e+00 0.0000000000000000e+00  0.0000000000000000e+00 0.0000000000000000e+00 0.0000000000000000e+00  0.0000000000000000e+00 0.0000000000000000e+00 0.0000000000000000e+00  0.0000000000000000e+00 0.0000000000000000e+00 0.0000000000000000e+00  0.0000000000000000e+00 0.0000000000000000e+00 0.0000000000000000e+00  0.0000000000000000e+00 0.0000000000000000e+00 0.0000000000000000e+00  0.0000000000000000e+00 0.0000000000000000e+00 0.0000000000000000e+00  0.0000000000000000e+00 0.0000000000000000e+00 0.0000000000000000e+00  0.0000000000000000e+00 0.0000000000000000e+00 0.0000000000000000e+00  0.0000000000000000e+00 0.0000000000000000e+00 0.0000000000000000e+00  0.0000000000000000e+00 0.0000000000000000e+00 0.0000000000000000e+00  0.0000000000000000e+00 0.0000000000000000e+00 0.0000000000000000e+00  0.0000000000000000e+00 0.0000000000000000e+00 0.0000000000000000e+00  0.0000000000000000e+00 0.0000000000000000e+00 0.0000000000000000e+00  0.0000000000000000e+00 0.0000000000000000e+00 0.0000000000000000e+00  0.0000000000000000e+00 0.0000000000000000e+00 0.0000000000000000e+00  0.0000000000000000e+00 0.0000000000000000e+00 0.0000000000000000e+00  0.0000000000000000e+00 0.0000000000000000e+00 0.0000000000000000e+00  0.0000000000000000e+00 0.0000000000000000e+00 0.0000000000000000e+00  0.0000000000000000e+00 0.0000000000000000e+00 0.0000000000000000e+00  0.0000000000000000e+00 0.0000000000000000e+00 0.0000000000000000e+00  0.0000000000000000e+00 0.0000000000000000e+00 0.0000000000000000e+00  0.0000000000000000e+00 0.0000000000000000e+00 0.0000000000000000e+00  0.0000000000000000e+00 0.0000000000000000e+00 0.0000000000000000e+00  0.0000000000000000e+00 0.0000000000000000e+00 0.0000000000000000e+00  0.0000000000000000e+00 0.0000000000000000e+00 0.0000000000000000e+00  0.0000000000000000e+00 0.0000000000000000e+00 0.0000000000000000e+00  0.0000000000000000e+00 0.0000000000000000e+00 0.0000000000000000e+00  0.0000000000000000e+00 0.0000000000000000e+00 0.0000000000000000e+00  0.0000000000000000e+00 0.0000000000000000e+00 0.0000000000000000e+00  0.0000000000000000e+00 0.0000000000000000e+00 0.0000000000000000e+00  0.0000000000000000e+00 0.0000000000000000e+00 0.0000000000000000e+00  0.0000000000000000e+00 0.0000000000000000e+00 0.0000000000000000e+00  0.0000000000000000e+00 0.0000000000000000e+00 0.0000000000000000e+00  0.0000000000000000e+00 0.0000000000000000e+00 0.0000000000000000e+00  0.0000000000000000e+00 0.0000000000000000e+00 0.0000000000000000e+00  0.0000000000000000e+00 0.0000000000000000e+00 0.0000000000000000e+00  0.0000000000000000e+00 0.0000000000000000e+00 0.0000000000000000e+00  0.0000000000000000e+00 0.0000000000000000e+00 0.0000000000000000e+00  0.0000000000000000e+00 0.0000000000000000e+00 0.0000000000000000e+00  0.0000000000000000e+00 0.0000000000000000e+00 0.0000000000000000e+00  0.0000000000000000e+00 0.0000000000000000e+00 0.0000000000000000e+00  0.0000000000000000e+00 0.0000000000000000e+00 0.0000000000000000e+00  0.0000000000000000e+00 0.0000000000000000e+00 0.0000000000000000e+00  0.0000000000000000e+00 0.0000000000000000e+00 0.0000000000000000e+00  0.0000000000000000e+00 0.0000000000000000e+00 0.0000000000000000e+00  0.0000000000000000e+00 0.0000000000000000e+00 0.0000000000000000e+00  0.0000000000000000e+00 0.0000000000000000e+00 0.0000000000000000e+00  0.0000000000000000e+00 0.0000000000000000e+00 0.0000000000000000e+00  0.0000000000000000e+00 0.0000000000000000e+00 0.0000000000000000e+00  0.0000000000000000e+00 0.0000000000000000e+00 0.0000000000000000e+00  0.0000000000000000e+00 0.0000000000000000e+00 0.0000000000000000e+00  0.0000000000000000e+00 0.0000000000000000e+00 0.0000000000000000e+00  0.0000000000000000e+00 0.0000000000000000e+00 0.0000000000000000e+00  0.0000000000000000e+00 0.0000000000000000e+00 0.0000000000000000e+00  0.0000000000000000e+00 0.0000000000000000e+00 0.0000000000000000e+00  0.0000000000000000e+00 0.0000000000000000e+00 0.0000000000000000e+00  0.0000000000000000e+00 0.0000000000000000e+00 0.0000000000000000e+00  0.0000000000000000e+00 0.0000000000000000e+00 0.0000000000000000e+00  0.0000000000000000e+00 0.0000000000000000e+00 0.0000000000000000e+00  0.0000000000000000e+00 0.0000000000000000e+00 0.0000000000000000e+00  0.0000000000000000e+00 0.0000000000000000e+00 0.0000000000000000e+00  0.0000000000000000e+00 0.0000000000000000e+00 0.0000000000000000e+00  0.0000000000000000e+00 0.0000000000000000e+00 0.0000000000000000e+00  0.0000000000000000e+00 0.0000000000000000e+00 0.0000000000000000e+00  0.0000000000000000e+00 0.0000000000000000e+00 0.0000000000000000e+00  0.0000000000000000e+00 0.0000000000000000e+00 0.0000000000000000e+00  0.0000000000000000e+00 0.0000000000000000e+00 0.0000000000000000e+00  0.0000000000000000e+00 0.0000000000000000e+00 0.0000000000000000e+00  0.0000000000000000e+00 0.0000000000000000e+00 0.0000000000000000e+00  0.0000000000000000e+00 0.0000000000000000e+00 0.0000000000000000e+00  0.0000000000000000e+00 0.0000000000000000e+00 0.0000000000000000e+00  0.0000000000000000e+00 0.0000000000000000e+00 0.0000000000000000e+00  0.0000000000000000e+00 0.0000000000000000e+00 0.0000000000000000e+00  0.0000000000000000e+00 0.0000000000000000e+00 0.0000000000000000e+00  0.0000000000000000e+00 0.0000000000000000e+00 0.0000000000000000e+00  0.0000000000000000e+00 0.0000000000000000e+00 0.0000000000000000e+00  0.0000000000000000e+00 0.0000000000000000e+00 0.0000000000000000e+00  0.0000000000000000e+00 0.0000000000000000e+00 0.0000000000000000e+00  0.0000000000000000e+00 0.0000000000000000e+00 0.0000000000000000e+00  0.0000000000000000e+00 0.0000000000000000e+00 0.0000000000000000e+00  0.0000000000000000e+00 0.0000000000000000e+00 0.0000000000000000e+00  0.0000000000000000e+00 0.0000000000000000e+00 0.0000000000000000e+00  0.0000000000000000e+00 0.0000000000000000e+00 0.0000000000000000e+00  0.0000000000000000e+00 0.0000000000000000e+00 0.0000000000000000e+00  0.0000000000000000e+00 0.0000000000000000e+00 0.0000000000000000e+00  0.0000000000000000e+00 0.0000000000000000e+00 0.0000000000000000e+00  0.0000000000000000e+00 0.0000000000000000e+00 0.0000000000000000e+00  0.0000000000000000e+00 0.0000000000000000e+00 0.0000000000000000e+00  0.0000000000000000e+00 0.0000000000000000e+00 0.0000000000000000e+00  0.0000000000000000e+00 0.0000000000000000e+00 0.0000000000000000e+00  0.0000000000000000e+00 0.0000000000000000e+00 0.0000000000000000e+00  0.0000000000000000e+00 0.0000000000000000e+00 0.0000000000000000e+00  0.0000000000000000e+00 0.0000000000000000e+00 0.0000000000000000e+00  0.0000000000000000e+00 0.0000000000000000e+00 0.0000000000000000e+00  0.0000000000000000e+00 0.0000000000000000e+00 0.0000000000000000e+00  0.0000000000000000e+00 0.0000000000000000e+00 0.0000000000000000e+00  0.0000000000000000e+00 0.0000000000000000e+00 0.0000000000000000e+00  0.0000000000000000e+00 0.0000000000000000e+00 0.0000000000000000e+00  0.0000000000000000e+00 0.0000000000000000e+00 0.0000000000000000e+00  0.0000000000000000e+00 0.0000000000000000e+00 0.0000000000000000e+00  0.0000000000000000e+00 0.0000000000000000e+00 0.0000000000000000e+00  0.0000000000000000e+00 0.0000000000000000e+00 0.0000000000000000e+00  0.0000000000000000e+00 0.0000000000000000e+00 0.0000000000000000e+00  0.0000000000000000e+00 0.0000000000000000e+00 0.0000000000000000e+00  0.0000000000000000e+00 0.0000000000000000e+00 0.0000000000000000e+00  0.0000000000000000e+00 0.0000000000000000e+00 0.0000000000000000e+00  0.0000000000000000e+00 0.0000000000000000e+00 0.0000000000000000e+00  0.0000000000000000e+00 0.0000000000000000e+00 0.0000000000000000e+00  0.0000000000000000e+00 0.0000000000000000e+00 0.0000000000000000e+00  0.0000000000000000e+00 0.0000000000000000e+00 0.0000000000000000e+00  0.0000000000000000e+00 0.0000000000000000e+00 0.0000000000000000e+00  0.0000000000000000e+00 0.0000000000000000e+00 0.0000000000000000e+00  0.0000000000000000e+00 0.0000000000000000e+00 0.0000000000000000e+00  0.0000000000000000e+00 0.0000000000000000e+00 0.0000000000000000e+00  0.0000000000000000e+00 0.0000000000000000e+00 0.0000000000000000e+00  0.0000000000000000e+00 0.0000000000000000e+00 0.0000000000000000e+00  0.0000000000000000e+00 0.0000000000000000e+00 0.0000000000000000e+00  0.0000000000000000e+00 0.0000000000000000e+00 0.0000000000000000e+00  0.0000000000000000e+00 0.0000000000000000e+00 0.0000000000000000e+00  0.0000000000000000e+00 0.0000000000000000e+00 0.0000000000000000e+00  0.0000000000000000e+00 0.0000000000000000e+00 0.0000000000000000e+00  0.0000000000000000e+00 0.0000000000000000e+00 0.0000000000000000e+00  0.0000000000000000e+00 0.0000000000000000e+00 0.0000000000000000e+00  0.0000000000000000e+00 0.0000000000000000e+00 0.0000000000000000e+00  0.0000000000000000e+00 0.0000000000000000e+00 0.0000000000000000e+00  0.0000000000000000e+00 0.0000000000000000e+00 0.0000000000000000e+00  0.0000000000000000e+00 0.0000000000000000e+00 0.0000000000000000e+00  0.0000000000000000e+00 0.0000000000000000e+00 0.0000000000000000e+00  0.0000000000000000e+00 0.0000000000000000e+00 0.0000000000000000e+00  0.0000000000000000e+00 0.0000000000000000e+00 0.0000000000000000e+00  0.0000000000000000e+00 0.0000000000000000e+00 0.0000000000000000e+00  0.0000000000000000e+00 0.0000000000000000e+00 0.0000000000000000e+00  0.0000000000000000e+00 0.0000000000000000e+00 0.0000000000000000e+00  0.0000000000000000e+00 0.0000000000000000e+00 0.0000000000000000e+00  0.0000000000000000e+00 0.0000000000000000e+00 0.0000000000000000e+00  0.0000000000000000e+00 0.0000000000000000e+00 0.0000000000000000e+00  0.0000000000000000e+00 0.0000000000000000e+00 0.0000000000000000e+00  0.0000000000000000e+00 0.0000000000000000e+00 0.0000000000000000e+00  0.0000000000000000e+00 0.0000000000000000e+00 0.0000000000000000e+00  0.0000000000000000e+00 0.0000000000000000e+00 0.0000000000000000e+00  0.0000000000000000e+00 0.0000000000000000e+00 0.0000000000000000e+00  0.0000000000000000e+00 0.0000000000000000e+00 0.0000000000000000e+00  0.0000000000000000e+00 0.0000000000000000e+00 0.0000000000000000e+00  0.0000000000000000e+00 0.0000000000000000e+00 0.0000000000000000e+00  0.0000000000000000e+00 0.0000000000000000e+00 0.0000000000000000e+00  0.0000000000000000e+00 0.0000000000000000e+00 0.0000000000000000e+00  0.0000000000000000e+00 0.0000000000000000e+00 0.0000000000000000e+00  0.0000000000000000e+00 0.0000000000000000e+00 0.0000000000000000e+00  0.0000000000000000e+00 0.0000000000000000e+00 0.0000000000000000e+00  0.0000000000000000e+00 0.0000000000000000e+00 0.0000000000000000e+00  0.0000000000000000e+00 0.0000000000000000e+00 0.0000000000000000e+00  0.0000000000000000e+00 0.0000000000000000e+00 0.0000000000000000e+00  0.0000000000000000e+00 0.0000000000000000e+00 0.0000000000000000e+00  0.0000000000000000e+00 0.0000000000000000e+00 0.0000000000000000e+00  0.0000000000000000e+00 0.0000000000000000e+00 0.0000000000000000e+00  0.0000000000000000e+00 0.0000000000000000e+00 0.0000000000000000e+00  0.0000000000000000e+00 0.0000000000000000e+00 0.0000000000000000e+00  0.0000000000000000e+00 0.0000000000000000e+00 0.0000000000000000e+00  0.0000000000000000e+00 0.0000000000000000e+00 0.0000000000000000e+00  0.0000000000000000e+00 0.0000000000000000e+00 0.0000000000000000e+00  0.0000000000000000e+00 0.0000000000000000e+00 0.0000000000000000e+00  0.0000000000000000e+00 0.0000000000000000e+00 0.0000000000000000e+00  0.0000000000000000e+00 0.0000000000000000e+00 0.0000000000000000e+00  0.0000000000000000e+00 0.0000000000000000e+00 0.0000000000000000e+00  0.0000000000000000e+00 0.0000000000000000e+00 0.0000000000000000e+00  0.0000000000000000e+00 0.0000000000000000e+00 0.0000000000000000e+00  0.0000000000000000e+00 0.0000000000000000e+00 0.0000000000000000e+00  0.0000000000000000e+00 0.0000000000000000e+00 0.0000000000000000e+00  0.0000000000000000e+00 0.0000000000000000e+00 0.0000000000000000e+00  0.0000000000000000e+00 0.0000000000000000e+00 0.0000000000000000e+00  0.0000000000000000e+00 0.0000000000000000e+00 0.0000000000000000e+00  0.0000000000000000e+00 0.0000000000000000e+00 0.0000000000000000e+00  0.0000000000000000e+00 0.0000000000000000e+00 0.0000000000000000e+00  1.0106334994928511e-02 1.1138761467482044e-04 0.0000000000000000e+00  1.0041363111390823e-02 2.8332269614550540e-05 0.0000000000000000e+00  1.0020621068831849e-02 3.9143917227457621e-06 0.0000000000000000e+00  1.0016798267948915e-02 1.7627906172354394e-06 0.0000000000000000e+00  1.0014753657652612e-02 9.4772078272420020e-07 0.0000000000000000e+00  1.0013636418687953e-02 4.8501197180659160e-07 0.0000000000000000e+00  1.0013061750458779e-02 2.1607655034831677e-07 0.0000000000000000e+00  1.0012798545180116e-02 4.7726077665926677e-08 0.0000000000000000e+00  1.0012727809503677e-02 -6.6742856006089927e-08 0.0000000000000000e+00  1.0012786466388177e-02 -1.5055880591652231e-07 0.0000000000000000e+00  1.0012938950732374e-02 -2.1592548695165871e-07 0.0000000000000000e+00  1.0013164023861156e-02 -2.6960940655974447e-07 0.0000000000000000e+00  1.0013448329816778e-02 -3.1554111888522589e-07 0.0000000000000000e+00  1.0013783061352498e-02 -3.5609730815783834e-07 0.0000000000000000e+00  1.0014162146348754e-02 -3.9276522797648138e-07 0.0000000000000000e+00  1.0014581216338287e-02 -4.2650284741982279e-07 0.0000000000000000e+00  1.0015036996101949e-02 -4.5794213454091963e-07 0.0000000000000000e+00  1.0015526929509310e-02 -4.8750806179938788e-07 0.0000000000000000e+00  1.0016048942926263e-02 -5.1549059260410892e-07 0.0000000000000000e+00  1.0016601291449193e-02 -5.4208952568207982e-07 0.0000000000000000e+00  1.0017182456524791e-02 -5.6744318028709483e-07 0.0000000000000000e+00  1.0017791076321128e-02 -5.9164718875567679e-07 0.0000000000000000e+00  1.0018425897487157e-02 -6.1476707813998822e-07 0.0000000000000000e+00  1.0019085741191541e-02 -6.3684686111250327e-07 0.0000000000000000e+00  1.0019769478887554e-02 -6.5791500950400854e-07 0.0000000000000000e+00  1.0020476014825710e-02 -6.7798867750142298e-07 0.0000000000000000e+00  1.0021204273327278e-02 -6.9707673388490554e-07 0.0000000000000000e+00  1.0021953189470025e-02 -7.1518197074157107e-07 0.0000000000000000e+00  1.0022721702255268e-02 -7.3230273425095112e-07 0.0000000000000000e+00  1.0023508749603990e-02 -7.4843414409422753e-07 0.0000000000000000e+00  1.0024313264718797e-02 -7.6356901620846807e-07 0.0000000000000000e+00  1.0025134173478010e-02 -7.7769856934952548e-07 0.0000000000000000e+00  1.0025970392618891e-02 -7.9081297150898258e-07 0.0000000000000000e+00  1.0026820828530467e-02 -8.0290176702912250e-07 0.0000000000000000e+00  1.0027684376522307e-02 -8.1395421357831798e-07 0.0000000000000000e+00  1.0028559920468277e-02 -8.2395954996481286e-07 0.0000000000000000e+00  1.0029446332747933e-02 -8.3290721063848507e-07 0.0000000000000000e+00  1.0030342474426253e-02 -8.4078699822297879e-07 0.0000000000000000e+00  1.0031247195624643e-02 -8.4758922271214996e-07 0.0000000000000000e+00  1.0032159336046322e-02 -8.5330481348492365e-07 0.0000000000000000e+00  1.0033077725625795e-02 -8.5792540896482868e-07 0.0000000000000000e+00  1.0034001185277645e-02 -8.614434269567508