<?xml version="1.0"?>
<VTKFile type="UnstructuredGrid"  version="0.1"  >
<UnstructuredGrid>
<Piece  NumberOfPoints="21459" NumberOfCells="42258">
<Points>
<DataArray  type="Float64"  NumberOfComponents="3"  format="ascii">0 0 0  0.77 0 0  0.77 0.15 0  0 0.15 0  0.002575250836115831 0 0  0.005150501672231662 0 0  0.007725752508347561 0 0  0.0103010033444635 0 0  0.01287625418057944 0 0  0.01545150501669537 0 0  0.01802675585281131 0 0  0.02060200668892696 0 0  0.0231772575250426 0 0  0.02575250836115786 0 0  0.02832775919727293 0 0  0.03090301003338809 0 0  0.03347826086950344 0 0  0.0360535117056188 0 0  0.03862876254173415 0 0  0.04120401337784951 0 0  0.04377926421396486 0 0  0.04635451505008022 0 0  0.04892976588619594 0 0  0.05150501672231246 0 0  0.05408026755842897 0 0  0.05665551839454548 0 0  0.059230769230662 0 0  0.06180602006677815 0 0  0.06438127090289408 0 0  0.06695652173901002 0 0  0.06953177257512595 0 0  0.07210702341124189 0 0  0.07468227424735784 0 0  0.07725752508347376 0 0  0.07983277591959044 0 0  0.08240802675570753 0 0  0.08498327759182464 0 0  0.08755852842794172 0 0  0.09013377926405881 0 0  0.0927090301001737 0 0  0.09528428093628846 0 0  0.09785953177240253 0 0  0.1004347826085162 0 0  0.1030100334446298 0 0  0.1055852842807434 0 0  0.108160535116857 0 0  0.1107357859529706 0 0  0.1133110367890842 0 0  0.1158862876251971 0 0  0.1184615384613096 0 0  0.1210367892974217 0 0  0.123612040133533 0 0  0.1261872909696443 0 0  0.1287625418057556 0 0  0.1313377926418669 0 0  0.1339130434779796 0 0  0.1364882943140932 0 0  0.1390635451502075 0 0  0.1416387959863234 0 0  0.1442140468224393 0 0  0.1467892976585553 0 0  0.1493645484946712 0 0  0.1519397993307857 0 0  0.1545150501668993 0 0  0.1570903010030123 0 0  0.1596655518391236 0 0  0.1622408026752349 0 0  0.1648160535113462 0 0  0.1673913043474575 0 0  0.1699665551835688 0 0  0.1725418060196801 0 0  0.1751170568557914 0 0  0.1776923076919027 0 0  0.180267558528014 0 0  0.1828428093641274 0 0  0.185418060200241 0 0  0.187993311036356 0 0  0.1905685618724719 0 0  0.1931438127085879 0 0  0.1957190635447038 0 0  0.1982943143808197 0 0  0.2008695652169336 0 0  0.2034448160530472 0 0  0.2060200668891594 0 0  0.2085953177252707 0 0  0.211170568561382 0 0  0.2137458193974934 0 0  0.2163210702336046 0 0  0.2188963210697159 0 0  0.2214715719058272 0 0  0.2240468227419385 0 0  0.2266220735780498 0 0  0.2291973244141617 0 0  0.2317725752502753 0 0  0.2343478260863889 0 0  0.2369230769225046 0 0  0.2394983277586206 0 0  0.2420735785947365 0 0  0.2446488294308524 0 0  0.2472240802669673 0 0  0.2497993311030786 0 0  0.2523745819391899 0 0  0.2549498327753012 0 0  0.2575250836114125 0 0  0.2601003344475263 0 0  0.2626755852836423 0 0  0.2652508361197582 0 0  0.2678260869558742 0 0  0.2704013377919901 0 0  0.272976588628106 0 0  0.275551839464222 0 0  0.2781270903003354 0 0  0.2807023411364467 0 0  0.2832775919725579 0 0  0.2858528428086692 0 0  0.2884280936447806 0 0  0.2910033444808919 0 0  0.2935785953170031 0 0  0.2961538461531145 0 0  0.2987290969892258 0 0  0.301304347825338 0 0  0.3038795986614539 0 0  0.3064548494975699 0 0  0.3090301003336858 0 0  0.3116053511698018 0 0  0.3141806020059177 0 0  0.3167558528420336 0 0  0.3193311036781486 0 0  0.3219063545142599 0 0  0.3244816053503712 0 0  0.3270568561864825 0 0  0.3296321070225938 0 0  0.3322073578587051 0 0  0.3347826086948165 0 0  0.3373578595309277 0 0  0.339933110367039 0 0  0.3425083612031504 0 0  0.3450836120392617 0 0  0.347658862875373 0 0  0.3502341137114842 0 0  0.3528093645475955 0 0  0.3553846153837077 0 0  0.3579598662198236 0 0  0.3605351170559395 0 0  0.3631103678920555 0 0  0.3656856187281714 0 0  0.3682608695642873 0 0  0.3708361204004033 0 0  0.3734113712365184 0 0  0.3759866220726297 0 0  0.378561872908741 0 0  0.3811371237448562 0 0  0.3837123745809721 0 0  0.3862876254170927 0 0  0.3888628762532179 0 0  0.3914381270893431 0 0  0.3940133779254684 0 0  0.3965886287615936 0 0  0.3991638795977189 0 0  0.401739130433844 0 0  0.4043143812699693 0 0  0.4068896321060945 0 0  0.4094648829422198 0 0  0.412040133778345 0 0  0.4146153846144702 0 0  0.4171906354505954 0 0  0.4197658862867207 0 0  0.4223411371228482 0 0  0.4249163879589781 0 0  0.4274916387951079 0 0  0.4300668896312377 0 0  0.4326421404673676 0 0  0.4352173913034975 0 0  0.4377926421396274 0 0  0.4403678929757572 0 0  0.4429431438118872 0 0  0.4455183946480163 0 0  0.4480936454841415 0 0  0.4506688963202668 0 0  0.453244147156392 0 0  0.4558193979925173 0 0  0.4583946488286424 0 0  0.4609698996647677 0 0  0.463545150500893 0 0  0.4661204013370182 0 0  0.4686956521731435 0 0  0.4712709030092686 0 0  0.4738461538453939 0 0  0.4764214046815212 0 0  0.4789966555176511 0 0  0.481571906353781 0 0  0.4841471571899109 0 0  0.4867224080260408 0 0  0.489297658862167 0 0  0.4918729096982922 0 0  0.4944481605344174 0 0  0.4970234113705426 0 0  0.4995986622066672 0 0  0.5021739130427878 0 0  0.5047491638789084 0 0  0.5073244147150326 0 0  0.5098996655511578 0 0  0.5124749163872871 0 0  0.5150501672234217 0 0  0.5176254180595552 0 0  0.5202006688956804 0 0  0.5227759197318056 0 0  0.5253511705679309 0 0  0.5279264214040561 0 0  0.5305016722401854 0 0  0.5330769230763199 0 0  0.5356521739124535 0 0  0.5382274247485787 0 0  0.5408026755847039 0 0  0.5433779264208219 0 0  0.5459531772569379 0 0  0.5485284280930578 0 0  0.5511036789291831 0 0  0.5536789297653092 0 0  0.5562541806014436 0 0  0.5588294314375781 0 0  0.5614046822737055 0 0  0.5639799331098307 0 0  0.5665551839459561 0 0  0.5691304347820813 0 0  0.5717056856182072 0 0  0.5742809364543418 0 0  0.5768561872904763 0 0  0.5794314381266108 0 0  0.5820066889627452 0 0  0.5845819397988758 0 0  0.5871571906350012 0 0  0.5897324414711264 0 0  0.5923076923072516 0 0  0.5948829431433768 0 0  0.5974581939795088 0 0  0.6000334448156434 0 0  0.6026086956517741 0 0  0.6051839464878993 0 0  0.6077591973240239 0 0  0.6103344481601398 0 0  0.6129096989962558 0 0  0.6154849498323786 0 0  0.6180602006685038 0 0  0.6206354515046327 0 0  0.6232107023407671 0 0  0.6257859531769011 0 0  0.6283612040130263 0 0  0.6309364548491515 0 0  0.6335117056852767 0 0  0.636086956521402 0 0  0.6386622073575308 0 0  0.6412374581936653 0 0  0.6438127090297993 0 0  0.6463879598659246 0 0  0.6489632107020498 0 0  0.6515384615381682 0 0  0.6541137123742842 0 0  0.6566889632104037 0 0  0.6592642140465289 0 0  0.6618394648826547 0 0  0.6644147157187892 0 0  0.6669899665549236 0 0  0.6695652173910515 0 0  0.6721404682271768 0 0  0.674715719063302 0 0  0.6772909698994272 0 0  0.6798662207355527 0 0  0.6824414715716872 0 0  0.6850167224078217 0 0  0.6875919732439497 0 0  0.6901672240800749 0 0  0.6927424749161967 0 0  0.6953177257523127 0 0  0.6978929765884289 0 0  0.7004682274245541 0 0  0.7030434782606794 0 0  0.705618729096811 0 0  0.7081939799329454 0 0  0.7107692307690766 0 0  0.7133444816052019 0 0  0.7159197324413271 0 0  0.7184949832774523 0 0  0.7210702341135775 0 0  0.7236454849497092 0 0  0.7262207357858437 0 0  0.7287959866219749 0 0  0.7313712374581001 0 0  0.7339464882942252 0 0  0.7365217391303411 0 0  0.7390969899664571 0 0  0.7416722408025793 0 0  0.7442474916387045 0 0  0.7468227424748329 0 0  0.7493979933109675 0 0  0.7519732441471019 0 0  0.7545484949832271 0 0  0.7571237458193523 0 0  0.7596989966554775 0 0  0.7622742474916027 0 0  0.764849498327731 0 0  0.7674247491638655 0 0  0.77 0.004999999999990473 0  0.77 0.009999999999980134 0  0.77 0.01499999999997245 0  0.77 0.01999999999996296 0  0.77 0.02499999999994839 0  0.77 0.02999999999993517 0  0.77 0.03499999999992059 0  0.77 0.03999999999990602 0  0.77 0.04499999999989145 0  0.77 0.04999999999987687 0  0.77 0.0549999999998623 0  0.77 0.05999999999985044 0  0.77 0.06499999999983586 0  0.77 0.06999999999982129 0  0.77 0.07499999999980943 0  0.77 0.07999999999981869 0  0.77 0.08499999999983195 0  0.77 0.08999999999984591 0  0.77 0.09499999999985989 0  0.77 0.09999999999987387 0  0.77 0.1049999999998868 0  0.77 0.1099999999998987 0  0.77 0.1149999999999134 0  0.77 0.1199999999999254 0  0.77 0.1249999999999365 0  0.77 0.1299999999999492 0  0.77 0.1349999999999592 0  0.77 0.1399999999999721 0  0.77 0.144999999999986 0  0.7674247491638934 0.15 0  0.7648494983277866 0.15 0  0.7622742474916738 0.15 0  0.7596989966555578 0.15 0  0.7571237458194419 0.15 0  0.7545484949833259 0.15 0  0.7519732441472099 0.15 0  0.7493979933110939 0.15 0  0.7468227424749779 0.15 0  0.7442474916388619 0.15 0  0.741672240802746 0.15 0  0.73909698996663 0.15 0  0.736521739130514 0.15 0  0.733946488294398 0.15 0  0.7313712374582821 0.15 0  0.7287959866221662 0.15 0  0.7262207357860502 0.15 0  0.7236454849499342 0.15 0  0.7210702341138182 0.15 0  0.7184949832777022 0.15 0  0.7159197324415862 0.15 0  0.7133444816054703 0.15 0  0.7107692307693543 0.15 0  0.7081939799332383 0.15 0  0.7056187290971223 0.15 0  0.7030434782610063 0.15 0  0.7004682274248905 0.15 0  0.6978929765887745 0.15 0  0.6953177257526585 0.15 0  0.6927424749165425 0.15 0  0.6901672240804265 0.15 0  0.6875919732443105 0.15 0  0.6850167224081946 0.15 0  0.6824414715720786 0.15 0  0.6798662207359626 0.15 0  0.6772909698998466 0.15 0  0.6747157190637306 0.15 0  0.6721404682276146 0.15 0  0.6695652173914987 0.15 0  0.6669899665553827 0.15 0  0.6644147157192668 0.15 0  0.6618394648831508 0.15 0  0.6592642140470348 0.15 0  0.6566889632109189 0.15 0  0.6541137123748029 0.15 0  0.6515384615386869 0.15 0  0.6489632107025709 0.15 0  0.6463879598664549 0.15 0  0.6438127090303389 0.15 0  0.6412374581942317 0.15 0  0.6386622073581251 0.15 0  0.6360869565220184 0.15 0  0.6335117056859116 0.15 0  0.6309364548498024 0.15 0  0.6283612040136864 0.15 0  0.6257859531775705 0.15 0  0.6232107023414633 0.15 0  0.6206354515053566 0.15 0  0.6180602006692498 0.15 0  0.6154849498331432 0.15 0  0.612909698997034 0.15 0  0.6103344481609181 0.15 0  0.607759197324802 0.15 0  0.6051839464886948 0.15 0  0.602608695652588 0.15 0  0.6000334448164814 0.15
[...]
<PointData  Scalars="pressure"> 
<DataArray  type="Float64"  Name="pressure"  format="ascii">2.1743664333850411e+04  1.2215989753390473e+00  1.2207110418624514e+00  2.1743672567725389e+04  2.1649993922411559e+04  2.1553791816229706e+04  2.1467022104294505e+04  2.1382886471529164e+04  2.1292973033360922e+04  2.1208819051918043e+04  2.1124142124412883e+04  2.1039468560587989e+04  2.0952060942434749e+04  2.0870297793999456e+04  2.0778890304889042e+04  2.0694439208780495e+04  2.0613047804488040e+04  2.0526211306221208e+04  2.0443355607486010e+04  2.0354383837262154e+04  2.0273555955252206e+04  2.0188300130600441e+04  2.0100821135509352e+04  2.0017289096296594e+04  1.9930474698948659e+04  1.9847189521375934e+04  1.9762492504622787e+04  1.9675808329349231e+04  1.9596095268208082e+04  1.9509833690714284e+04  1.9420714601847121e+04  1.9333719416591233e+04  1.9253724501036810e+04  1.9166442398302235e+04  1.9084687665946913e+04  1.8995624543189486e+04  1.8912906464402651e+04  1.8829607621217776e+04  1.8740998067170007e+04  1.8656620373163420e+04  1.8573817602915406e+04  1.8485884644275691e+04  1.8404320549569733e+04  1.8319559779281819e+04  1.8234301002920020e+04  1.8147090732031833e+04  1.8066209450725222e+04  1.7977587440275263e+04  1.7891591811153368e+04  1.7810622169019793e+04  1.7724854409466516e+04  1.7640309990600512e+04  1.7553037721416189e+04  1.7471811967496531e+04  1.7382814294032996e+04  1.7301910527428034e+04  1.7218029443495514e+04  1.7128685555123495e+04  1.7047076325551305e+04  1.6959718894486505e+04  1.6874904876458466e+04  1.6790804568005453e+04  1.6707366055202787e+04  1.6619526172775288e+04  1.6535257949793850e+04  1.6451319453034172e+04  1.6367209744959297e+04  1.6282640915631922e+04  1.6196459754344945e+04  1.6112792069503172e+04  1.6028227359336890e+04  1.5942416955377845e+04  1.5854220152697862e+04  1.5772568216618009e+04  1.5686151427726680e+04  1.5602575729666145e+04  1.5519168981364719e+04  1.5432881546911412e+04  1.5346092401017677e+04  1.5263581966225151e+04  1.5179637114145648e+04  1.5091553714695527e+04  1.5011446272743215e+04  1.4923572897624208e+04  1.4835392546826099e+04  1.4754577091304041e+04  1.4669044317984879e+04  1.4584522143348499e+04  1.4497904302998713e+04  1.4416805773478292e+04  1.4329354690266058e+04  1.4242180923829814e+04  1.4159939257913569e+04  1.4076347386524038e+04  1.3988840962480510e+04  1.3907452470184764e+04  1.3819828130846956e+04  1.3735189691323736e+04  1.3647985968291068e+04  1.3567759645795697e+04  1.3480589159364310e+04  1.3395554406123432e+04  1.3311336784774314e+04  1.3227563022102253e+04  1.3143025841261464e+04  1.3054996297895412e+04  1.2973749554977134e+04  1.2889266208395436e+04  1.2804534054208052e+04  1.2716281452556466e+04  1.2632076611847580e+04  1.2545014343211844e+04  1.2464454740800877e+04  1.2376539186903326e+04  1.2292979870098996e+04  1.2208665638349114e+04  1.2121512731156208e+04  1.2041712226380840e+04  1.1954330576122651e+04  1.1866754578432352e+04  1.1786714938722465e+04  1.1699275621901515e+04  1.1613625097670352e+04  1.1531139846067335e+04  1.1441798719701508e+04  1.1360335082163729e+04  1.1273194402106832e+04  1.1189829952903547e+04  1.1102878770131134e+04  1.1018967103064535e+04  1.0934691413019775e+04  1.0849219955370956e+04  1.0768119004828472e+04  1.0680216496673562e+04  1.0594500234023330e+04  1.0508883619518831e+04  1.0425868291541356e+04  1.0340510259736906e+04  1.0255456522774226e+04  1.0171024676645526e+04  1.0085975190428775e+04  1.0001760185807772e+04  9.9201937654192025e+03  9.8331183404465100e+03  9.7456157577292415e+03  9.6633823802566003e+03  9.5736843771863769e+03  9.4947093376717112e+03  9.4076482199335260e+03  9.3190738305356026e+03  9.2356058700440826e+03  9.1546252377033761e+03  9.0652460706417405e+03  8.9841809179207685e+03  8.8992191684576828e+03  8.8113239496597143e+03  8.7312712224838124e+03  8.6444239549806789e+03  8.5564945747497950e+03  8.4752446786552628e+03  8.3868681409172295e+03  8.3040522630512114e+03  8.2198794864410702e+03  8.1322641575567504e+03  8.0521712439922840e+03  7.9650557085472547e+03  7.8775999131831104e+03  7.7954532452689273e+03  7.7094594040414040e+03  7.6248684339047395e+03  7.5412783840967604e+03  7.4569015040090426e+03  7.3694644109169276e+03  7.2866425094240285e+03  7.1975774462211903e+03  7.1168598099341389e+03  7.0306969222584821e+03  6.9460975542075312e+03  6.8621388154959959e+03  6.7782701486570613e+03  6.6904537252243845e+03  6.6057945722458981e+03  6.5225932871756040e+03  6.4400216577038109e+03  6.3521432485736323e+03  6.2650733191162581e+03  6.1845610617782713e+03  6.0952497845925809e+03  6.0113071598711340e+03  5.9305945762906504e+03  5.8411527065772771e+03  5.7591894177468030e+03  5.6715386310198728e+03  5.5857650852820016e+03  5.5029263388171321e+03  5.4199858459472543e+03  5.3354079499017107e+03  5.2465185605427687e+03  5.1651706693676924e+03  5.0769434260784046e+03  4.9949271940199924e+03  4.9072062759535329e+03  4.8266236588938991e+03  4.7398328510682977e+03  4.6520466969982845e+03  4.5696341994684281e+03  4.4832687954849598e+03  4.3995892410910592e+03  4.3171406174538979e+03  4.2266485091708464e+03  4.1425115148858149e+03  4.0612379203926057e+03  3.9739131682242378e+03  3.8890163359343214e+03  3.8031165832230113e+03  3.7224716855900278e+03  3.6330284994505851e+03  3.5484208140113960e+03  3.4648874998509382e+03  3.3802629813586868e+03  3.2931884302350409e+03  3.2131925578726609e+03  3.1270613717035176e+03  3.0384639947791861e+03  2.9515560635401366e+03  2.8709161550046229e+03  2.7835878641555487e+03  2.7021828283428608e+03  2.6146581925855426e+03  2.5261044063565769e+03  2.4447294363117180e+03  2.3564235773740652e+03  2.2727371337281047e+03  2.1891746705965529e+03  2.1011619759111645e+03  2.0183673364157657e+03  1.9269129175849323e+03  1.8324893584895490e+03  1.2762688078825399e+03  1.2210942099055887e+03  1.1646334113652792e+03  1.1061149410243793e+03  1.0494556472850848e+03  9.8795867135722813e+02  9.6344756849411624e+02  9.0942300736063942e+02  8.8853521544690955e+02  8.7333661149777265e+02  8.5798158897565327e+02  8.4244326756798921e+02  8.2651881326100010e+02  8.1120561935174680e+02  7.9511401216965919e+02  7.7971168622441871e+02  7.6358041397526722e+02  7.4697306735705399e+02  7.3134707221246526e+02  7.1617261914833182e+02  6.9985615548395049e+02  6.8408016688662008e+02  6.6812546976077067e+02  6.5252198272133023e+02  6.3609961399794486e+02  6.2036197928123136e+02  6.0444239330623077e+02  5.8877428816605027e+02  5.7294335317524724e+02  5.5658113853903978e+02  5.4085855153586294e+02  5.2500678999763545e+02  5.0918012257514090e+02  4.9276632826088593e+02  4.7764969882362220e+02  4.6123241161577613e+02  4.4538685475859211e+02  4.2930976759137332e+02  4.1415178047688664e+02  3.9732708738830388e+02  3.8217355990762661e+02  3.6574328321769246e+02  3.5017825864690150e+02  3.3379583952949986e+02  3.1836412801562238e+02  3.0236148895541766e+02  2.8640338708420535e+02  2.7074809701623207e+02  2.5448285177752132e+02  2.3921413156844733e+02  2.2281995573765212e+02  2.0683526689100250e+02  1.9085339056415319e+02  1.7580476472388793e+02  1.5952165050805533e+02  1.4294066946206632e+02  1.2776578999317894e+02  1.1121694191010620e+02  9.5151887054650601e+01  7.9995451440325496e+01  6.3571518154194926e+01  4.8106010269667330e+01  3.2399549060338934e+01  1.5557960008567974e+01  -3.3780174872643010e-01  6.3343893364993589e-02  -1.3434280263095238e-02  2.3452797957707995e-03  -5.5118434295106363e-04  4.1100143509574110e-04  -2.8185223300315933e-05  -2.1321113295388452e-04  6.5317460632335930e-05  7.0926578430471183e-05  -2.2017052600218963e-05  1.1692739394189592e-05  4.1944965713380767e-05  -2.9375165172875413e-05  5.4497945536528353e-06  -4.9898507107233471e-06  3.2073592631982357e-05  1.5023514549765878e-05  7.6078367924123796e-06  -8.4485777475200208e-07  3.0322853639214815e-05  -8.9030082986057377e-05  -3.3381999508368518e-05  3.1074805970948482e-04  -5.1636412926676554e-04  2.3503760452730947e-03  -1.3415352067712038e-02  6.3256623527030556e-02  -3.3759487149167722e-01  1.5545628780763492e+01  3.2372399040595049e+01  4.8055022742608109e+01  6.3468491672697105e+01  8.0028262105174406e+01  9.5589174490562556e+01  1.1115089029789402e+02  1.2719376204069759e+02  1.4334708302542248e+02  1.5854726915823792e+02  1.7557291946561614e+02  1.9132679300244544e+02  2.0650699425516626e+02  2.2271483716516832e+02  2.3823410785514790e+02  2.5488982245453059e+02  2.7004289759141744e+02  2.8576106168891590e+02  3.0245438582107016e+02  3.1809729469222464e+02  3.3378417960527355e+02  3.4961912174998145e+02  3.6539822545116760e+02  3.8162264113428347e+02  3.9671122739386828e+02  4.1295424458240939e+02  4.2944486599838604e+02  4.4515226494438417e+02  4.6085141732647662e+02  4.7672257195716105e+02  4.9237657342817488e+02  5.0814157888328117e+02  5.2493136727504816e+02  5.4024204631911050e+02  5.5595660425869926e+02  5.7200437310774782e+02  5.8763439328997242e+02  6.0334050486057004e+02  6.2006912527861346e+02  6.3493534574376895e+02  6.5116667999398442e+02  6.6763341145959669e+02  6.8277773616138631e+02  6.9942459533408419e+02  7.1518955579429860e+02  7.3038494806727329e+02  7.4651716617637408e+02  7.6229205251946473e+02  7.7861317661121393e+02  7.9385128933849251e+02  8.1031696075709715e+02  8.2599458753584111e+02  8.4172326387293799e+02  8.5852780711474429e+02  8.7382321213419993e+02  8.9058820446306288e+02  9.0778877831820967e+02  9.6288090857547047e+02  9.8646311623818531e+02  1.0511568397161275e+03  1.1114590526758427e+03  1.1704456424661007e+03  1.2292789204741018e+03  1.2838249412033447e+03  1.8537542831373435e+03  1.4165348967321124e+03  1.4661505395243666e+03  2.0971333905023316e+03  2.1865746867214853e+03  2.2762864925562135e+03  2.3610646993908881e+03  2.4475782484309907e+03  2.5333323132132600e+03  2.6174777383357732e+03  2.7042489755773113e+03  2.7852030355077281e+03  2.8710084162390713e+03  2.9609502710817992e+03  3.0452517703127542e+03  3.1258249131310267e+03  3.2138895657391936e+03  3.2979930850693395e+03  3.3813027438332538e+03  3.4677519920603131e+03  3.5514618898419067e+03  3.6349194173892679e+03  3.7199929599861252e+03  3.8093374161621127e+03  3.8900446075070845e+03  3.9768628619359274e+03  4.0621159825072073e+03  4.1466202357635220e+03  4.2309723367484294e+03  4.3165030753859319e+03  4.4005715983617620e+03  4.4876816526044895e+03  4.5680144276791616e+03  4.6518748290941294e+03  4.7405789996088943e+03  4.8275730847273981e+03  4.9076745189104995e+03  4.9939794547490146e+03  5.0778563190281557e+03  5.1657437168000533e+03  5.2506674196073054e+03  5.3337929536413403e+03  5.4170044228831894e+03  5.5051013955417939e+03  5.5886294412174720e+03  5.6735585616215540e+03  5.7565047194913304e+03  5.8444513859371518e+03  5.9304579281439455e+03  6.0134995989198515e+03  6.1002494280088795e+03  6.1819363798247477e+03  6.2686947151211325e+03  6.3497848128671067e+03  6.4371037602108054e+03  6.5240429995679769e+03  6.6079415847923328e+03  6.6905793354390271e+03  6.7780768340826844e+03  6.8625615257211884e+03  6.9432018333852920e+03  7.0319527028002958e+03  7.1148632908702184e+03  7.2025750883930759e+03  7.2868147513505664e+03  7.3714543652415914e+03  7.4517398829133499e+03  7.5386321530603591e+03  7.6273436907512869e+03  7.7085138555118419e+03  7.7932380230563158e+03  7.8816479563612984e+03  7.9657169765025264e+03  8.0518196884355639e+03  8.1331689749080751e+03  8.2221579492813908e+03  8.3025972604102135e+03  8.3891345984948493e+03  8.4727188387117312e+03  8.5592827100868799e+03  8.6433264140298070e+03  8.7295988766342962e+03  8.8150397738440515e+03  8.8985612599141914e+03  8.9817576367523525e+03  9.0709445735918525e+03  9.1524210375506082e+03  9.2353478872146043e+03  9.3200761770364461e+03  9.4099263457788475e+03  9.4943108649384121e+03  9.5758348146869430e+03  9.6617228182629151e+03  9.7464448160471911e+03  9.8320811760782981e+03  9.9176984093567698e+03  1.0001591018773290e+04  1.0084913638790867e+04  1.0173079844289752e+04  1.0253766075626845e+04  1.0342165887160822e+04  1.0429131418771825e+04  1.0511434912698178e+04  1.0596726991417981e+04  1.0682015327276460e+04  1.0765760558132075e+04  1.0849174615433471e+04  1.0933247632213857e+04  1.1020273797198077e+04  1.1101722358559515e+04  1.1190877962081133e+04  1.1275204394871460e+04  1.1359704902577982e+04  1.1446962701976283e+04  1.1528585005476916e+04  1.1613871856737775e+04  1.1698827242592268e+04  1.1782417304954901e+04  1.1867445861161392e+04  1.1954624362528217e+04  1.2035149463318068e+04  1.2121740285350641e+04  1.2206436266338347e+04  1.2293914355084731e+04  1.2377172245353186e+04  1.2465106346757306e+04  1.2549502957433671e+04  1.2630491467830243e+04  1.2717187081921840e+04  1.2798741690773642e+04  1.2889248132119481e+04  1.2973680467389366e+04  1.3054732473042999e+04  1.3142570707323401e+04  1.3227378602403607e+04  1.3312222440593932e+04  1.3393676118452348e+04  1.3483012151648320e+04  1.3565712519729539e+04  1.3650376783500811e+04  1.3734062134715943e+04  1.3818394604477042e+04  1.3906519538270049e+04  1.3990774559099949e+04  1.4076978469085052e+04  1.4157806416773274e+04  1.4245288747631441e+04  1.4329109221060320e+04  1.4414243946711953e+04  1.4499197991739868e+04  1.4583495539533209e+04  1.4670038378565359e+04  1.4753683265022977e+04  1.4837837070081361e+04  1.4923206033318516e+04  1.5010333599705336e+04  1.5093560833270900e+04  1.5177312198747113e+04  1.5261803059057502e+04  1.5350360720119194e+04  1.5434715912543130e+04  1.5515408189083459e+04  1.5602105001381062e+04  1.5686366574482861e+04  1.5771693527373580e+04  1.5856534983689524e+04  1.5944212260825501e+04  1.6029865560364091e+04  1.6110078668755041e+04  1.6196314609479570e+04  1.6280523952710082e+04  1.6368120169624270e+04  1.6452378283675971e+04  1.6536713478376751e+04  1.6620622186485616e+04  1.6702108823917868e+04  1.6791377512971128e+04  1.6878840479001025e+04  1.6959630581247482e+04  1.7046699484740206e+04  1.7132037490612151e+04  1.7214650482540746e+04  1.7299518951379756e+04  1.7387181510866005e+04  1.7466999978588752e+04  1.7556593332223900e+04  1.7638487873017635e+04  1.7724109234320233e+04  1.7810691701063930e+04  1.7894090895167337e+04  1.7978322248917706e+04  1.8066250936496570e+04  1.8146747879268900e+04  1.8234114490933138e+04  1.8319561860889833e+04  1.8404247030218066e+04  1.8485815415349905e+04  1.8573794365287777e+04  1.8656614130948808e+04  1.8740998317892765e+04  1.8829611806194156e+04  1.8912913065193130e+04  1.8995632554322437e+04  1.9084696698377978e+04  1.9166452002529801e+04  1.9253734434994105e+04  1.9333729500845559e+04  1.9420724722584167e+04  1.9509843764850801e+04  1.9596105244646045e+04  1.9675818180135801e+04  1.9762502195635425e+04  1.9847199045876616e+04  1.9930484056645018e+04  2.0017298281948013e+04  2.0100830162625738e+04  2.0188309001643076e+04  2.0273564686192673e+04  2.0354392449469058e+04  2.0443364103950709e+04  2.0526219710328824e+04  2.0613056128294626e+04  2.0694447472076074e+04  2.0778898522398958e+04  2.0870305976531148e+04  2.0952069105943829e+04  2.1039476716463978e+04  2.1124150282906659e+04  2.1208827218742346e+04  2.1292981214778967e+04  2.1382894669643189e+04  2.1467030317610494e+04  2.1553800041498707e+04  2.1650002156014703e+04  2.1724690161409097e+04  2.1719856205552129e+04  2.1717034489919588e+04  2.1715012100081447e+04  2.1713585640094829e+04  2.1712467618894152e+04  2.1711545307340581e+04  2.1710822074948432e+04  2.1710218951617731e+04  2.1709780273244087e+04  2.1709403632049791e+04  2.1709137753078765e+04  2.1708936188456850e+04  2.1708826006936080e+04  2.1708786935203421e+04  2.1708829916059251e+04  2.1708935802784341e+04  2.1709136372506156e+04  2.1709403064242870e+04  2.1709777710372782e+04  2.1710225690754596e+04  2.1710811364977690e+04  2.1711523020251727e+04  2.1712459095075366e+04  2.1713576860782683e+04  2.1715003539370606e+04  2.1717026112383715e+04  2.1719847920977496e+04  2.1724681916374138e+04  1.7280159884628486e+03  1.6493816279182327e+04  4.5221750514327778e+03  1.9199059438442742e+04  4.8531942651051793e+02  1.3526197147101831e+04  1.0969074528159512e+04  7.0672884923508873e+03  9.0346078917474042e+03  1.5002348396413998e+04  3.1209716276317095e+03  7.4733990897835554e+02  7.4532658728906404e+02  3.1093616583479461e+03  1.5086387729244687e+04  1.7833476934505528e+04  1.7845658857383045e+04  5.8176341213625528e+03  1.2247481934914173e+04  5.8014684299481578e+03  1.2250437782326191e+04  9.7361057716187079e+03  8.2230740166708893e+03  2.7770953625168863e+02  2.7431549919106862e+02  2.0227868635527178e+04  2.0222712435313606e+04  7.8385865862102373e+03  1.0212601100942313e+04  1.3885993541013291e+04  1.6184990768842388e+04  1.3825220223387265e+04  1.9527058173393641e+03  1.5245005317586981e+03  4.3138498854268482e+03  5.2526614345723794e+02  4.3173989924174784e+03  5.2463700993746284e+02  1.6265223392865004e+04  1.1057703379126304e+04  6.9939984508216348e+03  1.8953642762064079e+04  1.8944192566976741e+04  6.7817364763397363e+03  1.1263085981743649e+04  8.0995817966751274e+03  9.9727962821247565e+03  8.8046347126849250e+03  1.4517378875105913e+04  1.7118865361679993e+04  8.7719153699356207e+02  2.4279153414455582e+03  5.4828081971047077e+03  1.2562898324932485e+04  1.2984544166580959e+04  1.7443755854587107e+04  1.5532990553822887e+04  8.3246512715577364e+02  2.6701592894772994e+03  9.0187339608366801e+03  1.7153178693300171e+04  1.2934028119367986e+04  3.6135542548499170e+03  6.5728845112675026e+02  5.1608904355588056e+03  5.1629066817721832e+03  8.9566774614763435e+03  1.8314563727947640e+04  1.4647139963401396e+04  2.0235418572231225e+04  1.4666881089362994e+04  1.0266078598204404e+04  3.5061795517836258e+03  6.7191505034839122e+02  8.2502625119180050e+02  3.5301004251960576e+03  1.5520180230996750e+04  1.6969019759948489e+04  1.1796217882274461e+04  6.2288616849292885e+03  2.6849238200784698e+03  6.6662204349184549e+02  4.9896903597600367e+03  4.9750589341455516e+03  1.2713024028832547e+03  2.1819254206098781e+03  1.3070218588137279e+04  2.9788405065715079e+02  1.5465236975065020e+04  3.8937553809305126e+02  3.9191803470108795e+02  7.7233332647566385e+03  1.3064344327982481e+04  1.6976195069594261e+04  6.2815166738435546e+03  1.1773419243170807e+04  1.8114900874983625e+04  1.8091320814990700e+04  9.5889555797780449e+03  1.0508886545950643e+04  1.1490191830183552e+04  6.0224450434040355e+03  1.2007732487002850e+04  6.5303308345202158e+03  1.6609049470861103e+02  1.6620890654083985e+02  7.5123579136866474e+03  2.0823093659189635e+04  2.0823100983462860e+04  1.9640538586298997e+04  1.9640548765426374e+04  7.1908610789855948e+03  1.8590154850737596e+04  6.1372020478045124e+02  3.8483646768800604e+03  7.4352362347664866e+03  1.0628092702479869e+04  1.4289608099148010e+04  1.6016395946087172e+04  2.2128336296966909e+03  9.2126386984403518e+02  4.1263051859607179e+02  4.1459248111653557e+02  1.0775065949094494e+04  8.1515166108028807e+03  1.6014857693238151e+04  3.8230184028682720e+03  6.1672618823444691e+02  9.5361162364502106e+03  1.9500010775107610e+04  1.9502428027613329e+04  1.4000233422246591e+04  8.3569795687453388e+03  9.6187445811858361e+03  8.3564271956953653e+03  1.6512695525128191e+04  1.3589395362680414e+04  1.6258195835920048e+03  1.8362476380733037e+03  1.6581718948605416e+04  1.3545627922201060e+04  1.8518609686325555e+04  1.1600369036052867e+04  4.5556477688457417e+03  4.5677130324827358e+03  1.4457625664150492e+04  5.5798983397012580e+02  6.4401542528820337e+03  1.0856693527047188e+04  5.5310323491338704e+02  1.2378212281064621e+04  6.8322029913630777e+03  1.5594593976064136e+04  7.7758589477952000e+02  2.9570893088118332e+03  1.3673690199349494e+04  1.2041885365403135e+04  2.7839602174943980e+02  2.8097833243783145e+02  5.6863767423498321e+03  2.5606590440609880e+03  1.5665307838203118e+04  1.8698169292845603e+04  1.8705308302810510e+04  5.9827725757513936e+03  8.5557572717541279e+02  7.7406797424045126e+03  2.0239486489587274e+04  2.0239494879427646e+04  4.4038828185211760e+03  9.5467136195045859e+0