<?xml version="1.0"?>
<VTKFile type="UnstructuredGrid"  version="0.1"  >
<UnstructuredGrid>
<Piece  NumberOfPoints="8545" NumberOfCells="16538">
<Points>
<DataArray  type="Float64"  NumberOfComponents="3"  format="ascii">0 0 0  2 0 0  2 0.2 0  0 0.2 0  0.007999999999984813 0 0  0.01599999999996964 0 0  0.02399999999995461 0 0  0.03199999999993959 0 0  0.03999999999992457 0 0  0.04799999999990945 0 0  0.05599999999989373 0 0  0.06399999999987775 0 0  0.07199999999986065 0 0  0.07999999999984338 0 0  0.08799999999982558 0 0  0.09599999999980778 0 0  0.10399999999979 0 0  0.1119999999997726 0 0  0.1199999999997562 0 0  0.1279999999997408 0 0  0.1359999999997272 0 0  0.1439999999997141 0 0  0.1519999999997019 0 0  0.1599999999996896 0 0  0.1679999999996774 0 0  0.1759999999996651 0 0  0.1839999999996529 0 0  0.1919999999996407 0 0  0.1999999999996284 0 0  0.2079999999996162 0 0  0.2159999999996039 0 0  0.2239999999995916 0 0  0.2319999999995794 0 0  0.2399999999995652 0 0  0.2479999999995501 0 0  0.2559999999995309 0 0  0.2639999999995103 0 0  0.2719999999994875 0 0  0.2799999999994642 0 0  0.2879999999994408 0 0  0.2959999999994175 0 0  0.3039999999993941 0 0  0.3119999999993708 0 0  0.3199999999993474 0 0  0.3279999999993241 0 0  0.3359999999993007 0 0  0.3439999999992774 0 0  0.351999999999254 0 0  0.3599999999992307 0 0  0.3679999999992074 0 0  0.375999999999184 0 0  0.3839999999991606 0 0  0.3919999999991373 0 0  0.3999999999991139 0 0  0.4079999999990906 0 0  0.4159999999990672 0 0  0.4239999999990439 0 0  0.4319999999990204 0 0  0.4399999999989971 0 0  0.4479999999989738 0 0  0.4559999999989504 0 0  0.463999999998927 0 0  0.4719999999989037 0 0  0.4799999999988804 0 0  0.487999999998857 0 0  0.4959999999988337 0 0  0.5039999999988103 0 0  0.511999999998787 0 0  0.5199999999987636 0 0  0.5279999999987403 0 0  0.5359999999987169 0 0  0.5439999999986936 0 0  0.5519999999986703 0 0  0.559999999998647 0 0  0.5679999999986237 0 0  0.5759999999986004 0 0  0.583999999998577 0 0  0.5919999999985537 0 0  0.5999999999985304 0 0  0.6079999999985071 0 0  0.6159999999984838 0 0  0.6239999999984605 0 0  0.6319999999984371 0 0  0.6399999999984138 0 0  0.6479999999983904 0 0  0.6559999999983671 0 0  0.6639999999983438 0 0  0.6719999999983205 0 0  0.6799999999982972 0 0  0.6879999999982739 0 0  0.6959999999982506 0 0  0.7039999999982272 0 0  0.7119999999982038 0 0  0.7199999999981805 0 0  0.7279999999981572 0 0  0.7359999999981339 0 0  0.7439999999981106 0 0  0.7519999999980873 0 0  0.759999999998064 0 0  0.7679999999980406 0 0  0.7759999999980173 0 0  0.783999999997994 0 0  0.7919999999979707 0 0  0.7999999999979474 0 0  0.807999999997924 0 0  0.8159999999979007 0 0  0.8239999999978773 0 0  0.831999999997854 0 0  0.8399999999978307 0 0  0.8479999999978074 0 0  0.855999999997784 0 0  0.8639999999977607 0 0  0.8719999999977374 0 0  0.8799999999977141 0 0  0.8879999999976906 0 0  0.8959999999976673 0 0  0.903999999997644 0 0  0.9119999999976207 0 0  0.9199999999975974 0 0  0.9279999999975741 0 0  0.9359999999975508 0 0  0.9439999999975274 0 0  0.9519999999975041 0 0  0.9599999999974808 0 0  0.9679999999974574 0 0  0.9759999999974341 0 0  0.9839999999974108 0 0  0.9919999999973981 0 0  0.9999999999973858 0 0  1.007999999997396 0 0  1.015999999997406 0 0  1.023999999997427 0 0  1.031999999997449 0 0  1.039999999997469 0 0  1.04799999999749 0 0  1.055999999997512 0 0  1.063999999997533 0 0  1.071999999997554 0 0  1.079999999997575 0 0  1.087999999997596 0 0  1.095999999997617 0 0  1.103999999997638 0 0  1.111999999997659 0 0  1.11999999999768 0 0  1.127999999997702 0 0  1.135999999997722 0 0  1.143999999997744 0 0  1.151999999997765 0 0  1.159999999997786 0 0  1.167999999997807 0 0  1.175999999997828 0 0  1.183999999997849 0 0  1.19199999999787 0 0  1.199999999997891 0 0  1.207999999997912 0 0  1.215999999997933 0 0  1.223999999997955 0 0  1.231999999997976 0 0  1.239999999997997 0 0  1.247999999998018 0 0  1.255999999998039 0 0  1.26399999999806 0 0  1.271999999998081 0 0  1.279999999998102 0 0  1.287999999998123 0 0  1.295999999998144 0 0  1.303999999998166 0 0  1.311999999998186 0 0  1.319999999998208 0 0  1.327999999998229 0 0  1.33599999999825 0 0  1.343999999998271 0 0  1.351999999998292 0 0  1.359999999998313 0 0  1.367999999998334 0 0  1.375999999998355 0 0  1.383999999998376 0 0  1.391999999998397 0 0  1.399999999998418 0 0  1.40799999999844 0 0  1.41599999999846 0 0  1.423999999998482 0 0  1.431999999998503 0 0  1.439999999998524 0 0  1.447999999998545 0 0  1.455999999998566 0 0  1.463999999998587 0 0  1.471999999998608 0 0  1.479999999998629 0 0  1.48799999999865 0 0  1.495999999998672 0 0  1.503999999998693 0 0  1.511999999998714 0 0  1.519999999998735 0 0  1.527999999998756 0 0  1.535999999998777 0 0  1.543999999998798 0 0  1.551999999998819 0 0  1.55999999999884 0 0  1.567999999998861 0 0  1.575999999998882 0 0  1.583999999998904 0 0  1.591999999998924 0 0  1.599999999998946 0 0  1.607999999998967 0 0  1.615999999998988 0 0  1.623999999999009 0 0  1.63199999999903 0 0  1.639999999999051 0 0  1.647999999999072 0 0  1.655999999999093 0 0  1.663999999999114 0 0  1.671999999999136 0 0  1.679999999999157 0 0  1.687999999999177 0 0  1.695999999999199 0 0  1.70399999999922 0 0  1.711999999999241 0 0  1.719999999999262 0 0  1.727999999999283 0 0  1.735999999999304 0 0  1.743999999999325 0 0  1.751999999999346 0 0  1.759999999999367 0 0  1.767999999999389 0 0  1.775999999999409 0 0  1.783999999999431 0 0  1.791999999999452 0 0  1.799999999999473 0 0  1.807999999999494 0 0  1.815999999999515 0 0  1.823999999999536 0 0  1.831999999999557 0 0  1.839999999999578 0 0  1.847999999999599 0 0  1.85599999999962 0 0  1.863999999999641 0 0  1.871999999999663 0 0  1.879999999999684 0 0  1.887999999999705 0 0  1.895999999999726 0 0  1.903999999999747 0 0  1.911999999999768 0 0  1.919999999999789 0 0  1.92799999999981 0 0  1.935999999999831 0 0  1.943999999999853 0 0  1.951999999999873 0 0  1.959999999999895 0 0  1.967999999999916 0 0  1.975999999999937 0 0  1.983999999999958 0 0  1.991999999999979 0 0  2 0.007999999999985056 0  2 0.01599999999997076 0  2 0.02399999999995914 0  2 0.03199999999993772 0  2 0.03999999999991205 0  2 0.04799999999988908 0  2 0.05599999999986612 0  2 0.06399999999984315 0  2 0.07199999999982019 0  2 0.07999999999979179 0  2 0.08799999999976883 0  2 0.09599999999974587 0  2 0.1039999999997452 0  2 0.1119999999997669 0  2 0.1199999999997886 0  2 0.1279999999998103 0  2 0.135999999999832 0  2 0.1439999999998537 0  2 0.1519999999998738 0  2 0.1599999999998949 0  2 0.1679999999999159 0  2 0.175999999999937 0  2 0.183999999999958 0  2 0.191999999999979 0  1.991999999999967 0.2 0  1.983999999999933 0.2 0  1.9759999999999 0.2 0  1.967999999999867 0.2 0  1.959999999999834 0.2 0  1.9519999999998 0.2 0  1.943999999999767 0.2 0  1.935999999999734 0.2 0  1.9279999999997 0.2 0  1.919999999999667 0.2 0  1.911999999999634 0.2 0  1.9039999999996 0.2 0  1.895999999999567 0.2 0  1.887999999999534 0.2 0  1.879999999999501 0.2 0  1.871999999999467 0.2 0  1.863999999999434 0.2 0  1.855999999999401 0.2 0  1.847999999999367 0.2 0  1.839999999999334 0.2 0  1.831999999999301 0.2 0  1.823999999999268 0.2 0  1.815999999999234 0.2 0  1.807999999999201 0.2 0  1.799999999999168 0.2 0  1.791999999999135 0.2 0  1.783999999999101 0.2 0  1.775999999999068 0.2 0  1.767999999999035 0.2 0  1.759999999999017 0.2 0  1.751999999999006 0.2 0  1.743999999999028 0.2 0  1.735999999999061 0.2 0  1.727999999999112 0.2 0  1.719999999999168 0.2 0  1.711999999999223 0.2 0  1.703999999999279 0.2 0  1.695999999999334 0.2 0  1.68799999999939 0.2 0  1.679999999999446 0.2 0  1.671999999999501 0.2 0  1.663999999999557 0.2 0  1.655999999999612 0.2 0  1.647999999999668 0.2 0  1.639999999999723 0.2 0  1.631999999999779 0.2 0  1.623999999999834 0.2 0  1.61599999999989 0.2 0  1.607999999999945 0.2 0  1.600000000000001 0.2 0  1.592000000000056 0.2 0  1.584000000000112 0.2 0  1.576000000000167 0.2 0  1.568000000000223 0.2 0  1.560000000000279 0.2 0  1.552000000000334 0.2 0  1.54400000000039 0.2 0  1.536000000000445 0.2 0  1.528000000000501 0.2 0  1.520000000000556 0.2 0  1.512000000000612 0.2 0  1.504000000000667 0.2 0  1.496000000000723 0.2 0  1.488000000000778 0.2 0  1.480000000000834 0.2 0  1.472000000000889 0.2 0  1.464000000000945 0.2 0  1.456000000001 0.2 0  1.448000000001056 0.2 0  1.440000000001112 0.2 0  1.432000000001167 0.2 0  1.424000000001223 0.2 0  1.416000000001278 0.2 0  1.408000000001334 0.2 0  1.400000000001389 0.2 0  1.392000000001445 0.2 0  1.3840000000015 0.2 0  1.376000000001556 0.2 0  1.368000000001611 0.2 0  1.360000000001667 0.2 0  1.352000000001722 0.2 0  1.344000000001778 0.2 0  1.336000000001833 0.2 0  1.328000000001889 0.2 0  1.320000000001944 0.2 0  1.312000000002 0.2 0  1.304000000002055 0.2 0  1.296000000002111 0.2 0  1.288000000002166 0.2 0  1.280000000002222 0.2 0  1.272000000002277 0.2 0  1.264000000002333 0.2 0  1.256000000002388 0.2 0  1.248000000002444 0.2 0  1.240000000002499 0.2 0  1.232000000002555 0.2 0  1.22400000000261 0.2 0  1.216000000002666 0.2 0  1.208000000002721 0.2 0  1.200000000002777 0.2 0  1.192000000002832 0.2 0  1.184000000002888 0.2 0  1.176000000002943 0.2 0  1.168000000002999 0.2 0  1.160000000003054 0.2 0  1.15200000000311 0.2 0  1.144000000003165 0.2 0  1.136000000003221 0.2 0  1.128000000003276 0.2 0  1.120000000003332 0.2 0  1.112000000003387 0.2 0  1.104000000003443 0.2 0  1.096000000003498 0.2 0  1.088000000003554 0.2 0  1.080000000003609 0.2 0  1.072000000003665 0.2 0  1.06400000000372 0.2 0  1.056000000003776 0.2 0  1.048000000003831 0.2 0  1.040000000003887 0.2 0  1.032000000003942 0.2 0  1.024000000003998 0.2 0  1.016000000004053 0.2 0  1.008000000004088 0.2 0  1.000000000004121 0.2 0  0.99200000000411 0.2 0  0.984000000004098 0.2 0  0.9760000000040647 0.2 0  0.9680000000040314 0.2 0  0.9600000000039981 0.2 0  0.9520000000039648 0.2 0  0.9440000000039312 0.2 0  0.9360000000038982 0.2 0  0.928000000003864
[...]
<PointData  Scalars="pressure"> 
<DataArray  type="Float64"  Name="pressure"  format="ascii">3.1645141908869016e-03  5.8040706273755658e-08  5.6377762173832893e-08  3.1645215399649738e-03  3.1519208863359191e-03  3.1392684812777240e-03  3.1265780196509272e-03  3.1139642112174466e-03  3.1012462350541526e-03  3.0886033764275177e-03  3.0759499156385560e-03  3.0633261231045733e-03  3.0506321467784437e-03  3.0379678108512875e-03  3.0253182009981586e-03  3.0126509224448206e-03  3.0000154468565548e-03  2.9873243574279123e-03  2.9746956948697809e-03  2.9620239063070548e-03  2.9493632082423231e-03  2.9367089165097848e-03  2.9240705173758899e-03  2.9113828764914958e-03  2.8987104867583277e-03  2.8861036787683494e-03  2.8734063363854913e-03  2.8607747626925232e-03  2.8480909819169446e-03  2.8354370835179210e-03  2.8227736505584754e-03  2.8101560865501666e-03  2.7974603712770016e-03  2.7847989336155605e-03  2.7721650453038735e-03  2.7594861287156243e-03  2.7468511975248548e-03  2.7342076112321046e-03  2.7214537372494008e-03  2.7088818519505715e-03  2.6961882886664150e-03  2.6835940353051126e-03  2.6708608260725942e-03  2.6582119851487657e-03  2.6455781285517291e-03  2.6329370958252623e-03  2.6202563793150942e-03  2.6076114051674371e-03  2.5949047620197840e-03  2.5822924635548186e-03  2.5696086495145326e-03  2.5569651421617134e-03  2.5443191093134886e-03  2.5316269371764423e-03  2.5189943718177195e-03  2.5063259670634786e-03  2.4936804207228353e-03  2.4809969495623043e-03  2.4683689227762771e-03  2.4556851891998710e-03  2.4430581328127731e-03  2.4303900969327909e-03  2.4177264101630518e-03  2.4050195929849081e-03  2.3924385239726758e-03  2.3797561728526383e-03  2.3670719769272471e-03  2.3544375466731178e-03  2.3417692083264360e-03  2.3291234186678402e-03  2.3164400264101743e-03  2.3038154508027054e-03  2.2911224852872683e-03  2.2785022133796568e-03  2.2658318513244674e-03  2.2531802698341707e-03  2.2404606854815518e-03  2.2278823246235074e-03  2.2151984257191230e-03  2.2025145725845002e-03  2.1898802695561382e-03  2.1772120062668564e-03  2.1645664658814599e-03  2.1518830372282798e-03  2.1392550382853389e-03  2.1265713302829744e-03  2.1139442926531356e-03  2.1012762702112861e-03  2.0886125937980291e-03  2.0759057844200396e-03  2.0633247222735054e-03  2.0506423778993386e-03  2.0379581885700579e-03  2.0253237708733603e-03  2.0126554011275517e-03  2.0000097812073784e-03  1.9873262884707804e-03  1.9746982547767925e-03  1.9620144155658172e-03  1.9493878770072181e-03  1.9367174360036482e-03  1.9240589627113774e-03  1.9113489770986956e-03  1.8987661995644100e-03  1.8860862687891204e-03  1.8734084417464144e-03  1.8607754411943864e-03  1.8480813154711608e-03  1.8354533504908262e-03  1.8227846647965755e-03  1.8101025616142315e-03  1.7974911581332567e-03  1.7848128267836574e-03  1.7721616471272977e-03  1.7594637767330346e-03  1.7468683663681250e-03  1.7341860154126778e-03  1.7214790499237695e-03  1.7089113556674345e-03  1.6961627831504273e-03  1.6835441774692914e-03  1.6709281831998723e-03  1.6582149980638825e-03  1.6455601085514024e-03  1.6329456318262925e-03  1.6202271150811340e-03  1.6076128710676885e-03  1.5949354786005631e-03  1.5822721103711176e-03  1.5696214159651421e-03  1.5569822408332342e-03  1.5442936401954433e-03  1.5316533692361553e-03  1.5189712288751090e-03  1.5063557624406284e-03  1.4936574306589877e-03  1.4810303232957564e-03  1.4683365065532091e-03  1.4556893580762482e-03  1.4430725799435210e-03  1.4303611295504164e-03  1.4177186856336108e-03  1.4050521484941392e-03  1.3924314420307427e-03  1.3797375977529678e-03  1.3670750842976474e-03  1.3544821022775742e-03  1.3417367982161781e-03  1.3291218400800313e-03  1.3164434028238921e-03  1.3037815193090694e-03  1.2911835004025638e-03  1.2784522857360418e-03  1.2658129913146621e-03  1.2531455188112288e-03  1.2405375057955206e-03  1.2278295357478562e-03  1.2152036768805865e-03  1.2025327018284500e-03  1.1898792789517192e-03  1.1772104856386375e-03  1.1645684718850319e-03  1.1518826078815022e-03  1.1392212729156004e-03  1.1266266465837721e-03  1.1138941445035869e-03  1.1012562572807786e-03  1.0885888309217907e-03  1.0759806696594798e-03  1.0632721435188442e-03  1.0506443702811058e-03  1.0379748678572070e-03  1.0253240218699112e-03  1.0126555454332189e-03  1.0000176041703246e-03  9.8732638972181034e-04  9.7466530564082839e-04  9.6206917818951010e-04  9.4933731558645299e-04  9.3669925525920953e-04  9.2403083609893960e-04  9.1142334420633484e-04  8.9871512910954143e-04  8.8608660863991431e-04  8.7341748620560554e-04  8.6076674740600905e-04  8.4809828247511788e-04  8.3546049459031727e-04  8.2276932000214338e-04  8.1010830482510388e-04  7.9751228403695921e-04  7.8478027257410435e-04  7.7214254222918719e-04  7.5947402845839916e-04  7.4686633254095322e-04  7.3415907304285233e-04  7.2153179583779668e-04  7.0886124677714470e-04  6.9620800963427268e-04  6.8353933635925896e-04  6.7089756660275272e-04  6.5821174449532825e-04  6.4555022391199935e-04  6.3295580133152895e-04  6.2022269438068763e-04  6.0758589702981588e-04  5.9491661344258148e-04  5.8230753057727624e-04  5.6964093804400386e-04  5.5693937017578900e-04  5.4430441382787703e-04  5.3161995494928555e-04  5.1901734224305939e-04  5.0633248070345021e-04  4.9366875647527332e-04  4.8098445658591301e-04  4.6835850644290063e-04  4.5571789134733661e-04  4.4303974391942861e-04  4.3039345449352300e-04  4.1770311218200203e-04  4.0508974391676491e-04  3.9238867518690522e-04  3.7975330958908503e-04  3.6707864924986748e-04  3.5443707493647069e-04  3.4179017181535780e-04  3.2911762456679203e-04  3.1645373571992765e-04  3.0378009779835966e-04  2.9112946372599299e-04  2.7851103357599984e-04  2.6581538727889095e-04  2.5315794741734304e-04  2.4055164888524969e-04  2.2781382818647621e-04  2.1523471245245857e-04  2.0248003457896331e-04  1.8987317796876236e-04  1.7724988059966291e-04  1.6455834619211616e-04  1.5192012868599873e-04  1.3918604900641575e-04  1.2661834178753428e-04  1.1390725772802166e-04  1.0123745769607426e-04  8.8635531545995351e-05  7.5960832234878435e-05  6.3309834835887608e-05  5.0588252813706084e-05  3.8009664988290007e-05  2.5285472746891424e-05  1.2671459154312733e-05  6.1134666098573064e-10  1.0514302215409224e-08  -8.3745485376100840e-10  7.7155286390485550e-11  -4.1205788248613475e-09  -1.4586166977092505e-09  -1.0544398464923376e-09  -1.0773916476076047e-09  -2.1980213859268611e-10  -3.9603437455849152e-11  -4.3162449491896659e-11  1.7611483180720150e-11  -1.0975347302117288e-11  2.5388841426541304e-11  1.7428655137811092e-11  1.4745985194811504e-10  -6.7581210173704177e-10  -3.2220753045316338e-10  -2.7384659757150822e-09  -4.4725141370364631e-09  5.6058341496611212e-10  -4.1336530340109001e-09  9.7916024127827098e-09  8.1359767049170048e-10  1.2671925885063698e-05  2.5302571656240929e-05  3.7998795168940612e-05  5.0595258202866598e-05  6.3306900915730764e-05  7.5960178611064603e-05  8.8636871060960269e-05  1.0123800816831869e-04  1.1390872163172037e-04  1.2662008777667208e-04  1.3918039942830771e-04  1.5191507002952851e-04  1.6456456339949851e-04  1.7725048588215940e-04  1.8987463492549619e-04  2.0247114336713513e-04  2.1523381452782093e-04  2.2781365439843783e-04  2.4055376690393585e-04  2.5313494813186834e-04  2.6581665046143926e-04  2.7851761901482295e-04  2.9112780677846822e-04  3.0378125020027953e-04  3.1645163460042899e-04  3.2911935957833310e-04  3.4178984937106735e-04  3.5443640483218207e-04  3.6707798505800668e-04  3.7975381723346128e-04  3.9238758992349179e-04  4.0509022472130936e-04  4.1770323260974278e-04  4.3039368425387269e-04  4.4304239242025687e-04  4.5571570585657754e-04  4.6835414899699376e-04  4.8098862338849042e-04  4.9366795053391291e-04  5.0633227277507853e-04  5.1901667881554107e-04  5.3162699348097934e-04  5.4430193003775370e-04  5.5694010526749385e-04  5.6964004873979535e-04  5.8230886001085357e-04  5.9491335699538624e-04  6.0758459889147308e-04  6.2022925839995131e-04  6.3295388060974778e-04  6.4555085112100294e-04  6.5821141870737250e-04  6.7089856955108767e-04  6.8354153568689607e-04  6.9620834362735219e-04  7.0885165904511409e-04  7.2153931881885065e-04  7.3416813051978725e-04  7.4685903936887697e-04  7.5947752327191673e-04  7.7214320983152117e-04  7.8477893696262139e-04  7.9751245939131612e-04  8.1010706395604978e-04  8.2276987716696796e-04  8.3545724337654717e-04  8.4809916557035425e-04  8.6076518053633316e-04  8.7340911107431295e-04  8.8609669907713229e-04  8.9872497183520980e-04  9.1141528565573881e-04  9.2403333135842919e-04  9.3669925363604417e-04  9.4933694699520801e-04  9.6206908595095216e-04  9.7466408240879710e-04  9.8732673786928321e-04  1.0000142128612148e-03  1.0126560906817989e-03  1.0253220994898250e-03  1.0379660556650561e-03  1.0506537083124258e-03  1.0632824664330064e-03  1.0759722253123668e-03  1.0885919083472306e-03  1.1012570382979065e-03  1.1138974011286437e-03  1.1266254660255832e-03  1.1392215375355768e-03  1.1518823749252548e-03  1.1645695113638723e-03  1.1772125110536453e-03  1.1898793500852748e-03  1.2025226730981605e-03  1.2152103064086263e-03  1.2278391468994307e-03  1.2405301387896838e-03  1.2531487172388791e-03  1.2658144162163590e-03  1.2784502158337419e-03  1.2911838680776315e-03  1.3037759773527648e-03  1.3164394705399889e-03  1.3291266461077887e-03  1.3417698899849857e-03  1.3544363429393868e-03  1.3670801456593085e-03  1.3797676967513104e-03  1.3923957315811659e-03  1.4050860222020150e-03  1.4177040591732146e-03  1.4303693041847370e-03  1.4430305980269067e-03  1.4557080199419301e-03  1.4683297669933388e-03  1.4810528812134263e-03  1.4936349537860013e-03  1.5063562349518791e-03  1.5190091129412655e-03  1.5315990587554524e-03  1.5443381849093586e-03  1.5569319012412139e-03  1.5696145111271118e-03  1.5822976523076344e-03  1.5949505827460536e-03  1.6075883304212176e-03  1.6202319622624761e-03  1.6329053823932853e-03  1.6455810249687173e-03  1.6582498115753699e-03  1.6708666433614520e-03  1.6835403480663373e-03  1.6961815460386804e-03  1.7088953685459631e-03  1.7214837017606299e-03  1.7341971244790773e-03  1.7468253091701131e-03  1.7594867245376384e-03  1.7721534876800969e-03  1.7848351323609653e-03  1.7974557697832377e-03  1.8101413034369450e-03  1.8227687969707012e-03  1.8354527756771028e-03  1.8481013714998161e-03  1.8607672029472904e-03  1.8733995991528031e-03  1.8860839294379702e-03  1.8987683112584807e-03  1.9113502718118890e-03  1.9240580242755718e-03  1.9367122119887490e-03  1.9493919398730411e-03  1.9620022788387316e-03  1.9747058856190180e-03  1.9873378607289183e-03  2.0000037563808496e-03  2.0126548126785239e-03  2.0253243751013929e-03  2.0379567269005225e-03  2.0506409113620274e-03  2.0633253769778647e-03  2.0759080041244486e-03  2.0886140169111265e-03  2.1012681868585225e-03  2.1139498945573925e-03  2.1265591612965227e-03  2.1392629910163574e-03  2.1518949336213687e-03  2.1645606598409031e-03  2.1772116524219707e-03  2.1898813566068520e-03  2.2025123098308331e-03  2.2151985742461027e-03  2.2278820616878771e-03  2.2404642373526130e-03  2.2531732736859153e-03  2.2658261155170355e-03  2.2785055719509004e-03  2.2911259656570398e-03  2.3038122772628821e-03  2.3164398385443811e-03  2.3291230522964270e-03  2.3417694392175903e-03  2.3544374811618348e-03  2.3670717871195198e-03  2.3797559972691686e-03  2.3924385989622342e-03  2.4050215185693088e-03  2.4177288916556162e-03  2.4303832437994675e-03  2.4430627491689458e-03  2.4556734088356921e-03  2.4683768586896294e-03  2.4810086695020920e-03  2.4936745140363525e-03  2.5063243925919926e-03  2.5189955449759350e-03  2.5316270503330861e-03  2.5443119047516868e-03  2.5569962308191179e-03  2.5695792231562281e-03  2.5822853463033039e-03  2.5949396761396981e-03  2.6076232928329240e-03  2.6202471118324249e-03  2.6328857649758402e-03  2.6455832211047356e-03  2.6582255332431347e-03  2.6709170351156240e-03  2.6835260797254024e-03  2.6961927336229302e-03  2.7088582118946960e-03  2.7215364405416775e-03  2.7341554184469575e-03  2.7468739455459856e-03  2.7594699663897842e-03  2.7721618935563916e-03  2.7848074108157623e-03  2.7974660318737577e-03  2.8101042264905419e-03  2.8227974625952786e-03  2.8354720187578107e-03  2.8480973543071621e-03  2.8607481336863539e-03  2.8734177786551122e-03  2.8860967084209390e-03  2.8987109749177391e-03  2.9114128094951718e-03  2.9240423600242257e-03  2.9367245923098465e-03  2.9493168451807561e-03  2.9620477437780359e-03  2.9746853218596140e-03  2.9873367553542355e-03  3.0000346780682638e-03  3.0126434045312468e-03  3.0253306586624437e-03  3.0379254263106538e-03  3.0506640310313626e-03  3.0633048763074435e-03  3.0759508708761577e-03  3.0885835648024329e-03  3.1012972698842350e-03  3.1139249909410438e-03  3.1266044005606097e-03  3.1392716685526801e-03  3.1519057521529580e-03  3.1645527296559786e-03  3.1645533706498880e-03  3.1645601618622743e-03  3.1645588485763655e-03  3.1645579747742241e-03  3.1645584856348080e-03  3.1645572671832227e-03  3.1645564355219321e-03  3.1645565973261775e-03  3.1645569911298672e-03  3.1645569207429973e-03  3.1645569727775137e-03  3.1645569486714116e-03  3.1645569619223844e-03  3.1645570399298929e-03  3.1645570367106485e-03  3.1645576376383064e-03  3.1645575004363080e-03  3.1645572231349148e-03  3.1645572368036150e-03  3.1645566453895363e-03  3.1645586374892225e-03  3.1645530270095088e-03  3.1645542024869894e-03  4.7496853315113200e-04  6.3924177043697542e-04  8.0573550337643778e-04  9.6804064894021676e-04  1.1329128037548125e-03  1.2974697630225866e-03  1.4612612791601606e-03  2.7283468447753443e-03  2.5631248987535915e-03  2.9936726703072916e-03  2.3985679009132597e-03  2.2342949572084379e-03  2.0694541204617995e-03  1.9059220218077657e-03  1.7405078596422117e-03  1.5905356889966347e-04  3.1645731616026341e-04  1.6018152443792032e-03  2.8605293604142385e-03  5.5653407623010407e-04  7.2142452379420790e-04  8.8598272394068767e-04  1.0506341574878894e-03  1.2153564605697999e-03  1.3797487735144648e-03  2.6462472896811831e-03  2.4789776572581115e-03  2.3144207851353172e-03  2.1498637836228716e-03  1.9853068853945073e-03  1.8236081829077517e-03  1.3784657753538774e-03  1.2169067252784552e-03  1.0508221624354775e-03  1.8227858687812064e-03  1.9867668137678184e-03  8.8627928511707255e-04  7.2353740862229801e-04  2.1514663428859222e-03  2.3164570570636559e-03  2.4811478580749852e-03  5.5716522646766600e-04  2.6476375159301016e-03  2.3873281301062856e-04  2.3653936958393786e-04  3.9305282928719546e-04  3.9788282877706961e-04  2.9165275899783608e-03  2.8057253948032697e-03  1.5397157755576969e-03  1.6620208074009438e-03  3.0678575209783744e-03  3.0680396004703551e-03  9.0319495733763081e-05  9.2654104460721592e-05  1.6782133984583223e-03  1.5241512922339155e-03  2.9373355831846413e-03  2.7820487503905649e-03  4.7467839817361964e-04  6.3924320093622724e-04  8.0422158960536359e-04  9.6964963343049528e-04  1.1329143074178486e-03  1.2974728647283447e-03  1.4620289249641779e-03  2.5602658817699179e-03  2.3957086883287298e-03  2.2311512818559351e-03  2.0665948643197041e-03  1.9050677551872874e-03  1.2947448971823473e-03  1.1302351800390889e-03  9.6626699171659699e-04  8.0107381757989692e-04  6.3656433242977354e-04  4.7518038947358773e-04  1.7387325898928800e-03  1.9050619103649137e-03  2.0719203935872623e-03  2.2364768192096357e-03  2.3987361540826588e-03  2.5655912586688883e-03  2.7269856038745635e-03  3.1276634282728725e-04  3.1295334784015114e-04  2.9920303020301527e-03  1.7526813381626720e-03  1.4515066812763862e-03  1.6587656298495119e-04  1.6587745291471044e-04  2.7135432162475035e-03  1.5896540392692938e-03  6.9317298620147612e-05  3.0030195645981473e-03  1.6015081826128317e-03  3.0970021454743042e-03  2.8750647242289295e-03  2.9291525310176192e-03  2.7936075473670510e-03  1.6658990591036397e-03  1.5269220410352377e-03  2.8612841428703501e-03  4.1285362738506602e-04  2.1984893530896889e-04  5.7785569124993159e-04  1.4008480898069827e-03  9.0696978647791966e-04  1.1942990785452105e-03  1.0715267538884260e-03  7.0043334065228165e-04  1.8021799446721594e-03  2.6665285662214543e-03  2.5008761522553984e-03  2.3354291827975084e-03  2.1722016421918807e-03  2.0078670647165663e-03  2.8619761184233644e-03  3.1083863887120147e-03  3.1081401911726030e-03  1.7912104977803190e-03  1.9568709649989522e-03  1.2455275731945443e-03  2.1215276976769312e-03  2.2859852723898936e-03  1.0827435981350683e-03  2.4506411822817018e-03  9.1826923914651616e-04  2.6151975936510169e-03  7.5454093585428930e-04  5.8775725604487471e-04  7.5182112507363391e-04  5.8897989219065295e-04  6.9138236877063300e-04  5.2365530258544058e-04  9.1809283737067455e-04  1.0826515579928141e-03  8.5292719776762179e-04  1.0174840656443020e-03  1.2452340079078946e-03  1.1850534463819042e-03  1.4117644181572547e-03  1.3465967323716074e-03  2.6123469039336729e-03  2.4474378314889200e-03  2.5111480208909478e-03  2.2828805356321963e-03  2.3465911442871329e-03  2.1183239832192691e-03  1.9537674359940134e-03  2.1820341267143216e-03  2.0174773497995771e-03  1.8548868658229125e-03  5.2618128115974145e-04  6.9070560913103067e-04  2.6776777808902004e-03  8.5413280258778948e-04  2.5118236498076160e-03  2.3465911445972876e-03  1.0186899162591859e-03  2.1836904316644332e-03  1.1833959174027404e-03  2.0181515388127437e-03  1.3476390209271973e-03  1.8556644279938603e-03  1.5924654172802190e-03  3.6308520560848501e-04  3.6318492481578272e-04  5.4235127110670024e-05  5.5040134953520305e-05  4.2638993531154165e-04  4.2638976885754810e-04  2.7764833833046629e-03  1.5103862146241484e-03  1.6927192615570016e-03  2.9436647203769767e-03  2.6602999245234956e-04  2.6695657659954279e-04  1.9563983939610281e-03  1.8555435948566139e-03  2.1212071730723836e-03  2.2857640870237025e-03  2.4484165219155235e-03  2.6129733599188523e-03  7.5386464514840337e-04  1.0184038756349916e-03  5.2480441692011846e-04  8.5502717429037061e-04  1.2475355667249852e-03  1.3496332234144838e-03  3.0443601978193710e-03  3.0375346354365503e-03  1.6416938688619592e-03  1.7991411009672137e-03  1.4021922041724127e-03  2.8243216127575325e-03  2.1220207023189052e-04  2.1250578203156886e-04  2.6659238182552354e-03  1.2628908737246764e-03  7.6921986557273211e-04  2.5962310706567288e-03  2.4316740133339919e-03  2.2677694543940625e-03  2.1025601747328730e-03  1.9361386241487782e-03  1.8714735938654310e-03  5.0936215443379254e-04  8.3837799328220341e-04  1.0028148870745135e-03  1.3320489228280433e-03  2.6825912566939874e-04  3.6303823953375697e-04  3.4784258365027813e-04  2.7595300273282903e-03  1.2135621388128613e-04  1.2153413614784422e-04  1.4928878458448413e-03  1.7073941173518083e-03  2.8356891520302696e-04  2.9609598981572395e-03  1.7079718965974640e-03  1.4945721256866200e-03  3.0228146406845510e-03  1.7735509356037941e-03  1.0989464022594280e-03  9.3436754808520696e-04  6.0527512129533408e-04  1.4277001748593126e-03  1.0956213094032025e-03  9.3114265711613791e-04  1.1658919081772138e-03  6.0195023151053879e-04  6.7337439518253656e-04  2.0352951155328202e-03  2.1998511031193751e-03  2.3644089498368222e-03  2.5289659364493727e-03  6.7204572936911981e-04  2.6911037831162132e-03  2.5289186977035145e-03  2.3635292383305199e-03  2.1998265720138289e-03  1.1669513009253908e-03  2.0350601141954508e-03  4.4377069132712165e-04  4.4244395078657679e-04  3.0499675502143201e-03  1.8549607935760789e-04  1.8879464275521585e-04  3.1131233008783944e-03  3.1156601163531152e-03  2.6946250356437054e-03  1.1372305646928169e-04  2.7547158505187162e-03  1.6291329935701443e-03  1.4364464778969172e-03  1.7726096607363054e-03  1.3930169074646991e-04  4.7541734983033627e-05  5.0314951183969852e-05  1.5469190329315105e-03  1.4821607349397086e-03  1.7217899413304405e-03  1.5578060562337992e-03  1.6449737703647166e-03  2.9625401031358649e-03  2.7433956971985498e-03  2.8277693018805123e-03  2.9131613998153068e-03  2.9748026529344104e-03  1.5592258616504919e-03  2.8962262994816535e-03  2.8220112004345268e-03  1.9434728040323146e-03  2.1084314569454888e-03  2.2729882818005981e-03  2.4374141097457088e-03  2.6018813033445152e-0