<?xml version="1.0"?>
<VTKFile type="UnstructuredGrid"  version="0.1"  >
<UnstructuredGrid>
<Piece  NumberOfPoints="8545" NumberOfCells="16538">
<Points>
<DataArray  type="Float64"  NumberOfComponents="3"  format="ascii">0 0 0  2 0 0  2 0.2 0  0 0.2 0  0.007999999999984813 0 0  0.01599999999996964 0 0  0.02399999999995461 0 0  0.03199999999993959 0 0  0.03999999999992457 0 0  0.04799999999990945 0 0  0.05599999999989373 0 0  0.06399999999987775 0 0  0.07199999999986065 0 0  0.07999999999984338 0 0  0.08799999999982558 0 0  0.09599999999980778 0 0  0.10399999999979 0 0  0.1119999999997726 0 0  0.1199999999997562 0 0  0.1279999999997408 0 0  0.1359999999997272 0 0  0.1439999999997141 0 0  0.1519999999997019 0 0  0.1599999999996896 0 0  0.1679999999996774 0 0  0.1759999999996651 0 0  0.1839999999996529 0 0  0.1919999999996407 0 0  0.1999999999996284 0 0  0.2079999999996162 0 0  0.2159999999996039 0 0  0.2239999999995916 0 0  0.2319999999995794 0 0  0.2399999999995652 0 0  0.2479999999995501 0 0  0.2559999999995309 0 0  0.2639999999995103 0 0  0.2719999999994875 0 0  0.2799999999994642 0 0  0.2879999999994408 0 0  0.2959999999994175 0 0  0.3039999999993941 0 0  0.3119999999993708 0 0  0.3199999999993474 0 0  0.3279999999993241 0 0  0.3359999999993007 0 0  0.3439999999992774 0 0  0.351999999999254 0 0  0.3599999999992307 0 0  0.3679999999992074 0 0  0.375999999999184 0 0  0.3839999999991606 0 0  0.3919999999991373 0 0  0.3999999999991139 0 0  0.4079999999990906 0 0  0.4159999999990672 0 0  0.4239999999990439 0 0  0.4319999999990204 0 0  0.4399999999989971 0 0  0.4479999999989738 0 0  0.4559999999989504 0 0  0.463999999998927 0 0  0.4719999999989037 0 0  0.4799999999988804 0 0  0.487999999998857 0 0  0.4959999999988337 0 0  0.5039999999988103 0 0  0.511999999998787 0 0  0.5199999999987636 0 0  0.5279999999987403 0 0  0.5359999999987169 0 0  0.5439999999986936 0 0  0.5519999999986703 0 0  0.559999999998647 0 0  0.5679999999986237 0 0  0.5759999999986004 0 0  0.583999999998577 0 0  0.5919999999985537 0 0  0.5999999999985304 0 0  0.6079999999985071 0 0  0.6159999999984838 0 0  0.6239999999984605 0 0  0.6319999999984371 0 0  0.6399999999984138 0 0  0.6479999999983904 0 0  0.6559999999983671 0 0  0.6639999999983438 0 0  0.6719999999983205 0 0  0.6799999999982972 0 0  0.6879999999982739 0 0  0.6959999999982506 0 0  0.7039999999982272 0 0  0.7119999999982038 0 0  0.7199999999981805 0 0  0.7279999999981572 0 0  0.7359999999981339 0 0  0.7439999999981106 0 0  0.7519999999980873 0 0  0.759999999998064 0 0  0.7679999999980406 0 0  0.7759999999980173 0 0  0.783999999997994 0 0  0.7919999999979707 0 0  0.7999999999979474 0 0  0.807999999997924 0 0  0.8159999999979007 0 0  0.8239999999978773 0 0  0.831999999997854 0 0  0.8399999999978307 0 0  0.8479999999978074 0 0  0.855999999997784 0 0  0.8639999999977607 0 0  0.8719999999977374 0 0  0.8799999999977141 0 0  0.8879999999976906 0 0  0.8959999999976673 0 0  0.903999999997644 0 0  0.9119999999976207 0 0  0.9199999999975974 0 0  0.9279999999975741 0 0  0.9359999999975508 0 0  0.9439999999975274 0 0  0.9519999999975041 0 0  0.9599999999974808 0 0  0.9679999999974574 0 0  0.9759999999974341 0 0  0.9839999999974108 0 0  0.9919999999973981 0 0  0.9999999999973858 0 0  1.007999999997396 0 0  1.015999999997406 0 0  1.023999999997427 0 0  1.031999999997449 0 0  1.039999999997469 0 0  1.04799999999749 0 0  1.055999999997512 0 0  1.063999999997533 0 0  1.071999999997554 0 0  1.079999999997575 0 0  1.087999999997596 0 0  1.095999999997617 0 0  1.103999999997638 0 0  1.111999999997659 0 0  1.11999999999768 0 0  1.127999999997702 0 0  1.135999999997722 0 0  1.143999999997744 0 0  1.151999999997765 0 0  1.159999999997786 0 0  1.167999999997807 0 0  1.175999999997828 0 0  1.183999999997849 0 0  1.19199999999787 0 0  1.199999999997891 0 0  1.207999999997912 0 0  1.215999999997933 0 0  1.223999999997955 0 0  1.231999999997976 0 0  1.239999999997997 0 0  1.247999999998018 0 0  1.255999999998039 0 0  1.26399999999806 0 0  1.271999999998081 0 0  1.279999999998102 0 0  1.287999999998123 0 0  1.295999999998144 0 0  1.303999999998166 0 0  1.311999999998186 0 0  1.319999999998208 0 0  1.327999999998229 0 0  1.33599999999825 0 0  1.343999999998271 0 0  1.351999999998292 0 0  1.359999999998313 0 0  1.367999999998334 0 0  1.375999999998355 0 0  1.383999999998376 0 0  1.391999999998397 0 0  1.399999999998418 0 0  1.40799999999844 0 0  1.41599999999846 0 0  1.423999999998482 0 0  1.431999999998503 0 0  1.439999999998524 0 0  1.447999999998545 0 0  1.455999999998566 0 0  1.463999999998587 0 0  1.471999999998608 0 0  1.479999999998629 0 0  1.48799999999865 0 0  1.495999999998672 0 0  1.503999999998693 0 0  1.511999999998714 0 0  1.519999999998735 0 0  1.527999999998756 0 0  1.535999999998777 0 0  1.543999999998798 0 0  1.551999999998819 0 0  1.55999999999884 0 0  1.567999999998861 0 0  1.575999999998882 0 0  1.583999999998904 0 0  1.591999999998924 0 0  1.599999999998946 0 0  1.607999999998967 0 0  1.615999999998988 0 0  1.623999999999009 0 0  1.63199999999903 0 0  1.639999999999051 0 0  1.647999999999072 0 0  1.655999999999093 0 0  1.663999999999114 0 0  1.671999999999136 0 0  1.679999999999157 0 0  1.687999999999177 0 0  1.695999999999199 0 0  1.70399999999922 0 0  1.711999999999241 0 0  1.719999999999262 0 0  1.727999999999283 0 0  1.735999999999304 0 0  1.743999999999325 0 0  1.751999999999346 0 0  1.759999999999367 0 0  1.767999999999389 0 0  1.775999999999409 0 0  1.783999999999431 0 0  1.791999999999452 0 0  1.799999999999473 0 0  1.807999999999494 0 0  1.815999999999515 0 0  1.823999999999536 0 0  1.831999999999557 0 0  1.839999999999578 0 0  1.847999999999599 0 0  1.85599999999962 0 0  1.863999999999641 0 0  1.871999999999663 0 0  1.879999999999684 0 0  1.887999999999705 0 0  1.895999999999726 0 0  1.903999999999747 0 0  1.911999999999768 0 0  1.919999999999789 0 0  1.92799999999981 0 0  1.935999999999831 0 0  1.943999999999853 0 0  1.951999999999873 0 0  1.959999999999895 0 0  1.967999999999916 0 0  1.975999999999937 0 0  1.983999999999958 0 0  1.991999999999979 0 0  2 0.007999999999985056 0  2 0.01599999999997076 0  2 0.02399999999995914 0  2 0.03199999999993772 0  2 0.03999999999991205 0  2 0.04799999999988908 0  2 0.05599999999986612 0  2 0.06399999999984315 0  2 0.07199999999982019 0  2 0.07999999999979179 0  2 0.08799999999976883 0  2 0.09599999999974587 0  2 0.1039999999997452 0  2 0.1119999999997669 0  2 0.1199999999997886 0  2 0.1279999999998103 0  2 0.135999999999832 0  2 0.1439999999998537 0  2 0.1519999999998738 0  2 0.1599999999998949 0  2 0.1679999999999159 0  2 0.175999999999937 0  2 0.183999999999958 0  2 0.191999999999979 0  1.991999999999967 0.2 0  1.983999999999933 0.2 0  1.9759999999999 0.2 0  1.967999999999867 0.2 0  1.959999999999834 0.2 0  1.9519999999998 0.2 0  1.943999999999767 0.2 0  1.935999999999734 0.2 0  1.9279999999997 0.2 0  1.919999999999667 0.2 0  1.911999999999634 0.2 0  1.9039999999996 0.2 0  1.895999999999567 0.2 0  1.887999999999534 0.2 0  1.879999999999501 0.2 0  1.871999999999467 0.2 0  1.863999999999434 0.2 0  1.855999999999401 0.2 0  1.847999999999367 0.2 0  1.839999999999334 0.2 0  1.831999999999301 0.2 0  1.823999999999268 0.2 0  1.815999999999234 0.2 0  1.807999999999201 0.2 0  1.799999999999168 0.2 0  1.791999999999135 0.2 0  1.783999999999101 0.2 0  1.775999999999068 0.2 0  1.767999999999035 0.2 0  1.759999999999017 0.2 0  1.751999999999006 0.2 0  1.743999999999028 0.2 0  1.735999999999061 0.2 0  1.727999999999112 0.2 0  1.719999999999168 0.2 0  1.711999999999223 0.2 0  1.703999999999279 0.2 0  1.695999999999334 0.2 0  1.68799999999939 0.2 0  1.679999999999446 0.2 0  1.671999999999501 0.2 0  1.663999999999557 0.2 0  1.655999999999612 0.2 0  1.647999999999668 0.2 0  1.639999999999723 0.2 0  1.631999999999779 0.2 0  1.623999999999834 0.2 0  1.61599999999989 0.2 0  1.607999999999945 0.2 0  1.600000000000001 0.2 0  1.592000000000056 0.2 0  1.584000000000112 0.2 0  1.576000000000167 0.2 0  1.568000000000223 0.2 0  1.560000000000279 0.2 0  1.552000000000334 0.2 0  1.54400000000039 0.2 0  1.536000000000445 0.2 0  1.528000000000501 0.2 0  1.520000000000556 0.2 0  1.512000000000612 0.2 0  1.504000000000667 0.2 0  1.496000000000723 0.2 0  1.488000000000778 0.2 0  1.480000000000834 0.2 0  1.472000000000889 0.2 0  1.464000000000945 0.2 0  1.456000000001 0.2 0  1.448000000001056 0.2 0  1.440000000001112 0.2 0  1.432000000001167 0.2 0  1.424000000001223 0.2 0  1.416000000001278 0.2 0  1.408000000001334 0.2 0  1.400000000001389 0.2 0  1.392000000001445 0.2 0  1.3840000000015 0.2 0  1.376000000001556 0.2 0  1.368000000001611 0.2 0  1.360000000001667 0.2 0  1.352000000001722 0.2 0  1.344000000001778 0.2 0  1.336000000001833 0.2 0  1.328000000001889 0.2 0  1.320000000001944 0.2 0  1.312000000002 0.2 0  1.304000000002055 0.2 0  1.296000000002111 0.2 0  1.288000000002166 0.2 0  1.280000000002222 0.2 0  1.272000000002277 0.2 0  1.264000000002333 0.2 0  1.256000000002388 0.2 0  1.248000000002444 0.2 0  1.240000000002499 0.2 0  1.232000000002555 0.2 0  1.22400000000261 0.2 0  1.216000000002666 0.2 0  1.208000000002721 0.2 0  1.200000000002777 0.2 0  1.192000000002832 0.2 0  1.184000000002888 0.2 0  1.176000000002943 0.2 0  1.168000000002999 0.2 0  1.160000000003054 0.2 0  1.15200000000311 0.2 0  1.144000000003165 0.2 0  1.136000000003221 0.2 0  1.128000000003276 0.2 0  1.120000000003332 0.2 0  1.112000000003387 0.2 0  1.104000000003443 0.2 0  1.096000000003498 0.2 0  1.088000000003554 0.2 0  1.080000000003609 0.2 0  1.072000000003665 0.2 0  1.06400000000372 0.2 0  1.056000000003776 0.2 0  1.048000000003831 0.2 0  1.040000000003887 0.2 0  1.032000000003942 0.2 0  1.024000000003998 0.2 0  1.016000000004053 0.2 0  1.008000000004088 0.2 0  1.000000000004121 0.2 0  0.99200000000411 0.2 0  0.984000000004098 0.2 0  0.9760000000040647 0.2 0  0.9680000000040314 0.2 0  0.9600000000039981 0.2 0  0.9520000000039648 0.2 0  0.9440000000039312 0.2 0  0.9360000000038982 0.2 0  0.928000000003864
[...]
<PointData  Scalars="pressure"> 
<DataArray  type="Float64"  Name="pressure"  format="ascii">3.1645202122476067e-03  5.2141414429913369e-08  5.0550655979708522e-08  3.1645265451055900e-03  3.1519225523495014e-03  3.1392692912011336e-03  3.1265820953676961e-03  3.1139625683595466e-03  3.1012503225660527e-03  3.0886067959221843e-03  3.0759528941030809e-03  3.0633246607116925e-03  3.0506334749218649e-03  3.0379699829236740e-03  3.0253191881947378e-03  3.0126537521191214e-03  3.0000156030025793e-03  2.9873277944467511e-03  2.9746959717867711e-03  2.9620247947658579e-03  2.9493641812412667e-03  2.9367095074269898e-03  2.9240687001088300e-03  2.9113837878159982e-03  2.8987143674824509e-03  2.8861016146158806e-03  2.8734077204461183e-03  2.8607730986990286e-03  2.8480916133621116e-03  2.8354378466374157e-03  2.8227756566663919e-03  2.8101531704676410e-03  2.7974605269545658e-03  2.7848004150868634e-03  2.7721640589945802e-03  2.7594872800976982e-03  2.7468502153217183e-03  2.7342027420653526e-03  2.7214596968701396e-03  2.7088806633014727e-03  2.6961905023774333e-03  2.6835881520114904e-03  2.6708620689642735e-03  2.6582134440522520e-03  2.6455786114010769e-03  2.6329353354366475e-03  2.6202564581298830e-03  2.6076091276596609e-03  2.5949081645173268e-03  2.5822918550306457e-03  2.5696100952183176e-03  2.5569649343838161e-03  2.5443180753072620e-03  2.5316295806771631e-03  2.5189943742383704e-03  2.5063263036715316e-03  2.4936792848464918e-03  2.4809990381150738e-03  2.4683676733573108e-03  2.4556871557986494e-03  2.4430567743895792e-03  2.4303886653565935e-03  2.4177242528753426e-03  2.4050241497188332e-03  2.3924361745966756e-03  2.3797553626955688e-03  2.3670744757942116e-03  2.3544374732307098e-03  2.3417694704387015e-03  2.3291222305062424e-03  2.3164420694122543e-03  2.3038136820867699e-03  2.2911249054323730e-03  2.2785006518403891e-03  2.2658310022023163e-03  2.2531775794841888e-03  2.2404654958654339e-03  2.2278801070336010e-03  2.2151977408869324e-03  2.2025171146363553e-03  2.1898802170233233e-03  2.1772122758654069e-03  2.1645652582873700e-03  2.1518850574470134e-03  2.1392537285907648e-03  2.1265732490474598e-03  2.1139429008183146e-03  2.1012748209852635e-03  2.0886104342550168e-03  2.0759103531395699e-03  2.0633223974225816e-03  2.0506416017811151e-03  2.0379607296875193e-03  2.0253237441288244e-03  2.0126557203371345e-03  2.0000086345188261e-03  1.9873283782351776e-03  1.9746970159003974e-03  1.9620164234146090e-03  1.9493864842709365e-03  1.9367163350557872e-03  1.9240566362021848e-03  1.9113535225246672e-03  1.8987642319790398e-03  1.8860853920537901e-03  1.8734103202305524e-03  1.8607740575265733e-03  1.8480838139268141e-03  1.8354527671926735e-03  1.8227843723966053e-03  1.8101057135883726e-03  1.7974897521231214e-03  1.7848124855368065e-03  1.7721596373608613e-03  1.7594674834163721e-03  1.7468659112000074e-03  1.7341846731568646e-03  1.7214834894294048e-03  1.7089059060295011e-03  1.6961665893421977e-03  1.6835458768662734e-03  1.6709237963361519e-03  1.6582154376640740e-03  1.6455613141076603e-03  1.6329414259821675e-03  1.6202306096772588e-03  1.6076116863542769e-03  1.5949356738308726e-03  1.5822732003842898e-03  1.5696222790151822e-03  1.5569807850797201e-03  1.5442950323760606e-03  1.5316529730111759e-03  1.5189739524018005e-03  1.5063538669481276e-03  1.4936594418842198e-03  1.4810280950866613e-03  1.4683379780193388e-03  1.4556909344305667e-03  1.4430693553105583e-03  1.4303630476825840e-03  1.4177193764534650e-03  1.4050541853830223e-03  1.3924283980969424e-03  1.3797374980741353e-03  1.3670772564587459e-03  1.3544761842320201e-03  1.3417400403733879e-03  1.3291215103944873e-03  1.3164444146431852e-03  1.3037837838991814e-03  1.2911794516419349e-03  1.2784544897098426e-03  1.2658140659025827e-03  1.2531482638385094e-03  1.2405350541527199e-03  1.2278323965239071e-03  1.2152033235605529e-03  1.2025334659964348e-03  1.1898795223910204e-03  1.1772112398633155e-03  1.1645664029294621e-03  1.1518832155852257e-03  1.1392233676882078e-03  1.1266222215212840e-03  1.1138961897198157e-03  1.1012571528997213e-03  1.0885915517191236e-03  1.0759782213862594e-03  1.0632749579687136e-03  1.0506440852497319e-03  1.0379754925946972e-03  1.0253240081920798e-03  1.0126565097791477e-03  1.0000154693712443e-03  9.8732762582316334e-04  9.7466782061080416e-04  9.6206523825788262e-04  9.4933963035113663e-04  9.3670020965764503e-04  9.2403343234099861e-04  9.1142076844064198e-04  8.9871785768184931e-04  8.8608627184075749e-04  8.7341798312918248e-04  8.6076656166579580e-04  8.4809908780340338e-04  8.3545821901300356e-04  8.2277044139636587e-04  8.1011072374206851e-04  7.9750825537826611e-04  7.8478255987314788e-04  7.7214346463460324e-04  7.5947667644045143e-04  7.4686385380348501e-04  7.3416189122976620e-04  7.2153132240250484e-04  7.0886183948409376e-04  6.9620809722372096e-04  6.8353993592933809e-04  6.7089541256239269e-04  6.5821231995570866e-04  6.4555233111310577e-04  6.3295132400773544e-04  6.2022479560994756e-04  6.0758676630639054e-04  5.9491951735398264e-04  5.8230623587837021e-04  5.6963907896814207e-04  5.5694215033361008e-04  5.4430435194805773e-04  5.3162351679018861e-04  5.1901484062791042e-04  5.0633142369453145e-04  4.9366778591164689e-04  4.8098759406792430e-04  4.6835996592875333e-04  4.5571684975020959e-04  4.4304053152758314e-04  4.3039217423366226e-04  4.1770564525941354e-04  4.0508696898656403e-04  3.9238986793171054e-04  3.7975211593408342e-04  3.6708042290515527e-04  3.5443740522857160e-04  3.4178892969700909e-04  3.2911730876698607e-04  3.1645393922727496e-04  3.0378232988939428e-04  2.9113152813625692e-04  2.7850876388587899e-04  2.6581644426227713e-04  2.5315985945271237e-04  2.4054691167661334e-04  2.2781772599067440e-04  2.1522975183177045e-04  2.0248480546515023e-04  1.8987554439467996e-04  1.7724719680702972e-04  1.6455834977630488e-04  1.5191663596328425e-04  1.3919149508532350e-04  1.2661521210987850e-04  1.1390781664273936e-04  1.0124152096788106e-04  8.8633401173391764e-05  7.5960189199298140e-05  6.3307221562877998e-05  5.0593448297183821e-05  3.8006781095788996e-05  2.5289599040177690e-05  1.2672247166454702e-05  6.0355853870210320e-10  1.0609629153608032e-08  -3.1927682089479938e-10  5.0064780931715247e-10  -4.5221658956706771e-09  -1.5998665266253424e-09  -1.4100184042990801e-09  -1.6553025595036375e-09  -3.9507106081921407e-10  -9.4400931859992728e-11  -1.6386893864650660e-10  -3.3025937285613912e-11  -1.1168075296791365e-10  -3.3086538143102159e-12  3.7760312705905860e-11  3.0289760059220509e-10  -1.1425172913586773e-09  -6.5375037429420448e-10  -3.6034461487606601e-09  -4.9155072846894668e-09  1.0024188554434219e-09  -3.8404744536306296e-09  9.8590276032965047e-09  8.0849295774198317e-10  1.2672634221782300e-05  2.5305149559216908e-05  3.7997352718842566e-05  5.0599872177518468e-05  6.3304798212411508e-05  7.5959841485743440e-05  8.8634949356462575e-05  1.0124236110211078e-04  1.1390935806803697e-04  1.2661705378980267e-04  1.3918627836667890e-04  1.5191216485409343e-04  1.6456394570878044e-04  1.7724783684584938e-04  1.8987682630995553e-04  2.0247583029480687e-04  2.1522794967323878e-04  2.2781717909500448e-04  2.4054884044953781e-04  2.5313889035683847e-04  2.6581673170728649e-04  2.7851476120887772e-04  2.9113011881526358e-04  3.0378320726399374e-04  3.1645222956164936e-04  3.2911901329511664e-04  3.4178870181290986e-04  3.5443689318062854e-04  3.6707978766793768e-04  3.7975279483487469e-04  3.9238896656184594e-04  4.0508752373325804e-04  4.1770571886869421e-04  4.3039213188810285e-04  4.4304255846386553e-04  4.5571482013753451e-04  4.6835601636302168e-04  4.8099129480141348e-04  4.9366701170297858e-04  5.0633155039172054e-04  5.1901466254549561e-04  5.3163025329784391e-04  5.4430243419781288e-04  5.5694263192611468e-04  5.6963779803124710e-04  5.8230718958792262e-04  5.9491641976190896e-04  6.0758536932923614e-04  6.2023099178220903e-04  6.3294957326608570e-04  6.4555305716482842e-04  6.5821230917613438e-04  6.7089692699654694e-04  6.8354229869178407e-04  6.9620849778558914e-04  7.0885315916830176e-04  7.2153767074354877e-04  7.3416986565129935e-04  7.4685759617522558e-04  7.5947984278430195e-04  7.7214421230564073e-04  7.8478130981819683e-04  7.9750829803347403e-04  8.1010938382741738e-04  8.2277082427002714e-04  8.3545545022119304e-04  8.4810001812975417e-04  8.6076552834276384e-04  8.7341065105717239e-04  8.8609500416743749e-04  8.9872658656421666e-04  9.1141367432495614e-04  9.2403561907586265e-04  9.3670028608839652e-04  9.4933920393559638e-04  9.6206495986293089e-04  9.7466638457730382e-04  9.8732770006448086e-04  1.0000124405301061e-03  1.0126569805282261e-03  1.0253224947778309e-03  1.0379676899978714e-03  1.0506521232261658e-03  1.0632841841351516e-03  1.0759707319011502e-03  1.0885942408699471e-03  1.1012581003271862e-03  1.1138996273282378e-03  1.1266210182880637e-03  1.1392237781434466e-03  1.1518832615842022e-03  1.1645678846697854e-03  1.1772132764374505e-03  1.1898794981768635e-03  1.2025241539090448e-03  1.2152086279358537e-03  1.2278408583453742e-03  1.2405286750956041e-03  1.2531510125829469e-03  1.2658153731744416e-03  1.2784524998201688e-03  1.2911795389068921e-03  1.3037779690902611e-03  1.3164401076717117e-03  1.3291248652544986e-03  1.3417708906829668e-03  1.3544367300369906e-03  1.3670817136670467e-03  1.3797660106566292e-03  1.3923973410114373e-03  1.4050844354581734e-03  1.4177065518998779e-03  1.4303701647960321e-03  1.4430309174527165e-03  1.4557072383530438e-03  1.4683324246034537e-03  1.4810485612294540e-03  1.4936391239654925e-03  1.5063530105254329e-03  1.5190083585925613e-03  1.5316041792388965e-03  1.5443347711969098e-03  1.5569354071277182e-03  1.5696140926400809e-03  1.5822950868465751e-03  1.5949496897409697e-03  1.6075897252276915e-03  1.6202339261862876e-03  1.6329056614224477e-03  1.6455802501849953e-03  1.6582490139626755e-03  1.6708697102055386e-03  1.6835409817057528e-03  1.6961835292037507e-03  1.7088923999596984e-03  1.7214876781212374e-03  1.7341948434028513e-03  1.7468265167836067e-03  1.7594864662518045e-03  1.7721525532109329e-03  1.7848329522951289e-03  1.7974580320448714e-03  1.8101401142251591e-03  1.8227710252422824e-03  1.8354519899223087e-03  1.8481020282166984e-03  1.8607671310193264e-03  1.8734018153723359e-03  1.8860829558726827e-03  1.8987657291227207e-03  1.9113544670858347e-03  1.9240556598041339e-03  1.9367111901633087e-03  1.9493898525356321e-03  1.9620054998331633e-03  1.9747038485861262e-03  1.9873391983798068e-03  2.0000040253424401e-03  2.0126556618965466e-03  2.0253242356122743e-03  2.0379589460570603e-03  2.0506399767303875e-03  2.0633228296745012e-03  2.0759122394293250e-03  2.0886117717040416e-03  2.1012671944248993e-03  2.1139476530281022e-03  2.1265624215461437e-03  2.1392609487406572e-03  2.1518962314527909e-03  2.1645608494002969e-03  2.1772124243999006e-03  2.1898811243832978e-03  2.2025146196989198e-03  2.2151976169975897e-03  2.2278797015395035e-03  2.2404686803129507e-03  2.2531708300111974e-03  2.2658252218590064e-03  2.2785034517850055e-03  2.2911281270848647e-03  2.3038109297520482e-03  2.3164418621313141e-03  2.3291219042722408e-03  2.3417697480195647e-03  2.3544374481824421e-03  2.3670743243138924e-03  2.3797551699124711e-03  2.3924362078163301e-03  2.4050258164837221e-03  2.4177265622298467e-03  2.4303821894256280e-03  2.4430606735541698e-03  2.4556766185640992e-03  2.4683747930685433e-03  2.4810099256606620e-03  2.4936746862011905e-03  2.5063253861103995e-03  2.5189953340434357e-03  2.5316292647738995e-03  2.5443109473719250e-03  2.5569936894257101e-03  2.5695834354370422e-03  2.5822831180699968e-03  2.5949386812224116e-03  2.6076208425433278e-03  2.6202494492882137e-03  2.6328881617959875e-03  2.6455809181080083e-03  2.6582255538636738e-03  2.6709149474910764e-03  2.6835289056997072e-03  2.6961936232649405e-03  2.7088582374553694e-03  2.7215353146384088e-03  2.7341578090661991e-03  2.7468694405282401e-03  2.7594725478869001e-03  2.7721605063148920e-03  2.7848076805248516e-03  2.7974663899232514e-03  2.8101064084118206e-03  2.8227955182575093e-03  2.8354690763435710e-03  2.8480985012928079e-03  2.8607493984008818e-03  2.8734172751943093e-03  2.8860947728601280e-03  2.8987141199632474e-03  2.9114109925161892e-03  2.9240439593900278e-03  2.9367243371894347e-03  2.9493224046470670e-03  2.9620450095326272e-03  2.9746861535102777e-03  2.9873382226207439e-03  3.0000322471534506e-03  3.0126467134147308e-03  3.0253311060694462e-03  3.0379318903110439e-03  3.0506614816924542e-03  3.0633057651021567e-03  3.0759536900635399e-03  3.0885881945761570e-03  3.1012961702708533e-03  3.1139279481951815e-03  3.1266053573703843e-03  3.1392725643218265e-03  3.1519090511649105e-03  3.1645531393520040e-03  3.1645542044443638e-03  3.1645595826804759e-03  3.1645592382820394e-03  3.1645579612520707e-03  3.1645586589621041e-03  3.1645574552137188e-03  3.1645560258767419e-03  3.1645562571930167e-03  3.1645570300870372e-03  3.1645568424283638e-03  3.1645569670723053e-03  3.1645569026789375e-03  3.1645569779681446e-03  3.1645570984708887e-03  3.1645571311654697e-03  3.1645581252753943e-03  3.1645575882907812e-03  3.1645572159425825e-03  3.1645571333594976e-03  3.1645566201452960e-03  3.1645582979661154e-03  3.1645538080713829e-03  3.1645544173144633e-03  4.7496886910027789e-04  6.3924190345910237e-04  8.0573567875308588e-04  9.6804082805431249e-04  1.1329129547008969e-03  1.2974699123104428e-03  1.4612615011555885e-03  2.7283469706105437e-03  2.5631249547909533e-03  2.9936735393782479e-03  2.3985679144631184e-03  2.2342950696268280e-03  2.0694542334672812e-03  1.9059221090675436e-03  1.7405080135524846e-03  1.5905380600217137e-04  3.1645769114994866e-04  1.6018155220612561e-03  2.8605296926195061e-03  5.5653361562505149e-04  7.2142494223259514e-04  8.8598337113038512e-04  1.0506339270680645e-03  1.2153568946093054e-03  1.3797491474094213e-03  2.6462480232936274e-03  2.4789784347378566e-03  2.3144215519267345e-03  2.1498645456289388e-03  1.9853076531119304e-03  1.8236089473956157e-03  1.3784657705284366e-03  1.2169067962345865e-03  1.0508215663016778e-03  1.8227856450319013e-03  1.9867670015144443e-03  8.8627843629546796e-04  7.2353727900416830e-04  2.1514664688539924e-03  2.3164570784100433e-03  2.4811473804318301e-03  5.5716443212380459e-04  2.6476380363923803e-03  2.3873321208710106e-04  2.3653913141524863e-04  3.9305333036920159e-04  3.9788312486217856e-04  2.9165286835998697e-03  2.8057253392553667e-03  1.5397157682135322e-03  1.6620205241658944e-03  3.0678581271754921e-03  3.0680398243333683e-03  9.0318912616190123e-05  9.2654697858320079e-05  1.6782121960313787e-03  1.5241509628053638e-03  2.9373360459549590e-03  2.7820487463008181e-03  4.7467610646655459e-04  6.3924410041448572e-04  8.0422248516536247e-04  9.6964816750257684e-04  1.1329152845332389e-03  1.2974742408603625e-03  1.4620299758728772e-03  2.5602660782815612e-03  2.3957087588087379e-03  2.2311509538662983e-03  2.0665949445665063e-03  1.9050696560687320e-03  1.2947452771391013e-03  1.1302353224673764e-03  9.6626740041400429e-04  8.0107411121748274e-04  6.3656443537680346e-04  4.7518070862232224e-04  1.7387327186514313e-03  1.9050606600588378e-03  2.0719202295970741e-03  2.2364762808912489e-03  2.3987359837197228e-03  2.5655908140745521e-03  2.7269854596240258e-03  3.1276642629436349e-04  3.1295416677022686e-04  2.9920308661936573e-03  1.7526813124892873e-03  1.4515068246317364e-03  1.6587576956008962e-04  1.6587756306614640e-04  2.7135440343571894e-03  1.5896534802891380e-03  6.9317478307222091e-05  3.0030210043337498e-03  1.6015077244693693e-03  3.0970028602273505e-03  2.8750647904239070e-03  2.9291532101611522e-03  2.7936076785899404e-03  1.6658992455204072e-03  1.5269222646432769e-03  2.8612840570897548e-03  4.1285394149662933e-04  2.1984918513849776e-04  5.7785589150415918e-04  1.4008483043419862e-03  9.0697000939459469e-04  1.1942993121632655e-03  1.0715269714729502e-03  7.0043356980751832e-04  1.8021801065975589e-03  2.6665286766765009e-03  2.5008764385480754e-03  2.3354293365737272e-03  2.1722019093218890e-03  2.0078673889192458e-03  2.8619765618689073e-03  3.1083882281017243e-03  3.1081419022806582e-03  1.7912112864574949e-03  1.9568719266636948e-03  1.2455282045219539e-03  2.1215286854599307e-03  2.2859864395742202e-03  1.0827441423529383e-03  2.4506423129405093e-03  9.1826983226116340e-04  2.6151984416516228e-03  7.5454073627361504e-04  5.8775777790575593e-04  7.5182189444921214e-04  5.8898133932136032e-04  6.9138207042803508e-04  5.2365446959998045e-04  9.1809444365854929e-04  1.0826530951336805e-03  8.5292665474519366e-04  1.0174835619723589e-03  1.2452348677379306e-03  1.1850531989684257e-03  1.4117658430039760e-03  1.3465959270345857e-03  2.6123476091906724e-03  2.4474386516412459e-03  2.5111476359697522e-03  2.2828815182018439e-03  2.3465906890516208e-03  2.1183247758390740e-03  1.9537683233168848e-03  2.1820337087027327e-03  2.0174769332045889e-03  1.8548859677757041e-03  5.2618272109083899e-04  6.9070565763420643e-04  2.6776777745586284e-03  8.5413296908975925e-04  2.5118227404913236e-03  2.3465907963247357e-03  1.0186901628619672e-03  2.1836898700105909e-03  1.1833958451349024e-03  2.0181505255605081e-03  1.3476379400368162e-03  1.8556645449892696e-03  1.5924657553091012e-03  3.6308622245727676e-04  3.6318600022300536e-04  5.4235798940178228e-05  5.5040483535424152e-05  4.2638940945432852e-04  4.2638925313058935e-04  2.7764838609539906e-03  1.5103861330822848e-03  1.6927208788970688e-03  2.9436654602709618e-03  2.6603148791167765e-04  2.6695663199595508e-04  1.9563986667709191e-03  1.8555436759915879e-03  2.1212074338791622e-03  2.2857642794330128e-03  2.4484167062035489e-03  2.6129734671806151e-03  7.5386485668428105e-04  1.0184041824297984e-03  5.2480475042402720e-04  8.5502749207952758e-04  1.2475357572074247e-03  1.3496334493845569e-03  3.0443610945685086e-03  3.0375354627296368e-03  1.6416942484507283e-03  1.7991418086443960e-03  1.4021940185285249e-03  2.8243208544537603e-03  2.1220288081706101e-04  2.1250554684737645e-04  2.6659246528586917e-03  1.2628908966834300e-03  7.6921983636010533e-04  2.5962309944872115e-03  2.4316738453603521e-03  2.2677693787491850e-03  2.1025600087580939e-03  1.9361388194974068e-03  1.8714737019408674e-03  5.0936258640528367e-04  8.3837839452373375e-04  1.0028152954102598e-03  1.3320493999157755e-03  2.6825942741101930e-04  3.6303853704776616e-04  3.4784269434789619e-04  2.7595303092570493e-03  1.2135720520425127e-04  1.2153374807984716e-04  1.4928877123873171e-03  1.7073944867948597e-03  2.8356856922089990e-04  2.9609603007589159e-03  1.7079725792624302e-03  1.4945732345250679e-03  3.0228157835029863e-03  1.7735510292274854e-03  1.0989470317728524e-03  9.3436793807624935e-04  6.0527568641539507e-04  1.4277015250285902e-03  1.0956219518522198e-03  9.3114300090043538e-04  1.1658922367473346e-03  6.0195083438669284e-04  6.7337456561183224e-04  2.0352960794867590e-03  2.1998509501861361e-03  2.3644098965603013e-03  2.5289669217768399e-03  6.7204619910330094e-04  2.6911036000447108e-03  2.5289189202662809e-03  2.3635290686705572e-03  2.1998269082735963e-03  1.1669517435686754e-03  2.0350603362573197e-03  4.4377103298559822e-04  4.4244423582943466e-04  3.0499687672334427e-03  1.8549584994170562e-04  1.8879515544579996e-04  3.1131247646840657e-03  3.1156613174782720e-03  2.6946251050784312e-03  1.1372338770627620e-04  2.7547159728436147e-03  1.6291333513918213e-03  1.4364467719652555e-03  1.7726098209709590e-03  1.3930207178374968e-04  4.7541692914742814e-05  5.0315321302140088e-05  1.5469176971757879e-03  1.4821610025464538e-03  1.7217906064842950e-03  1.5578071928403518e-03  1.6449731062015815e-03  2.9625414054886960e-03  2.7433964043766771e-03  2.8277696291911796e-03  2.9131627435532337e-03  2.9748036313128621e-03  1.5592259213837998e-03  2.8962272275588124e-03  2.8220112259830679e-03  1.9434730166648054e-03  2.1084316996652299e-03  2.2729883952946010e-03  2.4374141836023423e-03  2.6018815247056356e