<?xml version="1.0"?>
<VTKFile type="UnstructuredGrid"  version="0.1"  >
<UnstructuredGrid>
<Piece  NumberOfPoints="8545" NumberOfCells="16538">
<Points>
<DataArray  type="Float64"  NumberOfComponents="3"  format="ascii">0 0 0  2 0 0  2 0.2 0  0 0.2 0  0.007999999999984813 0 0  0.01599999999996964 0 0  0.02399999999995461 0 0  0.03199999999993959 0 0  0.03999999999992457 0 0  0.04799999999990945 0 0  0.05599999999989373 0 0  0.06399999999987775 0 0  0.07199999999986065 0 0  0.07999999999984338 0 0  0.08799999999982558 0 0  0.09599999999980778 0 0  0.10399999999979 0 0  0.1119999999997726 0 0  0.1199999999997562 0 0  0.1279999999997408 0 0  0.1359999999997272 0 0  0.1439999999997141 0 0  0.1519999999997019 0 0  0.1599999999996896 0 0  0.1679999999996774 0 0  0.1759999999996651 0 0  0.1839999999996529 0 0  0.1919999999996407 0 0  0.1999999999996284 0 0  0.2079999999996162 0 0  0.2159999999996039 0 0  0.2239999999995916 0 0  0.2319999999995794 0 0  0.2399999999995652 0 0  0.2479999999995501 0 0  0.2559999999995309 0 0  0.2639999999995103 0 0  0.2719999999994875 0 0  0.2799999999994642 0 0  0.2879999999994408 0 0  0.2959999999994175 0 0  0.3039999999993941 0 0  0.3119999999993708 0 0  0.3199999999993474 0 0  0.3279999999993241 0 0  0.3359999999993007 0 0  0.3439999999992774 0 0  0.351999999999254 0 0  0.3599999999992307 0 0  0.3679999999992074 0 0  0.375999999999184 0 0  0.3839999999991606 0 0  0.3919999999991373 0 0  0.3999999999991139 0 0  0.4079999999990906 0 0  0.4159999999990672 0 0  0.4239999999990439 0 0  0.4319999999990204 0 0  0.4399999999989971 0 0  0.4479999999989738 0 0  0.4559999999989504 0 0  0.463999999998927 0 0  0.4719999999989037 0 0  0.4799999999988804 0 0  0.487999999998857 0 0  0.4959999999988337 0 0  0.5039999999988103 0 0  0.511999999998787 0 0  0.5199999999987636 0 0  0.5279999999987403 0 0  0.5359999999987169 0 0  0.5439999999986936 0 0  0.5519999999986703 0 0  0.559999999998647 0 0  0.5679999999986237 0 0  0.5759999999986004 0 0  0.583999999998577 0 0  0.5919999999985537 0 0  0.5999999999985304 0 0  0.6079999999985071 0 0  0.6159999999984838 0 0  0.6239999999984605 0 0  0.6319999999984371 0 0  0.6399999999984138 0 0  0.6479999999983904 0 0  0.6559999999983671 0 0  0.6639999999983438 0 0  0.6719999999983205 0 0  0.6799999999982972 0 0  0.6879999999982739 0 0  0.6959999999982506 0 0  0.7039999999982272 0 0  0.7119999999982038 0 0  0.7199999999981805 0 0  0.7279999999981572 0 0  0.7359999999981339 0 0  0.7439999999981106 0 0  0.7519999999980873 0 0  0.759999999998064 0 0  0.7679999999980406 0 0  0.7759999999980173 0 0  0.783999999997994 0 0  0.7919999999979707 0 0  0.7999999999979474 0 0  0.807999999997924 0 0  0.8159999999979007 0 0  0.8239999999978773 0 0  0.831999999997854 0 0  0.8399999999978307 0 0  0.8479999999978074 0 0  0.855999999997784 0 0  0.8639999999977607 0 0  0.8719999999977374 0 0  0.8799999999977141 0 0  0.8879999999976906 0 0  0.8959999999976673 0 0  0.903999999997644 0 0  0.9119999999976207 0 0  0.9199999999975974 0 0  0.9279999999975741 0 0  0.9359999999975508 0 0  0.9439999999975274 0 0  0.9519999999975041 0 0  0.9599999999974808 0 0  0.9679999999974574 0 0  0.9759999999974341 0 0  0.9839999999974108 0 0  0.9919999999973981 0 0  0.9999999999973858 0 0  1.007999999997396 0 0  1.015999999997406 0 0  1.023999999997427 0 0  1.031999999997449 0 0  1.039999999997469 0 0  1.04799999999749 0 0  1.055999999997512 0 0  1.063999999997533 0 0  1.071999999997554 0 0  1.079999999997575 0 0  1.087999999997596 0 0  1.095999999997617 0 0  1.103999999997638 0 0  1.111999999997659 0 0  1.11999999999768 0 0  1.127999999997702 0 0  1.135999999997722 0 0  1.143999999997744 0 0  1.151999999997765 0 0  1.159999999997786 0 0  1.167999999997807 0 0  1.175999999997828 0 0  1.183999999997849 0 0  1.19199999999787 0 0  1.199999999997891 0 0  1.207999999997912 0 0  1.215999999997933 0 0  1.223999999997955 0 0  1.231999999997976 0 0  1.239999999997997 0 0  1.247999999998018 0 0  1.255999999998039 0 0  1.26399999999806 0 0  1.271999999998081 0 0  1.279999999998102 0 0  1.287999999998123 0 0  1.295999999998144 0 0  1.303999999998166 0 0  1.311999999998186 0 0  1.319999999998208 0 0  1.327999999998229 0 0  1.33599999999825 0 0  1.343999999998271 0 0  1.351999999998292 0 0  1.359999999998313 0 0  1.367999999998334 0 0  1.375999999998355 0 0  1.383999999998376 0 0  1.391999999998397 0 0  1.399999999998418 0 0  1.40799999999844 0 0  1.41599999999846 0 0  1.423999999998482 0 0  1.431999999998503 0 0  1.439999999998524 0 0  1.447999999998545 0 0  1.455999999998566 0 0  1.463999999998587 0 0  1.471999999998608 0 0  1.479999999998629 0 0  1.48799999999865 0 0  1.495999999998672 0 0  1.503999999998693 0 0  1.511999999998714 0 0  1.519999999998735 0 0  1.527999999998756 0 0  1.535999999998777 0 0  1.543999999998798 0 0  1.551999999998819 0 0  1.55999999999884 0 0  1.567999999998861 0 0  1.575999999998882 0 0  1.583999999998904 0 0  1.591999999998924 0 0  1.599999999998946 0 0  1.607999999998967 0 0  1.615999999998988 0 0  1.623999999999009 0 0  1.63199999999903 0 0  1.639999999999051 0 0  1.647999999999072 0 0  1.655999999999093 0 0  1.663999999999114 0 0  1.671999999999136 0 0  1.679999999999157 0 0  1.687999999999177 0 0  1.695999999999199 0 0  1.70399999999922 0 0  1.711999999999241 0 0  1.719999999999262 0 0  1.727999999999283 0 0  1.735999999999304 0 0  1.743999999999325 0 0  1.751999999999346 0 0  1.759999999999367 0 0  1.767999999999389 0 0  1.775999999999409 0 0  1.783999999999431 0 0  1.791999999999452 0 0  1.799999999999473 0 0  1.807999999999494 0 0  1.815999999999515 0 0  1.823999999999536 0 0  1.831999999999557 0 0  1.839999999999578 0 0  1.847999999999599 0 0  1.85599999999962 0 0  1.863999999999641 0 0  1.871999999999663 0 0  1.879999999999684 0 0  1.887999999999705 0 0  1.895999999999726 0 0  1.903999999999747 0 0  1.911999999999768 0 0  1.919999999999789 0 0  1.92799999999981 0 0  1.935999999999831 0 0  1.943999999999853 0 0  1.951999999999873 0 0  1.959999999999895 0 0  1.967999999999916 0 0  1.975999999999937 0 0  1.983999999999958 0 0  1.991999999999979 0 0  2 0.007999999999985056 0  2 0.01599999999997076 0  2 0.02399999999995914 0  2 0.03199999999993772 0  2 0.03999999999991205 0  2 0.04799999999988908 0  2 0.05599999999986612 0  2 0.06399999999984315 0  2 0.07199999999982019 0  2 0.07999999999979179 0  2 0.08799999999976883 0  2 0.09599999999974587 0  2 0.1039999999997452 0  2 0.1119999999997669 0  2 0.1199999999997886 0  2 0.1279999999998103 0  2 0.135999999999832 0  2 0.1439999999998537 0  2 0.1519999999998738 0  2 0.1599999999998949 0  2 0.1679999999999159 0  2 0.175999999999937 0  2 0.183999999999958 0  2 0.191999999999979 0  1.991999999999967 0.2 0  1.983999999999933 0.2 0  1.9759999999999 0.2 0  1.967999999999867 0.2 0  1.959999999999834 0.2 0  1.9519999999998 0.2 0  1.943999999999767 0.2 0  1.935999999999734 0.2 0  1.9279999999997 0.2 0  1.919999999999667 0.2 0  1.911999999999634 0.2 0  1.9039999999996 0.2 0  1.895999999999567 0.2 0  1.887999999999534 0.2 0  1.879999999999501 0.2 0  1.871999999999467 0.2 0  1.863999999999434 0.2 0  1.855999999999401 0.2 0  1.847999999999367 0.2 0  1.839999999999334 0.2 0  1.831999999999301 0.2 0  1.823999999999268 0.2 0  1.815999999999234 0.2 0  1.807999999999201 0.2 0  1.799999999999168 0.2 0  1.791999999999135 0.2 0  1.783999999999101 0.2 0  1.775999999999068 0.2 0  1.767999999999035 0.2 0  1.759999999999017 0.2 0  1.751999999999006 0.2 0  1.743999999999028 0.2 0  1.735999999999061 0.2 0  1.727999999999112 0.2 0  1.719999999999168 0.2 0  1.711999999999223 0.2 0  1.703999999999279 0.2 0  1.695999999999334 0.2 0  1.68799999999939 0.2 0  1.679999999999446 0.2 0  1.671999999999501 0.2 0  1.663999999999557 0.2 0  1.655999999999612 0.2 0  1.647999999999668 0.2 0  1.639999999999723 0.2 0  1.631999999999779 0.2 0  1.623999999999834 0.2 0  1.61599999999989 0.2 0  1.607999999999945 0.2 0  1.600000000000001 0.2 0  1.592000000000056 0.2 0  1.584000000000112 0.2 0  1.576000000000167 0.2 0  1.568000000000223 0.2 0  1.560000000000279 0.2 0  1.552000000000334 0.2 0  1.54400000000039 0.2 0  1.536000000000445 0.2 0  1.528000000000501 0.2 0  1.520000000000556 0.2 0  1.512000000000612 0.2 0  1.504000000000667 0.2 0  1.496000000000723 0.2 0  1.488000000000778 0.2 0  1.480000000000834 0.2 0  1.472000000000889 0.2 0  1.464000000000945 0.2 0  1.456000000001 0.2 0  1.448000000001056 0.2 0  1.440000000001112 0.2 0  1.432000000001167 0.2 0  1.424000000001223 0.2 0  1.416000000001278 0.2 0  1.408000000001334 0.2 0  1.400000000001389 0.2 0  1.392000000001445 0.2 0  1.3840000000015 0.2 0  1.376000000001556 0.2 0  1.368000000001611 0.2 0  1.360000000001667 0.2 0  1.352000000001722 0.2 0  1.344000000001778 0.2 0  1.336000000001833 0.2 0  1.328000000001889 0.2 0  1.320000000001944 0.2 0  1.312000000002 0.2 0  1.304000000002055 0.2 0  1.296000000002111 0.2 0  1.288000000002166 0.2 0  1.280000000002222 0.2 0  1.272000000002277 0.2 0  1.264000000002333 0.2 0  1.256000000002388 0.2 0  1.248000000002444 0.2 0  1.240000000002499 0.2 0  1.232000000002555 0.2 0  1.22400000000261 0.2 0  1.216000000002666 0.2 0  1.208000000002721 0.2 0  1.200000000002777 0.2 0  1.192000000002832 0.2 0  1.184000000002888 0.2 0  1.176000000002943 0.2 0  1.168000000002999 0.2 0  1.160000000003054 0.2 0  1.15200000000311 0.2 0  1.144000000003165 0.2 0  1.136000000003221 0.2 0  1.128000000003276 0.2 0  1.120000000003332 0.2 0  1.112000000003387 0.2 0  1.104000000003443 0.2 0  1.096000000003498 0.2 0  1.088000000003554 0.2 0  1.080000000003609 0.2 0  1.072000000003665 0.2 0  1.06400000000372 0.2 0  1.056000000003776 0.2 0  1.048000000003831 0.2 0  1.040000000003887 0.2 0  1.032000000003942 0.2 0  1.024000000003998 0.2 0  1.016000000004053 0.2 0  1.008000000004088 0.2 0  1.000000000004121 0.2 0  0.99200000000411 0.2 0  0.984000000004098 0.2 0  0.9760000000040647 0.2 0  0.9680000000040314 0.2 0  0.9600000000039981 0.2 0  0.9520000000039648 0.2 0  0.9440000000039312 0.2 0  0.9360000000038982 0.2 0  0.928000000003864
[...]
<PointData  Scalars="pressure"> 
<DataArray  type="Float64"  Name="pressure"  format="ascii">3.1645340222892734e-03  3.9054693958025438e-08  3.7673656718888052e-08  3.1645376173859109e-03  3.1519293474061073e-03  3.1392760623060877e-03  3.1265968301974183e-03  3.1139652922878161e-03  3.1012655742181368e-03  3.0886208618909790e-03  3.0759650288936882e-03  3.0633264252689853e-03  3.0506410483253582e-03  3.0379788628521892e-03  3.0253250170930537e-03  3.0126627062643154e-03  3.0000187113226715e-03  2.9873371747582990e-03  2.9746976955728022e-03  2.9620272270764890e-03  2.9493658252820912e-03  2.9367093455867641e-03  2.9240628559077807e-03  2.9113837783547782e-03  2.8987204086414961e-03  2.8860941862733987e-03  2.8734067449335075e-03  2.8607646053763077e-03  2.8480871405310872e-03  2.8354333616288693e-03  2.8227729182834999e-03  2.8101389502036048e-03  2.7974519951098720e-03  2.7847938247916189e-03  2.7721517291202065e-03  2.7594788746815972e-03  2.7468365373100895e-03  2.7341803246529266e-03  2.7214599387149637e-03  2.7088662674458167e-03  2.6961816346272320e-03  2.6835609360345890e-03  2.6708502343118293e-03  2.6582013091717553e-03  2.6455637894423245e-03  2.6329151472804595e-03  2.6202403489045041e-03  2.6075875529286050e-03  2.5948984924213858e-03  2.5822734654708111e-03  2.5695956324044665e-03  2.5569460480252422e-03  2.5442980240902124e-03  2.5316172838133226e-03  2.5189770776262548e-03  2.5063090627687381e-03  2.4936581404514202e-03  2.4809844827022530e-03  2.4683458151969280e-03  2.4556718779403411e-03  2.4430342633878330e-03  2.4303659864594496e-03  2.4176999329046924e-03  2.4050143277249175e-03  2.3924112700067081e-03  2.3797341871871118e-03  2.3670606715219663e-03  2.3544189309545821e-03  2.3417511636011999e-03  2.3291002012264714e-03  2.3164267527172907e-03  2.3037901342128331e-03  2.2911102550613079e-03  2.2784771478706048e-03  2.2658091449024487e-03  2.2531521257435449e-03  2.2404561302378093e-03  2.2278557613572007e-03  2.2151772256508036e-03  2.2025038535661897e-03  2.1898622479446478e-03  2.1771945720429958e-03  2.1645438455088874e-03  2.1518704433771654e-03  2.1392320121029922e-03  2.1265583167120578e-03  2.1139209295456913e-03  2.1012528714059874e-03  2.0885870266603265e-03  2.0759016195217358e-03  2.0632987455495933e-03  2.0506218359742177e-03  2.0379484879509738e-03  2.0253069011066474e-03  2.0126392615023368e-03  1.9999885273622002e-03  1.9873151253674325e-03  1.9746766970911668e-03  1.9620029606993009e-03  1.9493658225986491e-03  1.9366965115742176e-03  1.9240342649657145e-03  1.9113460075853639e-03  1.8987427600703952e-03  1.8860668778148107e-03  1.8733980881713375e-03  1.8607554671939261e-03  1.8480732063121568e-03  1.8354356436706060e-03  1.8227676197447272e-03  1.8100965297490313e-03  1.7974709301790287e-03  1.7847959860488136e-03  1.7721393689889124e-03  1.7594597431235385e-03  1.7468447721233464e-03  1.7341662458464897e-03  1.7214779069694096e-03  1.7088787002628701e-03  1.6961594022453280e-03  1.6835348495676573e-03  1.6708988860881990e-03  1.6582011669234408e-03  1.6455495367610252e-03  1.6329170655659474e-03  1.6202238567940607e-03  1.6075948874918141e-03  1.5949214772741579e-03  1.5822615552831786e-03  1.5696099904165481e-03  1.5569639814852906e-03  1.5442846495878888e-03  1.5316388727385753e-03  1.5189665764084451e-03  1.5063369227039177e-03  1.4936512583607552e-03  1.4810104817818881e-03  1.4683285396214364e-03  1.4556812130121243e-03  1.4430497254571950e-03  1.4303548326926650e-03  1.4177088432274188e-03  1.4050468280566472e-03  1.3924100750893013e-03  1.3797252241416278e-03  1.3670695632104293e-03  1.3544508882103897e-03  1.3417347591883411e-03  1.3291092672086514e-03  1.3164349260161635e-03  1.3037760231080768e-03  1.2911591339174189e-03  1.2784478600791898e-03  1.2658059622257445e-03  1.2531430233482489e-03  1.2405189745590157e-03  1.2278281552195404e-03  1.2151923551371655e-03  1.2025245636404912e-03  1.1898703264774909e-03  1.1772034741653746e-03  1.1645521911581255e-03  1.1518746106003270e-03  1.1392164633618619e-03  1.1266022700913752e-03  1.1138904365468895e-03  1.1012497037037378e-03  1.0885873927974734e-03  1.0759635211997731e-03  1.0632720312270538e-03  1.0506346703645076e-03  1.0379678330047640e-03  1.0253151947952799e-03  1.0126499335208735e-03  1.0000021624320644e-03  9.8732181442274299e-04  9.7466374787874078e-04  9.6204827331497034e-04  9.4933655727688822e-04  9.3669501575206694e-04  9.2403101004275305e-04  9.1140756037158435e-04  8.9871636283591369e-04  8.8607841086744781e-04  8.7341168627352915e-04  8.6075892523884928e-04  8.4809364237559874e-04  8.3544602505372569e-04  8.2276575461341346e-04  8.1010777319483326e-04  7.9749241004632395e-04  7.8478070428430720e-04  7.7213944503787908e-04  7.5947561860614647e-04  7.4685217313665377e-04  7.3416214590270453e-04  7.2152477980429554e-04  7.0885703387749566e-04  6.9620288782076779e-04  6.8353601216098760e-04  6.7088509428790189e-04  6.5820767540954433e-04  6.4554962055181136e-04  6.3293537104099952e-04  6.2022327621054992e-04  6.0758328892206821e-04  5.9491981772049739e-04  5.8229775892106007e-04  5.6962994433094340e-04  5.5694401454096617e-04  5.4430024637352082e-04  5.3162685631281004e-04  5.1900487715031147e-04  5.0632436211961581e-04  4.9366093748429856e-04  4.8098991302351462e-04  4.6835899919434975e-04  4.5571002350532519e-04  4.4303819260122054e-04  4.3038591531749647e-04  4.1770777845219205e-04  4.0507783949590665e-04  3.9238929746755416e-04  3.7974584781086602e-04  3.6708139080213914e-04  3.5443499357264689e-04  3.4178342304343672e-04  3.2911390115063747e-04  3.1645177836535528e-04  3.0378530176043185e-04  2.9113344929817837e-04  2.7850165575821060e-04  2.6581644136625251e-04  2.5316188373038836e-04  2.4053446604943227e-04  2.2782426979761747e-04  2.1521747697957191e-04  2.0249367856530395e-04  1.8988023835681388e-04  1.7724041552996667e-04  1.6455730259946086e-04  1.5190847271874679e-04  1.3920205794147792e-04  1.2660876843573624e-04  1.1390850337514347e-04  1.0125046397711371e-04  8.8628297245038227e-05  7.5957876090129511e-05  6.3301101403669786e-05  5.0604269609008891e-05  3.8000865700131103e-05  2.5298378484515807e-05  1.2673889197286893e-05  5.2003615516754639e-10  1.0348108134549634e-08  4.1659469948120272e-10  1.3972257654010323e-09  -4.2995806285942531e-09  -2.1015070410339573e-09  -1.1925381078501003e-09  -2.5606623030322717e-09  -8.3553014396889221e-10  -1.0866467635422061e-10  -9.6235796222392552e-10  -5.2417571047732257e-10  -1.1514087999785991e-09  2.4800661993528764e-10  3.3464158519621311e-10  1.3409436077162847e-09  -2.7732785372977220e-09  -1.6342518527768809e-09  -6.9981318459530245e-09  -4.6969787594725205e-09  2.2778140287652265e-09  -3.6600224862552108e-09  9.6037662404985389e-09  6.4863204863710568e-10  1.2673918911785738e-05  2.5310497086441938e-05  3.7994585008481852e-05  5.0609616959795429e-05  6.3299974604521102e-05  7.5958184874853931e-05  8.8630037153176881e-05  1.0125140366314354e-04  1.1390987297401084e-04  1.2661057855072765e-04  1.3919742760306621e-04  1.5190480857371478e-04  1.6456075206118195e-04  1.7724020221583948e-04  1.8988026545808175e-04  2.0248361941991197e-04  2.1521401448493010e-04  2.2782291806925560e-04  2.4053625197488867e-04  2.5314556913348749e-04  2.6581472769024813e-04  2.7850635967901881e-04  2.9113225857973270e-04  3.0378569240269333e-04  3.1645108156081673e-04  3.2911547182060282e-04  3.4178318557595783e-04  3.5443463098769774e-04  3.6708063509974400e-04  3.7974691574776839e-04  3.9238877141494361e-04  4.0507839762266701e-04  4.1770748554304757e-04  4.3038509284849992e-04  4.4303930910275869e-04  4.5570934448685733e-04  4.6835618235545475e-04  4.8099277243309185e-04  4.9366074369651847e-04  5.0632596368405081e-04  5.1900607824569380e-04  5.3163260410255366e-04  5.4429886739562302e-04  5.5694311100068039e-04  5.6962776179395286e-04  5.8229850678476560e-04  5.9491764570060934e-04  6.0758175582583860e-04  6.2022881080150754e-04  6.3293390856089841e-04  6.4555105783336089e-04  6.5820885848522667e-04  6.7088788220983654e-04  6.8353830666461463e-04  6.9620318454738871e-04  7.0885040318309663e-04  7.2152791389587967e-04  7.3416741270351717e-04  7.4684826705281979e-04  7.5947801214271593e-04  7.7214023779412591e-04  7.8477957061550720e-04  7.9749212382716371e-04  8.1010622029019288e-04  8.2276608729637494e-04  8.3544466508373892e-04  8.4809479179351701e-04  8.6075917500259705e-04  8.7340633744172611e-04  8.8608344665345150e-04  8.9872229080346347e-04  9.1140269685018472e-04  9.2403262442274439e-04  9.3669521574092944e-04  9.4933589976002998e-04  9.6204754245726699e-04  9.7466183105007743e-04  9.8732164760369527e-04  1.0000003275572021e-03  1.0126504165557891e-03  1.0253147928541858e-03  1.0379620938608613e-03  1.0506392410675380e-03  1.0632785033418068e-03  1.0759582792522944e-03  1.0885895915638995e-03  1.1012508905222582e-03  1.1138940863053665e-03  1.1266006374527058e-03  1.1392174533471986e-03  1.1518753909906991e-03  1.1645544540897891e-03  1.1772048685366626e-03  1.1898697814447063e-03  1.2025170008158352e-03  1.2151944978097328e-03  1.2278340756236112e-03  1.2405150078077707e-03  1.2531448071313538e-03  1.2658069193536381e-03  1.2784460940791561e-03  1.2911584676016780e-03  1.3037694477186171e-03  1.3164304052789410e-03  1.3291101724219199e-03  1.3417615626052334e-03  1.3544259025082862e-03  1.3670728937225326e-03  1.3797498578331695e-03  1.3923885591956798e-03  1.4050691483579827e-03  1.4176997073332477e-03  1.4303597706166835e-03  1.4430188026161017e-03  1.4556932019836606e-03  1.4683250808720405e-03  1.4810260574525664e-03  1.4936350683130092e-03  1.5063326609784829e-03  1.5189932994137858e-03  1.5316017494616896e-03  1.5443140960998856e-03  1.5569290623930233e-03  1.5695993234382825e-03  1.5822751934281805e-03  1.5949340429405731e-03  1.6075780092039140e-03  1.6202240213406005e-03  1.6328919386233564e-03  1.6455641118402267e-03  1.6582326528402022e-03  1.6708613241219607e-03  1.6835277837786039e-03  1.6961725891898552e-03  1.7088707432510537e-03  1.7214805071984192e-03  1.7341747210860511e-03  1.7468133573123699e-03  1.7594701878046670e-03  1.7721347561913997e-03  1.7848124110211140e-03  1.7974469196093286e-03  1.8101216008182682e-03  1.8227598786159059e-03  1.8354345624858792e-03  1.8480872930540699e-03  1.8607505118630177e-03  1.8733898185501609e-03  1.8860639890675708e-03  1.8987426522188682e-03  1.9113463397625130e-03  1.9240336047713314e-03  1.9366918599306084e-03  1.9493683743506509e-03  1.9619957849299251e-03  1.9746827116055255e-03  1.9873250871448845e-03  1.9999874600939846e-03  2.0126400987370489e-03  2.0253062071297102e-03  2.0379456864893777e-03  2.0506198567325096e-03  2.0632986113696796e-03  2.0759029915583972e-03  2.0885886806697950e-03  2.1012467032353820e-03  2.1139246465370692e-03  2.1265516152295591e-03  2.1392386297673610e-03  2.1518808841146813e-03  2.1645430507368679e-03  2.1771957888374943e-03  2.1898620782807464e-03  2.2025007591785087e-03  2.2151766874344394e-03  2.2278552872708342e-03  2.2404592469459708e-03  2.2531465818506841e-03  2.2658039757769088e-03  2.2784794697525567e-03  2.2911135571514478e-03  2.3037889079099978e-03  2.3164270318480709e-03  2.3291004659102997e-03  2.3417518755493812e-03  2.3544192267508086e-03  2.3670607732278778e-03  2.3797341153729982e-03  2.3924113854651673e-03  2.4050155869858678e-03  2.4177021664672058e-03  2.4303605837149617e-03  2.4430371288918923e-03  2.4556647989320162e-03  2.4683516271608403e-03  2.4809938299671145e-03  2.4936565204748459e-03  2.5063088601820190e-03  2.5189759987524481e-03  2.5316149406027677e-03  2.5442897978176105e-03  2.5569686682908235e-03  2.5695734332480792e-03  2.5822594836868826e-03  2.5949176621646061e-03  2.6075969613225799e-03  2.6202362734577098e-03  2.6328748993072340e-03  2.6455576505656289e-03  2.6582076382995492e-03  2.6708926350878012e-03  2.6835167322487893e-03  2.6961781847252278e-03  2.7088406317134612e-03  2.7215157106652938e-03  2.7341453701335882e-03  2.7468425587946362e-03  2.7594617205689586e-03  2.7721419930740224e-03  2.7847933661501903e-03  2.7974530128368879e-03  2.8100970629353393e-03  2.8227770556875772e-03  2.8354493757937350e-03  2.8480885217971215e-03  2.8607400566670296e-03  2.8734041883321615e-03  2.8860794673255096e-03  2.8987104785556730e-03  2.9113969448625204e-03  2.9240377143011677e-03  2.9367155283603675e-03  2.9493261580664830e-03  2.9620317792016680e-03  2.9746809687835394e-03  2.9873349330194754e-03  3.0000207847200849e-03  3.0126487821714090e-03  3.0253292248948577e-03  3.0379428762375179e-03  3.0506538261064514e-03  3.0633061568491014e-03  3.0759596665699477e-03  3.0885983747835485e-03  3.1012943641938297e-03  3.1139355637885427e-03  3.1266090566983871e-03  3.1392760211793429e-03  3.1519172271390044e-03  3.1645540909979683e-03  3.1645566214926696e-03  3.1645575253163218e-03  3.1645598858547584e-03  3.1645579221991761e-03  3.1645583499375399e-03  3.1645573793491234e-03  3.1645527471070608e-03  3.1645549080313346e-03  3.1645574045087188e-03  3.1645564950780304e-03  3.1645569886659974e-03  3.1645566800697564e-03  3.1645573883907424e-03  3.1645571594708286e-03  3.1645579343162560e-03  3.1645598872123508e-03  3.1645572714310757e-03  3.1645577409202541e-03  3.1645571374148023e-03  3.1645570053085935e-03  3.1645579924120125e-03  3.1645563002232059e-03  3.1645552931477161e-03  4.7496536204113588e-04  6.3923625892441961e-04  8.0572827575950824e-04  9.6803224930735684e-04  1.1329029629684969e-03  1.2974582971760332e-03  1.4612493944931053e-03  2.7283335125043127e-03  2.5631063922982376e-03  2.9936723772989969e-03  2.3985477208164751e-03  2.2342759849756292e-03  2.0694361615928268e-03  1.9059050159433845e-03  1.7404921677643740e-03  1.5905321648033565e-04  3.1645672515978504e-04  1.6018027944919653e-03  2.8605225308302716e-03  5.5652575216912233e-04  7.2141948059640051e-04  8.8597809137056568e-04  1.0506234844230786e-03  1.2153482795676988e-03  1.3797391714267680e-03  2.6462355288550572e-03  2.4789625341625709e-03  2.3144051936320170e-03  2.1498488262101344e-03  1.9852930142438266e-03  1.8235952296695439e-03  1.3784536309840525e-03  1.2168939477633211e-03  1.0508071060540505e-03  1.8227680886152018e-03  1.9867501136483128e-03  8.8626463744197312e-04  7.2352933926477859e-04  2.1514479853352799e-03  2.3164371279575072e-03  2.4811261341227469e-03  5.5715379843456804e-04  2.6476231938799750e-03  2.3873151890019156e-04  2.3653557622603660e-04  3.9305186809158077e-04  3.9787972363590474e-04  2.9165245270987034e-03  2.8057124780038246e-03  1.5397008638990903e-03  1.6620050352308497e-03  3.0678605036673439e-03  3.0680359017175442e-03  9.0316309124754366e-05  9.2654992587419441e-05  1.6781934518012326e-03  1.5241357373714701e-03  2.9373334173271146e-03  2.7820379979967991e-03  4.7466704116228762e-04  6.3924159430502861e-04  8.0421838472430048e-04  9.6963615452570664e-04  1.1329086586815227e-03  1.2974680853726694e-03  1.4620200529455651e-03  2.5602487883426023e-03  2.3956888634051659e-03  2.2311301166560381e-03  2.0665762290014581e-03  1.9050591027764767e-03  1.2947345483913634e-03  1.1302253002459278e-03  9.6626020821546476e-04  8.0106749823604035e-04  6.3655846700905953e-04  4.7517709724921500e-04  1.7387168708041690e-03  1.9050401375644620e-03  2.0719025781500986e-03  2.2364552668955812e-03  2.3987134191894095e-03  2.5655701387564218e-03  2.7269686912692417e-03  3.1276475519594125e-04  3.1295341122646833e-04  2.9920254644773005e-03  1.7526644906627666e-03  1.4514951762455216e-03  1.6587112535385189e-04  1.6587733344234346e-04  2.7135351115138858e-03  1.5896372117323524e-03  6.9317919570220684e-05  3.0030243571438366e-03  1.6014905213581239e-03  3.0970044201188642e-03  2.8750590895486369e-03  2.9291493804502518e-03  2.7935963084726504e-03  1.6658845666097787e-03  1.5269093066486927e-03  2.8612711185534113e-03  4.1285144818574762e-04  2.1984805018644774e-04  5.7785105884577102e-04  1.4008370352914319e-03  9.0696251880548391e-04  1.1942896647820658e-03  1.0715179851534978e-03  7.0042788242696873e-04  1.8021642009681353e-03  2.6665131281063863e-03  2.5008598204299959e-03  2.3354105167392313e-03  2.1721843808726249e-03  2.0078518909002123e-03  2.8619683253432323e-03  3.1083965241365916e-03  3.1081473414773103e-03  1.7911973949324960e-03  1.9568569078409525e-03  1.2455187944587821e-03  2.1215126010587335e-03  2.2859703073318523e-03  1.0827358295169036e-03  2.4506265017704659e-03  9.1826295485945679e-04  2.6151820799977829e-03  7.5453361189513791e-04  5.8775285504295872e-04  7.5181733585944139e-04  5.8897931633126522e-04  6.9137578512672030e-04  5.2364842039381637e-04  9.1809094492524687e-04  1.0826469414823199e-03  8.5291849346519138e-04  1.0174740493858110e-03  1.2452261984955515e-03  1.1850428589390190e-03  1.4117567488778709e-03  1.3465827277765186e-03  2.6123337955133107e-03  2.4474210985452808e-03  2.5111278808167730e-03  2.2828641683320812e-03  2.3465697721096004e-03  2.1183077126171218e-03  1.9537527781551662e-03  2.1820135193137040e-03  2.0174577566879500e-03  1.8548676228777041e-03  5.2618244614527538e-04  6.9070027719308970e-04  2.6776602861411170e-03  8.5412587929409583e-04  2.5118019703314967e-03  2.3465708198609245e-03  1.0186817399460534e-03  2.1836692594081378e-03  1.1833856284884021e-03  2.0181307539757914e-03  1.3476225632860286e-03  1.8556471038976246e-03  1.5924528623056701e-03  3.6308617482748006e-04  3.6318492043668473e-04  5.4237327906436734e-05  5.5042703448405116e-05  4.2638542655258215e-04  4.2638455681866174e-04  2.7764699091626195e-03  1.5103713100165454e-03  1.6927094910980005e-03  2.9436602711640438e-03  2.6603178036734942e-04  2.6695437945400919e-04  1.9563827909416724e-03  1.8555267715225315e-03  2.1211899896677821e-03  2.2857454266486965e-03  2.4483985137884971e-03  2.6129567002230181e-03  7.5385865368841844e-04  1.0183963769161259e-03  5.2480142536839966e-04  8.5502141210224531e-04  1.2475254168422937e-03  1.3496223706390654e-03  3.0443612325897831e-03  3.0375340656037570e-03  1.6416804843690850e-03  1.7991284083720186e-03  1.4021874261654706e-03  2.8243111960273340e-03  2.1220425095720667e-04  2.1250330458081969e-04  2.6659141601144800e-03  1.2628797253394590e-03  7.6921232474121734e-04  2.5962130995064586e-03  2.4316533565915768e-03  2.2677492069821444e-03  2.1025402875364486e-03  1.9361226546435338e-03  1.8714577811387463e-03  5.0935869766361428e-04  8.3837181315109786e-04  1.0028070390202901e-03  1.3320393277039223e-03  2.6825659302487202e-04  3.6303619976655563e-04  3.4783982573121177e-04  2.7595177226995278e-03  1.2135817977817765e-04  1.2153291479397759e-04  1.4928725999760078e-03  1.7073807853313792e-03  2.8356317621848313e-04  2.9609534879372875e-03  1.7079590771656502e-03  1.4945636066244800e-03  3.0228182804333805e-03  1.7735349889712671e-03  1.0989407696450294e-03  9.3436166279371171e-04  6.0527432946155303e-04  1.4276986657391171e-03  1.0956169750340344e-03  9.3113619762905922e-04  1.1658839260226736e-03  6.0194967304630972e-04  6.7336968315463220e-04  2.0352821059584484e-03  2.1998292155940113e-03  2.3643944570521935e-03  2.5289527329494200e-03  6.7204235811604504e-04  2.6910855252129232e-03  2.5289016128699614e-03  2.3635095856193596e-03  2.1998096683163298e-03  1.1669430681593260e-03  2.0350437974459268e-03  4.4376795035160071e-04  4.4244036866057765e-04  3.0499746642021386e-03  1.8549272577512012e-04  1.8879508525745844e-04  3.1131304783389145e-03  3.1156656771164138e-03  2.6946114109377521e-03  1.1372333791550268e-04  2.7547056307647335e-03  1.6291189440484763e-03  1.4364354126583491e-03  1.7725936322840132e-03  1.3930282784036107e-04  4.7542211449134474e-05  5.0316653243843550e-05  1.5469010259698359e-03  1.4821487452063846e-03  1.7217782862728726e-03  1.5577965678108270e-03  1.6449565905108437e-03  2.9625448297149379e-03  2.7433863856623345e-03  2.8277621548849102e-03  2.9131644789434762e-03  2.9748036076726473e-03  1.5592107320436476e-03  2.8962248893227840e-03  2.8219975475027846e-03  1.9434570120491089e-03  2.1084144387111775e-03  2.2729692861541430e-03  2.4373948010256545e-03  2.6018649737349756e-0