<?xml version="1.0"?>
<VTKFile type="UnstructuredGrid"  version="0.1"  >
<UnstructuredGrid>
<Piece  NumberOfPoints="8545" NumberOfCells="16538">
<Points>
<DataArray  type="Float64"  NumberOfComponents="3"  format="ascii">0 0 0  2 0 0  2 0.2 0  0 0.2 0  0.007999999999984813 0 0  0.01599999999996964 0 0  0.02399999999995461 0 0  0.03199999999993959 0 0  0.03999999999992457 0 0  0.04799999999990945 0 0  0.05599999999989373 0 0  0.06399999999987775 0 0  0.07199999999986065 0 0  0.07999999999984338 0 0  0.08799999999982558 0 0  0.09599999999980778 0 0  0.10399999999979 0 0  0.1119999999997726 0 0  0.1199999999997562 0 0  0.1279999999997408 0 0  0.1359999999997272 0 0  0.1439999999997141 0 0  0.1519999999997019 0 0  0.1599999999996896 0 0  0.1679999999996774 0 0  0.1759999999996651 0 0  0.1839999999996529 0 0  0.1919999999996407 0 0  0.1999999999996284 0 0  0.2079999999996162 0 0  0.2159999999996039 0 0  0.2239999999995916 0 0  0.2319999999995794 0 0  0.2399999999995652 0 0  0.2479999999995501 0 0  0.2559999999995309 0 0  0.2639999999995103 0 0  0.2719999999994875 0 0  0.2799999999994642 0 0  0.2879999999994408 0 0  0.2959999999994175 0 0  0.3039999999993941 0 0  0.3119999999993708 0 0  0.3199999999993474 0 0  0.3279999999993241 0 0  0.3359999999993007 0 0  0.3439999999992774 0 0  0.351999999999254 0 0  0.3599999999992307 0 0  0.3679999999992074 0 0  0.375999999999184 0 0  0.3839999999991606 0 0  0.3919999999991373 0 0  0.3999999999991139 0 0  0.4079999999990906 0 0  0.4159999999990672 0 0  0.4239999999990439 0 0  0.4319999999990204 0 0  0.4399999999989971 0 0  0.4479999999989738 0 0  0.4559999999989504 0 0  0.463999999998927 0 0  0.4719999999989037 0 0  0.4799999999988804 0 0  0.487999999998857 0 0  0.4959999999988337 0 0  0.5039999999988103 0 0  0.511999999998787 0 0  0.5199999999987636 0 0  0.5279999999987403 0 0  0.5359999999987169 0 0  0.5439999999986936 0 0  0.5519999999986703 0 0  0.559999999998647 0 0  0.5679999999986237 0 0  0.5759999999986004 0 0  0.583999999998577 0 0  0.5919999999985537 0 0  0.5999999999985304 0 0  0.6079999999985071 0 0  0.6159999999984838 0 0  0.6239999999984605 0 0  0.6319999999984371 0 0  0.6399999999984138 0 0  0.6479999999983904 0 0  0.6559999999983671 0 0  0.6639999999983438 0 0  0.6719999999983205 0 0  0.6799999999982972 0 0  0.6879999999982739 0 0  0.6959999999982506 0 0  0.7039999999982272 0 0  0.7119999999982038 0 0  0.7199999999981805 0 0  0.7279999999981572 0 0  0.7359999999981339 0 0  0.7439999999981106 0 0  0.7519999999980873 0 0  0.759999999998064 0 0  0.7679999999980406 0 0  0.7759999999980173 0 0  0.783999999997994 0 0  0.7919999999979707 0 0  0.7999999999979474 0 0  0.807999999997924 0 0  0.8159999999979007 0 0  0.8239999999978773 0 0  0.831999999997854 0 0  0.8399999999978307 0 0  0.8479999999978074 0 0  0.855999999997784 0 0  0.8639999999977607 0 0  0.8719999999977374 0 0  0.8799999999977141 0 0  0.8879999999976906 0 0  0.8959999999976673 0 0  0.903999999997644 0 0  0.9119999999976207 0 0  0.9199999999975974 0 0  0.9279999999975741 0 0  0.9359999999975508 0 0  0.9439999999975274 0 0  0.9519999999975041 0 0  0.9599999999974808 0 0  0.9679999999974574 0 0  0.9759999999974341 0 0  0.9839999999974108 0 0  0.9919999999973981 0 0  0.9999999999973858 0 0  1.007999999997396 0 0  1.015999999997406 0 0  1.023999999997427 0 0  1.031999999997449 0 0  1.039999999997469 0 0  1.04799999999749 0 0  1.055999999997512 0 0  1.063999999997533 0 0  1.071999999997554 0 0  1.079999999997575 0 0  1.087999999997596 0 0  1.095999999997617 0 0  1.103999999997638 0 0  1.111999999997659 0 0  1.11999999999768 0 0  1.127999999997702 0 0  1.135999999997722 0 0  1.143999999997744 0 0  1.151999999997765 0 0  1.159999999997786 0 0  1.167999999997807 0 0  1.175999999997828 0 0  1.183999999997849 0 0  1.19199999999787 0 0  1.199999999997891 0 0  1.207999999997912 0 0  1.215999999997933 0 0  1.223999999997955 0 0  1.231999999997976 0 0  1.239999999997997 0 0  1.247999999998018 0 0  1.255999999998039 0 0  1.26399999999806 0 0  1.271999999998081 0 0  1.279999999998102 0 0  1.287999999998123 0 0  1.295999999998144 0 0  1.303999999998166 0 0  1.311999999998186 0 0  1.319999999998208 0 0  1.327999999998229 0 0  1.33599999999825 0 0  1.343999999998271 0 0  1.351999999998292 0 0  1.359999999998313 0 0  1.367999999998334 0 0  1.375999999998355 0 0  1.383999999998376 0 0  1.391999999998397 0 0  1.399999999998418 0 0  1.40799999999844 0 0  1.41599999999846 0 0  1.423999999998482 0 0  1.431999999998503 0 0  1.439999999998524 0 0  1.447999999998545 0 0  1.455999999998566 0 0  1.463999999998587 0 0  1.471999999998608 0 0  1.479999999998629 0 0  1.48799999999865 0 0  1.495999999998672 0 0  1.503999999998693 0 0  1.511999999998714 0 0  1.519999999998735 0 0  1.527999999998756 0 0  1.535999999998777 0 0  1.543999999998798 0 0  1.551999999998819 0 0  1.55999999999884 0 0  1.567999999998861 0 0  1.575999999998882 0 0  1.583999999998904 0 0  1.591999999998924 0 0  1.599999999998946 0 0  1.607999999998967 0 0  1.615999999998988 0 0  1.623999999999009 0 0  1.63199999999903 0 0  1.639999999999051 0 0  1.647999999999072 0 0  1.655999999999093 0 0  1.663999999999114 0 0  1.671999999999136 0 0  1.679999999999157 0 0  1.687999999999177 0 0  1.695999999999199 0 0  1.70399999999922 0 0  1.711999999999241 0 0  1.719999999999262 0 0  1.727999999999283 0 0  1.735999999999304 0 0  1.743999999999325 0 0  1.751999999999346 0 0  1.759999999999367 0 0  1.767999999999389 0 0  1.775999999999409 0 0  1.783999999999431 0 0  1.791999999999452 0 0  1.799999999999473 0 0  1.807999999999494 0 0  1.815999999999515 0 0  1.823999999999536 0 0  1.831999999999557 0 0  1.839999999999578 0 0  1.847999999999599 0 0  1.85599999999962 0 0  1.863999999999641 0 0  1.871999999999663 0 0  1.879999999999684 0 0  1.887999999999705 0 0  1.895999999999726 0 0  1.903999999999747 0 0  1.911999999999768 0 0  1.919999999999789 0 0  1.92799999999981 0 0  1.935999999999831 0 0  1.943999999999853 0 0  1.951999999999873 0 0  1.959999999999895 0 0  1.967999999999916 0 0  1.975999999999937 0 0  1.983999999999958 0 0  1.991999999999979 0 0  2 0.007999999999985056 0  2 0.01599999999997076 0  2 0.02399999999995914 0  2 0.03199999999993772 0  2 0.03999999999991205 0  2 0.04799999999988908 0  2 0.05599999999986612 0  2 0.06399999999984315 0  2 0.07199999999982019 0  2 0.07999999999979179 0  2 0.08799999999976883 0  2 0.09599999999974587 0  2 0.1039999999997452 0  2 0.1119999999997669 0  2 0.1199999999997886 0  2 0.1279999999998103 0  2 0.135999999999832 0  2 0.1439999999998537 0  2 0.1519999999998738 0  2 0.1599999999998949 0  2 0.1679999999999159 0  2 0.175999999999937 0  2 0.183999999999958 0  2 0.191999999999979 0  1.991999999999967 0.2 0  1.983999999999933 0.2 0  1.9759999999999 0.2 0  1.967999999999867 0.2 0  1.959999999999834 0.2 0  1.9519999999998 0.2 0  1.943999999999767 0.2 0  1.935999999999734 0.2 0  1.9279999999997 0.2 0  1.919999999999667 0.2 0  1.911999999999634 0.2 0  1.9039999999996 0.2 0  1.895999999999567 0.2 0  1.887999999999534 0.2 0  1.879999999999501 0.2 0  1.871999999999467 0.2 0  1.863999999999434 0.2 0  1.855999999999401 0.2 0  1.847999999999367 0.2 0  1.839999999999334 0.2 0  1.831999999999301 0.2 0  1.823999999999268 0.2 0  1.815999999999234 0.2 0  1.807999999999201 0.2 0  1.799999999999168 0.2 0  1.791999999999135 0.2 0  1.783999999999101 0.2 0  1.775999999999068 0.2 0  1.767999999999035 0.2 0  1.759999999999017 0.2 0  1.751999999999006 0.2 0  1.743999999999028 0.2 0  1.735999999999061 0.2 0  1.727999999999112 0.2 0  1.719999999999168 0.2 0  1.711999999999223 0.2 0  1.703999999999279 0.2 0  1.695999999999334 0.2 0  1.68799999999939 0.2 0  1.679999999999446 0.2 0  1.671999999999501 0.2 0  1.663999999999557 0.2 0  1.655999999999612 0.2 0  1.647999999999668 0.2 0  1.639999999999723 0.2 0  1.631999999999779 0.2 0  1.623999999999834 0.2 0  1.61599999999989 0.2 0  1.607999999999945 0.2 0  1.600000000000001 0.2 0  1.592000000000056 0.2 0  1.584000000000112 0.2 0  1.576000000000167 0.2 0  1.568000000000223 0.2 0  1.560000000000279 0.2 0  1.552000000000334 0.2 0  1.54400000000039 0.2 0  1.536000000000445 0.2 0  1.528000000000501 0.2 0  1.520000000000556 0.2 0  1.512000000000612 0.2 0  1.504000000000667 0.2 0  1.496000000000723 0.2 0  1.488000000000778 0.2 0  1.480000000000834 0.2 0  1.472000000000889 0.2 0  1.464000000000945 0.2 0  1.456000000001 0.2 0  1.448000000001056 0.2 0  1.440000000001112 0.2 0  1.432000000001167 0.2 0  1.424000000001223 0.2 0  1.416000000001278 0.2 0  1.408000000001334 0.2 0  1.400000000001389 0.2 0  1.392000000001445 0.2 0  1.3840000000015 0.2 0  1.376000000001556 0.2 0  1.368000000001611 0.2 0  1.360000000001667 0.2 0  1.352000000001722 0.2 0  1.344000000001778 0.2 0  1.336000000001833 0.2 0  1.328000000001889 0.2 0  1.320000000001944 0.2 0  1.312000000002 0.2 0  1.304000000002055 0.2 0  1.296000000002111 0.2 0  1.288000000002166 0.2 0  1.280000000002222 0.2 0  1.272000000002277 0.2 0  1.264000000002333 0.2 0  1.256000000002388 0.2 0  1.248000000002444 0.2 0  1.240000000002499 0.2 0  1.232000000002555 0.2 0  1.22400000000261 0.2 0  1.216000000002666 0.2 0  1.208000000002721 0.2 0  1.200000000002777 0.2 0  1.192000000002832 0.2 0  1.184000000002888 0.2 0  1.176000000002943 0.2 0  1.168000000002999 0.2 0  1.160000000003054 0.2 0  1.15200000000311 0.2 0  1.144000000003165 0.2 0  1.136000000003221 0.2 0  1.128000000003276 0.2 0  1.120000000003332 0.2 0  1.112000000003387 0.2 0  1.104000000003443 0.2 0  1.096000000003498 0.2 0  1.088000000003554 0.2 0  1.080000000003609 0.2 0  1.072000000003665 0.2 0  1.06400000000372 0.2 0  1.056000000003776 0.2 0  1.048000000003831 0.2 0  1.040000000003887 0.2 0  1.032000000003942 0.2 0  1.024000000003998 0.2 0  1.016000000004053 0.2 0  1.008000000004088 0.2 0  1.000000000004121 0.2 0  0.99200000000411 0.2 0  0.984000000004098 0.2 0  0.9760000000040647 0.2 0  0.9680000000040314 0.2 0  0.9600000000039981 0.2 0  0.9520000000039648 0.2 0  0.9440000000039312 0.2 0  0.9360000000038982 0.2 0  0.928000000003864
[...]
<PointData  Scalars="pressure"> 
<DataArray  type="Float64"  Name="pressure"  format="ascii">3.1645326266891804e-03  4.0307775502721244e-08  3.8903431096292310e-08  3.1645365991191704e-03  3.1519283268315952e-03  3.1392748504159669e-03  3.1265947701020736e-03  3.1139643212087921e-03  3.1012634282647058e-03  3.0886188140986288e-03  3.0759632839252931e-03  3.0633257614379157e-03  3.0506399185926125e-03  3.0379777189909799e-03  3.0253242756466073e-03  3.0126618299185365e-03  3.0000184731405351e-03  2.9873364998837613e-03  2.9746979004602030e-03  2.9620275398128688e-03  2.9493663950091974e-03  2.9367102996953401e-03  2.9240645072031251e-03  2.9113850042066440e-03  2.8987212041423028e-03  2.8860963887629293e-03  2.8734085260775657e-03  2.8607672763047397e-03  2.8480896219522751e-03  2.8354359650984546e-03  2.8227755386114450e-03  2.8101428057773093e-03  2.7974554941057701e-03  2.7847973320330659e-03  2.7721558962160958e-03  2.7594828324028504e-03  2.7468411421806027e-03  2.7341858592619763e-03  2.7214635351122543e-03  2.7088712334545051e-03  2.6961863159259435e-03  2.6835675019358002e-03  2.6708554551584164e-03  2.6582067301586642e-03  2.6455695889049569e-03  2.6329216018108384e-03  2.6202464861786565e-03  2.6075943078203902e-03  2.5949042497414717e-03  2.5822801092756325e-03  2.5696020340350871e-03  2.5569530312518178e-03  2.5443051221124098e-03  2.5316237583903321e-03  2.5189840079271448e-03  2.5063160796202910e-03  2.4936656451993258e-03  2.4809914675944481e-03  2.4683535466108516e-03  2.4556790679678936e-03  2.4430421885791448e-03  2.4303739522390237e-03  2.4177080992766990e-03  2.4050211823726619e-03  2.3924195864232999e-03  2.3797421385724029e-03  2.3670679494716914e-03  2.3544265856090736e-03  2.3417588261138303e-03  2.3291082794849143e-03  2.3164342466560780e-03  2.3037984137423174e-03  2.2911177148396767e-03  2.2784854697229474e-03  2.2658173063356594e-03  2.2531605893938412e-03  2.2404631130152042e-03  2.2278641353520173e-03  2.2151851828619219e-03  2.2025111139670150e-03  2.1898698498907685e-03  2.1772021510980707e-03  2.1645518107071124e-03  2.1518777872010712e-03  2.1392400066509425e-03  2.1265656753430406e-03  2.1139289338813353e-03  2.1012608301471487e-03  2.0885951031832262e-03  2.0759083050394369e-03  2.0633068190608573e-03  2.0506294738736382e-03  2.0379553836569492e-03  2.0253141110650680e-03  2.0126464170093384e-03  1.9999960474436926e-03  1.9873220033615781e-03  1.9746842087677336e-03  1.9620098169771307e-03  1.9493733278954529e-03  1.9367038823313750e-03  1.9240418443864655e-03  1.9113521800710478e-03  1.8987502181990097e-03  1.8860739795936610e-03  1.8734045455223447e-03  1.8607624303216281e-03  1.8480794171004942e-03  1.8354424319530843e-03  1.8227743671800007e-03  1.8101025391385477e-03  1.7974777929572285e-03  1.7848025929132071e-03  1.7721463247088671e-03  1.7594654791483581e-03  1.7468517493615002e-03  1.7341729160324571e-03  1.7214833161866457e-03  1.7088861234756810e-03  1.6961649400931127e-03  1.6835406565476566e-03  1.6709060296656484e-03  1.6582072737059924e-03  1.6455553095843529e-03  1.6329240844881287e-03  1.6202291084431960e-03  1.6076010457042429e-03  1.5949274040745439e-03  1.5822671655600028e-03  1.5696156556563373e-03  1.5569700019600202e-03  1.5442900143273846e-03  1.5316445357856010e-03  1.5189715996017188e-03  1.5063427901134880e-03  1.4936562255313162e-03  1.4810163332028203e-03  1.4683335870183600e-03  1.4556863144242855e-03  1.4430556829200308e-03  1.4303596650596000e-03  1.4177138412055433e-03  1.4050514863035548e-03  1.3924157110045173e-03  1.3797302899766857e-03  1.3670741990723548e-03  1.3544571538382478e-03  1.3417391044295267e-03  1.3291141733596855e-03  1.3164395492240371e-03  1.3037805691257290e-03  1.2911647211081025e-03  1.2784521308957806e-03  1.2658102439229435e-03  1.2531470882932946e-03  1.2405239864007377e-03  1.2278320039279692e-03  1.2151967795515396e-03  1.2025288005557847e-03  1.1898745027803855e-03  1.1772074369513533e-03  1.1645567521410024e-03  1.1518786208341732e-03  1.1392204508038611e-03  1.1266073676407680e-03  1.1138941646337216e-03  1.1012534869135825e-03  1.0885909212561566e-03  1.0759679566477967e-03  1.0632753022521877e-03  1.0506384916818680e-03  1.0379714751152531e-03  1.0253188967186194e-03  1.0126533755574637e-03  1.0000062120422242e-03  9.8732510684956007e-04  9.7466696968852393e-04  9.6205257867674283e-04  9.4933951385239477e-04  9.3669805813155948e-04  9.2403385643211554e-04  9.1141135451788303e-04  8.9871901546273480e-04  8.8608160542561929e-04  8.7341472544080929e-04  8.6076205104923065e-04  8.4809652009330860e-04  8.3544951772296654e-04  8.2276849433404980e-04  8.1011044672884473e-04  7.9749616921587978e-04  7.8478310848649621e-04  7.7214194177379074e-04  7.5947790469057120e-04  7.4685539138797123e-04  7.3416417492262948e-04  7.2152737525223859e-04  7.0885948784756546e-04  6.9620530460351166e-04  6.8353824083163179e-04  6.7088792467896751e-04  6.5820995875930392e-04  6.4555184765576325e-04  6.3293872646418220e-04  6.2022524020474256e-04  6.0758533806396474e-04  5.9492156844004156e-04  5.8230028329042834e-04  5.6963246507915686e-04  5.5694538553487788e-04  5.4430211174990575e-04  5.3162802072927553e-04  5.1900726965247378e-04  5.0632646287340733e-04  4.9366300471861177e-04  4.8099108022326374e-04  4.6836040450559869e-04  4.5571200047309421e-04  4.4303970061467386e-04  4.3038772062614319e-04  4.1770875533231886e-04  4.0507981324641582e-04  3.9239044640300191e-04  3.7974757598045365e-04  3.6708233719401839e-04  3.5443626044461977e-04  3.4178491540780525e-04  3.2911516722212124e-04  3.1645289066506118e-04  3.0378583467230251e-04  2.9113412414102382e-04  2.7850310515970032e-04  2.6581721317751981e-04  2.5316242605629146e-04  2.4053634391299405e-04  2.2782432337554716e-04  2.1521923127771692e-04  2.0249343976118885e-04  1.8988025812454660e-04  1.7724153010845262e-04  1.6455784635152824e-04  1.5190961418316408e-04  1.3920149533964477e-04  1.2660962743942761e-04  1.1390873409992208e-04  1.0124982875052256e-04  8.8629011473984883e-05  7.5958334067127958e-05  6.3301851866195838e-05  5.0603418756214108e-05  3.8001472977210970e-05  2.5297626578110565e-05  1.2673763682873374e-05  5.2299221961276226e-10  1.0404183840017267e-08  3.8675756291130074e-10  1.3194560335894175e-09  -4.4097837957341651e-09  -1.9946781134881293e-09  -1.3697771568768801e-09  -2.5720521292693896e-09  -7.9068822280633763e-10  -1.1571167588471069e-10  -8.5670197497609702e-10  -4.3868893959297326e-10  -9.6632118474490891e-10  1.4777444617889941e-10  2.9756863216453467e-10  1.2143045495244523e-09  -2.6167399430521090e-09  -1.5722881759163374e-09  -6.5231239292004961e-09  -4.8105181970412803e-09  2.1274011531671479e-09  -3.6292979044478329e-09  9.6566552345194358e-09  6.6885404522379924e-10  1.2673849118859051e-05  2.5310072861990228e-05  3.7994893318343054e-05  5.0608849879381830e-05  6.3300598822438474e-05  7.5958596881378789e-05  8.8630762647521412e-05  1.0125080240646055e-04  1.1391013952008873e-04  1.2661145684459164e-04  1.3919684506980795e-04  1.5190591858552004e-04  1.6456156582510281e-04  1.7724146798033769e-04  1.8988046030124527e-04  2.0248353148731371e-04  2.1521586280519133e-04  2.2782303258626755e-04  2.4053811257060555e-04  2.5314564303961486e-04  2.6581567637245292e-04  2.7850793014894202e-04  2.9113293549949801e-04  3.0378625028247802e-04  3.1645208252371019e-04  3.2911675561919548e-04  3.4178469666996529e-04  3.5443589271247518e-04  3.6708159206233390e-04  3.7974859396619335e-04  3.9238988081915902e-04  4.0508038246131348e-04  4.1770851562983763e-04  4.3038697454110639e-04  4.4304085111145243e-04  4.5571113547785422e-04  4.6835749111533820e-04  4.8099400924660364e-04  4.9366272525554406e-04  5.0632788511251669e-04  5.1900834973068999e-04  5.3163392057011579e-04  5.4430075115330411e-04  5.5694466013329403e-04  5.6963033658859164e-04  5.8230097890545236e-04  5.9491926789454917e-04  6.0758382069382570e-04  6.2023081633824542e-04  6.3293722231541724e-04  6.4555314824362180e-04  6.5821098290258203e-04  6.7089059314616852e-04  6.8354058322742930e-04  6.9620562027469031e-04  7.0885266085602046e-04  7.2153087501397681e-04  7.3416971153540699e-04  7.4685124055985533e-04  7.5948036844868268e-04  7.7214273654805060e-04  7.8478196306874814e-04  7.9749591199041218e-04  8.1010890134431454e-04  8.2276879469264956e-04  8.3544800364143668e-04  8.4809765237370532e-04  8.6076217908438041e-04  8.7340922475641542e-04  8.8608705604911644e-04  8.9872522943131483e-04  9.1140626962514179e-04  9.2403552839307617e-04  9.3669827071316523e-04  9.4933890367644572e-04  9.6205191156253803e-04  9.7466510876695084e-04  9.8732494541798666e-04  1.0000042595150053e-03  1.0126538746468377e-03  1.0253183955131182e-03  1.0379655752628721e-03  1.0506434509383489e-03  1.0632820481806223e-03  1.0759624804632280e-03  1.0885931364163547e-03  1.1012546725398613e-03  1.1138978032876460e-03  1.1266057834050781e-03  1.1392213379930482e-03  1.1518793195557349e-03  1.1645589660791956e-03  1.1772089501359702e-03  1.1898740194388529e-03  1.2025210600431957e-03  1.2151992581569140e-03  1.2278381727316729e-03  1.2405197862101435e-03  1.2531489776905097e-03  1.2658112495581952e-03  1.2784503450424681e-03  1.2911641399224907e-03  1.3037740627491066e-03  1.3164349731062191e-03  1.3291152466042256e-03  1.3417662276781878e-03  1.3544307473281655e-03  1.3670776186004922e-03  1.3797553091930413e-03  1.3923933138766322e-03  1.4050745206094059e-03  1.4177043701244700e-03  1.4303647833528847e-03  1.4430240479493190e-03  1.4556986090520597e-03  1.4683299706941468e-03  1.4810323966436589e-03  1.4936396949397350e-03  1.5063388745642995e-03  1.5189990435500907e-03  1.5316063456682230e-03  1.5443204017238279e-03  1.5569341229262304e-03  1.5696051842424366e-03  1.5822815967141454e-03  1.5949400114468539e-03  1.6075837527027475e-03  1.6202295439527187e-03  1.6328978560684907e-03  1.6455703071564908e-03  1.6582389096436471e-03  1.6708668932447614e-03  1.6835337759336870e-03  1.6961784670987783e-03  1.7088776458530676e-03  1.7214861248796853e-03  1.7341815182554756e-03  1.7468195914578455e-03  1.7594767407822622e-03  1.7721414663368132e-03  1.7848194229108225e-03  1.7974530858933036e-03  1.8101284750197458e-03  1.8227660884518515e-03  1.8354413724979484e-03  1.8480939218255971e-03  1.8607573565765595e-03  1.8733962719924449e-03  1.8860711174634459e-03  1.8987502382325815e-03  1.9113525051890064e-03  1.9240410803995872e-03  1.9366991107761424e-03  1.9493758346701127e-03  1.9620021387677178e-03  1.9746901618612912e-03  1.9873319337879694e-03  1.9999945629227108e-03  2.0126471364877900e-03  2.0253135065091991e-03  2.0379525690277026e-03  2.0506273875383649e-03  2.0633065829892914e-03  2.0759095277250545e-03  2.0885965142841676e-03  2.1012543022536144e-03  2.1139324744599351e-03  2.1265582828400545e-03  2.1392463902497106e-03  2.1518880307903844e-03  2.1645504330965568e-03  2.1772030697701046e-03  2.1898696016767658e-03  2.2025078257088193e-03  2.2151844182058526e-03  2.2278633776599763e-03  2.2404659137953997e-03  2.2531546479368607e-03  2.2658117934208919e-03  2.2784875593956982e-03  2.2911207533789953e-03  2.3037968039130489e-03  2.3164342618325214e-03  2.3291082892737650e-03  2.3417593298319149e-03  2.3544267064897493e-03  2.3670679031426514e-03  2.3797419523179076e-03  2.3924196149541430e-03  2.4050224304404005e-03  2.4177103179102597e-03  2.4303684658841009e-03  2.4430451746177938e-03  2.4556717186240574e-03  2.4683596044616780e-03  2.4810011594301505e-03  2.4936640102300668e-03  2.5063162050118944e-03  2.5189835951140841e-03  2.5316220625845771e-03  2.5442975266458316e-03  2.5569767689347816e-03  2.5695800463940693e-03  2.5822673207585183e-03  2.5949252117643692e-03  2.6076047144391015e-03  2.6202429470417519e-03  2.6328815414885971e-03  2.6455651585876165e-03  2.6582145491614844e-03  2.6708998906588188e-03  2.6835230073140029e-03  2.6961845976902913e-03  2.7088472057493068e-03  2.7215223580476077e-03  2.7341513022725011e-03  2.7468497098345969e-03  2.7594672212450095e-03  2.7721480500373596e-03  2.7847989002262917e-03  2.7974583145262020e-03  2.8101019026689090e-03  2.8227826572579115e-03  2.8354549257178416e-03  2.8480929945583198e-03  2.8607443518675734e-03  2.8734087199695840e-03  2.8860840259134742e-03  2.8987137943091001e-03  2.9114011127856355e-03  2.9240409932718204e-03  2.9367188194225659e-03  2.9493281836904211e-03  2.9620351969763636e-03  2.9746835175805146e-03  2.9873371607123597e-03  3.0000236581146028e-03  3.0126501943558903e-03  3.0253307259752050e-03  3.0379431441531759e-03  3.0506556719822890e-03  3.0633071190564504e-03  3.0759599051476375e-03  3.0885981226998647e-03  3.1012950991128425e-03  3.1139352764025146e-03  3.1266090069239634e-03  3.1392759043821624e-03  3.1519165944046421e-03  3.1645540249307471e-03  3.1645563832979344e-03  3.1645578095938617e-03  3.1645599072943633e-03  3.1645579265924648e-03  3.1645584309941944e-03  3.1645574784223769e-03  3.1645534134901177e-03  3.1645549557257763e-03  3.1645573047776781e-03  3.1645565025331594e-03  3.1645569632558542e-03  3.1645566814657218e-03  3.1645572875453982e-03  3.1645571944599964e-03  3.1645577907636266e-03  3.1645597235797607e-03  3.1645573188569462e-03  3.1645576355121279e-03  3.1645570892293346e-03  3.1645569196704594e-03  3.1645579624924500e-03  3.1645559815801963e-03  3.1645551599603569e-03  4.7496710115680068e-04  6.3923863016195407e-04  8.0573136412143967e-04  9.6803586645458864e-04  1.1329071403751939e-03  1.2974631496189153e-03  1.4612546530509204e-03  2.7283387893646668e-03  2.5631135160741072e-03  2.9936736861709218e-03  2.3985555673807662e-03  2.2342837023438269e-03  2.0694435920752094e-03  1.9059120368032354e-03  1.7404987117265089e-03  1.5905371884994095e-04  3.1645763594155855e-04  1.6018084321168726e-03  2.8605256656456025e-03  5.5652815672040557e-04  7.2142211030624135e-04  8.8598096804975730e-04  1.0506274114050807e-03  1.2153524110150690e-03  1.3797438407876805e-03  2.6462411030020090e-03  2.4789695645218929e-03  2.3144126109362838e-03  2.1498561042823067e-03  1.9852999037164531e-03  1.8236016924652867e-03  1.3784586617743349e-03  1.2168988630816601e-03  1.0508117954516050e-03  1.8227749625828967e-03  1.9867571983756770e-03  8.8626879913156805e-04  7.2353226581758218e-04  2.1514554785621678e-03  2.3164449349618683e-03  2.4811339238063911e-03  5.5715671445102574e-04  2.6476295398460891e-03  2.3873243240238006e-04  2.3653664710823153e-04  3.9305312935343110e-04  3.9788125084101701e-04  2.9165272024304755e-03  2.8057173401683927e-03  1.5397068192222786e-03  1.6620111813955346e-03  3.0678603194319969e-03  3.0680373279713511e-03  9.0316842732017315e-05  9.2655227019882629e-05  1.6782000081739835e-03  1.5241415961985457e-03  2.9373349605739045e-03  2.7820421043903338e-03  4.7466903340493598e-04  6.3924357383866274e-04  8.0422096392463111e-04  9.6963995259526689e-04  1.1329124142147793e-03  1.2974721174613107e-03  1.4620251314920426e-03  2.5602555745750993e-03  2.3956967366867347e-03  2.2311381215405863e-03  2.0665838851976464e-03  1.9050654086334459e-03  1.2947392308983688e-03  1.1302294562834411e-03  9.6626350931832241e-04  8.0107037328495825e-04  6.3656085565270179e-04  4.7517876830496401e-04  1.7387233754095268e-03  1.9050474089836961e-03  2.0719097803559112e-03  2.2364630788211221e-03  2.3987217018718644e-03  2.5655777348300365e-03  2.7269748838248385e-03  3.1276570086066898e-04  3.1295443918407696e-04  2.9920278523397673e-03  1.7526712001876027e-03  1.4515003279096004e-03  1.6587212333389747e-04  1.6587770723076748e-04  2.7135395364875844e-03  1.5896433273924558e-03  6.9318014588390801e-05  3.0030244778580842e-03  1.6014968901772047e-03  3.0970045954946670e-03  2.8750615256144946e-03  2.9291515784972857e-03  2.7936007608314064e-03  1.6658907377107622e-03  1.5269148544227549e-03  2.8612756851096755e-03  4.1285280577000309e-04  2.1984875170686513e-04  5.7785317896412892e-04  1.4008419884237134e-03  9.0696579585856408e-04  1.1942938882328253e-03  1.0715218647330672e-03  7.0043041560260012e-04  1.8021708477983635e-03  2.6665191580208421e-03  2.5008667806711610e-03  2.3354181495881432e-03  2.1721918217014317e-03  2.0078587934698566e-03  2.8619719432789212e-03  3.1083953374367785e-03  3.1081471934340877e-03  1.7912037913377446e-03  1.9568638361482584e-03  1.2455231923695739e-03  2.1215198370789826e-03  2.2859776478631219e-03  1.0827396932525035e-03  2.4506337815271943e-03  9.1826623851701250e-04  2.6151890387000358e-03  7.5453645545590020e-04  5.8775507070018293e-04  7.5181990525462726e-04  5.8898124843896756e-04  6.9137827779651071e-04  5.2365044992622417e-04  9.1809385805192675e-04  1.0826506455190199e-03  8.5292160422459297e-04  1.0174777543300465e-03  1.2452305439060148e-03  1.1850471040671126e-03  1.4117616524226221e-03  1.3465877106727474e-03  2.6123397173039788e-03  2.4474285228402461e-03  2.5111351686520379e-03  2.2828718629288791e-03  2.3465777321275256e-03  2.1183152465528501e-03  1.9537598060935996e-03  2.1820213760021254e-03  2.0174652505347253e-03  1.8548745916986602e-03  5.2618386869145238e-04  6.9070268067270642e-04  2.6776669386993027e-03  8.5412895009465682e-04  2.5118096253390846e-03  2.3465785041020476e-03  1.0186853991754571e-03  2.1836769776443846e-03  1.1833898932575775e-03  2.0181381370270009e-03  1.3476279016634933e-03  1.8556540635533529e-03  1.5924585749305788e-03  3.6308716977274128e-04  3.6318608936554170e-04  5.4237282175357884e-05  5.5042454869639614e-05  4.2638691378832496e-04  4.2638617471844079e-04  2.7764754246949516e-03  1.5103771500847804e-03  1.6927153554274850e-03  2.9436629779978560e-03  2.6603257687371392e-04  2.6695537940764948e-04  1.9563897114482677e-03  1.8555336653470617e-03  2.1211973648584759e-03  2.2857530978366196e-03  2.4484058984136246e-03  2.6129632598202602e-03  7.5386139377470033e-04  1.0183999253202229e-03  5.2480315355422902e-04  8.5502430896813148e-04  1.2475298917345855e-03  1.3496272145463208e-03  3.0443620402964833e-03  3.0375354237067950e-03  1.6416864445484658e-03  1.7991347767364982e-03  1.4021919236539009e-03  2.8243145406345155e-03  2.1220466782904051e-04  2.1250411917968619e-04  2.6659191045915040e-03  1.2628843144802772e-03  7.6921525929456744e-04  2.5962197824004251e-03  2.4316611127105556e-03  2.2677571140498633e-03  2.1025479935048237e-03  1.9361295632767468e-03  1.8714645308810726e-03  5.0936055750544246e-04  8.3837484224851347e-04  1.0028106956667577e-03  1.3320439899866475e-03  2.6825780443092486e-04  3.6303744487079301e-04  3.4784110096902746e-04  2.7595228804889178e-03  1.2135846211472665e-04  1.2153326975799137e-04  1.4928783975880434e-03  1.7073868869527441e-03  2.8356464866297911e-04  2.9609561282224728e-03  1.7079651731600500e-03  1.4945686364741071e-03  3.0228185895275488e-03  1.7735415666763074e-03  1.0989443340320678e-03  9.3436478637905999e-04  6.0527595184964897e-04  1.4277023945029441e-03  1.0956201824918502e-03  9.3113939792529134e-04  1.1658878742291778e-03  6.0195118937547438e-04  6.7337197220528435e-04  2.0352890505604378e-03  2.1998374442946458e-03  2.3644017688106631e-03  2.5289593810698440e-03  6.7204453536684873e-04  2.6910920279974208e-03  2.5289087211926805e-03  2.3635171763599873e-03  2.1998169947920658e-03  1.1669471126948825e-03  2.0350508734431104e-03  4.4376947583528052e-04  4.4244206888886291e-04  3.0499738906703613e-03  1.8549361136430446e-04  1.8879568605223961e-04  3.1131301029190179e-03  3.1156653052023834e-03  2.6946167911320908e-03  1.1372369378946863e-04  2.7547098253171373e-03  1.6291250864894640e-03  1.4364405238501204e-03  1.7726002828298251e-03  1.3930303970334263e-04  4.7542160059779104e-05  5.0316638738991729e-05  1.5469069718285430e-03  1.4821541171024190e-03  1.7217842502272103e-03  1.5578019393169564e-03  1.6449628380192276e-03  2.9625451215119759e-03  2.7433909627256549e-03  2.8277654690533850e-03  2.9131654570268375e-03  2.9748046900958795e-03  1.5592167569492077e-03  2.8962269018390501e-03  2.8220026550625178e-03  1.9434639040459101e-03  2.1084217126771301e-03  2.2729769323138463e-03  2.4374024725270934e-03  2.6018717296731977e-0