<?xml version="1.0"?>
<VTKFile type="UnstructuredGrid"  version="0.1"  >
<UnstructuredGrid>
<Piece  NumberOfPoints="8545" NumberOfCells="16538">
<Points>
<DataArray  type="Float64"  NumberOfComponents="3"  format="ascii">0 0 0  2 0 0  2 0.2 0  0 0.2 0  0.007999999999984813 0 0  0.01599999999996964 0 0  0.02399999999995461 0 0  0.03199999999993959 0 0  0.03999999999992457 0 0  0.04799999999990945 0 0  0.05599999999989373 0 0  0.06399999999987775 0 0  0.07199999999986065 0 0  0.07999999999984338 0 0  0.08799999999982558 0 0  0.09599999999980778 0 0  0.10399999999979 0 0  0.1119999999997726 0 0  0.1199999999997562 0 0  0.1279999999997408 0 0  0.1359999999997272 0 0  0.1439999999997141 0 0  0.1519999999997019 0 0  0.1599999999996896 0 0  0.1679999999996774 0 0  0.1759999999996651 0 0  0.1839999999996529 0 0  0.1919999999996407 0 0  0.1999999999996284 0 0  0.2079999999996162 0 0  0.2159999999996039 0 0  0.2239999999995916 0 0  0.2319999999995794 0 0  0.2399999999995652 0 0  0.2479999999995501 0 0  0.2559999999995309 0 0  0.2639999999995103 0 0  0.2719999999994875 0 0  0.2799999999994642 0 0  0.2879999999994408 0 0  0.2959999999994175 0 0  0.3039999999993941 0 0  0.3119999999993708 0 0  0.3199999999993474 0 0  0.3279999999993241 0 0  0.3359999999993007 0 0  0.3439999999992774 0 0  0.351999999999254 0 0  0.3599999999992307 0 0  0.3679999999992074 0 0  0.375999999999184 0 0  0.3839999999991606 0 0  0.3919999999991373 0 0  0.3999999999991139 0 0  0.4079999999990906 0 0  0.4159999999990672 0 0  0.4239999999990439 0 0  0.4319999999990204 0 0  0.4399999999989971 0 0  0.4479999999989738 0 0  0.4559999999989504 0 0  0.463999999998927 0 0  0.4719999999989037 0 0  0.4799999999988804 0 0  0.487999999998857 0 0  0.4959999999988337 0 0  0.5039999999988103 0 0  0.511999999998787 0 0  0.5199999999987636 0 0  0.5279999999987403 0 0  0.5359999999987169 0 0  0.5439999999986936 0 0  0.5519999999986703 0 0  0.559999999998647 0 0  0.5679999999986237 0 0  0.5759999999986004 0 0  0.583999999998577 0 0  0.5919999999985537 0 0  0.5999999999985304 0 0  0.6079999999985071 0 0  0.6159999999984838 0 0  0.6239999999984605 0 0  0.6319999999984371 0 0  0.6399999999984138 0 0  0.6479999999983904 0 0  0.6559999999983671 0 0  0.6639999999983438 0 0  0.6719999999983205 0 0  0.6799999999982972 0 0  0.6879999999982739 0 0  0.6959999999982506 0 0  0.7039999999982272 0 0  0.7119999999982038 0 0  0.7199999999981805 0 0  0.7279999999981572 0 0  0.7359999999981339 0 0  0.7439999999981106 0 0  0.7519999999980873 0 0  0.759999999998064 0 0  0.7679999999980406 0 0  0.7759999999980173 0 0  0.783999999997994 0 0  0.7919999999979707 0 0  0.7999999999979474 0 0  0.807999999997924 0 0  0.8159999999979007 0 0  0.8239999999978773 0 0  0.831999999997854 0 0  0.8399999999978307 0 0  0.8479999999978074 0 0  0.855999999997784 0 0  0.8639999999977607 0 0  0.8719999999977374 0 0  0.8799999999977141 0 0  0.8879999999976906 0 0  0.8959999999976673 0 0  0.903999999997644 0 0  0.9119999999976207 0 0  0.9199999999975974 0 0  0.9279999999975741 0 0  0.9359999999975508 0 0  0.9439999999975274 0 0  0.9519999999975041 0 0  0.9599999999974808 0 0  0.9679999999974574 0 0  0.9759999999974341 0 0  0.9839999999974108 0 0  0.9919999999973981 0 0  0.9999999999973858 0 0  1.007999999997396 0 0  1.015999999997406 0 0  1.023999999997427 0 0  1.031999999997449 0 0  1.039999999997469 0 0  1.04799999999749 0 0  1.055999999997512 0 0  1.063999999997533 0 0  1.071999999997554 0 0  1.079999999997575 0 0  1.087999999997596 0 0  1.095999999997617 0 0  1.103999999997638 0 0  1.111999999997659 0 0  1.11999999999768 0 0  1.127999999997702 0 0  1.135999999997722 0 0  1.143999999997744 0 0  1.151999999997765 0 0  1.159999999997786 0 0  1.167999999997807 0 0  1.175999999997828 0 0  1.183999999997849 0 0  1.19199999999787 0 0  1.199999999997891 0 0  1.207999999997912 0 0  1.215999999997933 0 0  1.223999999997955 0 0  1.231999999997976 0 0  1.239999999997997 0 0  1.247999999998018 0 0  1.255999999998039 0 0  1.26399999999806 0 0  1.271999999998081 0 0  1.279999999998102 0 0  1.287999999998123 0 0  1.295999999998144 0 0  1.303999999998166 0 0  1.311999999998186 0 0  1.319999999998208 0 0  1.327999999998229 0 0  1.33599999999825 0 0  1.343999999998271 0 0  1.351999999998292 0 0  1.359999999998313 0 0  1.367999999998334 0 0  1.375999999998355 0 0  1.383999999998376 0 0  1.391999999998397 0 0  1.399999999998418 0 0  1.40799999999844 0 0  1.41599999999846 0 0  1.423999999998482 0 0  1.431999999998503 0 0  1.439999999998524 0 0  1.447999999998545 0 0  1.455999999998566 0 0  1.463999999998587 0 0  1.471999999998608 0 0  1.479999999998629 0 0  1.48799999999865 0 0  1.495999999998672 0 0  1.503999999998693 0 0  1.511999999998714 0 0  1.519999999998735 0 0  1.527999999998756 0 0  1.535999999998777 0 0  1.543999999998798 0 0  1.551999999998819 0 0  1.55999999999884 0 0  1.567999999998861 0 0  1.575999999998882 0 0  1.583999999998904 0 0  1.591999999998924 0 0  1.599999999998946 0 0  1.607999999998967 0 0  1.615999999998988 0 0  1.623999999999009 0 0  1.63199999999903 0 0  1.639999999999051 0 0  1.647999999999072 0 0  1.655999999999093 0 0  1.663999999999114 0 0  1.671999999999136 0 0  1.679999999999157 0 0  1.687999999999177 0 0  1.695999999999199 0 0  1.70399999999922 0 0  1.711999999999241 0 0  1.719999999999262 0 0  1.727999999999283 0 0  1.735999999999304 0 0  1.743999999999325 0 0  1.751999999999346 0 0  1.759999999999367 0 0  1.767999999999389 0 0  1.775999999999409 0 0  1.783999999999431 0 0  1.791999999999452 0 0  1.799999999999473 0 0  1.807999999999494 0 0  1.815999999999515 0 0  1.823999999999536 0 0  1.831999999999557 0 0  1.839999999999578 0 0  1.847999999999599 0 0  1.85599999999962 0 0  1.863999999999641 0 0  1.871999999999663 0 0  1.879999999999684 0 0  1.887999999999705 0 0  1.895999999999726 0 0  1.903999999999747 0 0  1.911999999999768 0 0  1.919999999999789 0 0  1.92799999999981 0 0  1.935999999999831 0 0  1.943999999999853 0 0  1.951999999999873 0 0  1.959999999999895 0 0  1.967999999999916 0 0  1.975999999999937 0 0  1.983999999999958 0 0  1.991999999999979 0 0  2 0.007999999999985056 0  2 0.01599999999997076 0  2 0.02399999999995914 0  2 0.03199999999993772 0  2 0.03999999999991205 0  2 0.04799999999988908 0  2 0.05599999999986612 0  2 0.06399999999984315 0  2 0.07199999999982019 0  2 0.07999999999979179 0  2 0.08799999999976883 0  2 0.09599999999974587 0  2 0.1039999999997452 0  2 0.1119999999997669 0  2 0.1199999999997886 0  2 0.1279999999998103 0  2 0.135999999999832 0  2 0.1439999999998537 0  2 0.1519999999998738 0  2 0.1599999999998949 0  2 0.1679999999999159 0  2 0.175999999999937 0  2 0.183999999999958 0  2 0.191999999999979 0  1.991999999999967 0.2 0  1.983999999999933 0.2 0  1.9759999999999 0.2 0  1.967999999999867 0.2 0  1.959999999999834 0.2 0  1.9519999999998 0.2 0  1.943999999999767 0.2 0  1.935999999999734 0.2 0  1.9279999999997 0.2 0  1.919999999999667 0.2 0  1.911999999999634 0.2 0  1.9039999999996 0.2 0  1.895999999999567 0.2 0  1.887999999999534 0.2 0  1.879999999999501 0.2 0  1.871999999999467 0.2 0  1.863999999999434 0.2 0  1.855999999999401 0.2 0  1.847999999999367 0.2 0  1.839999999999334 0.2 0  1.831999999999301 0.2 0  1.823999999999268 0.2 0  1.815999999999234 0.2 0  1.807999999999201 0.2 0  1.799999999999168 0.2 0  1.791999999999135 0.2 0  1.783999999999101 0.2 0  1.775999999999068 0.2 0  1.767999999999035 0.2 0  1.759999999999017 0.2 0  1.751999999999006 0.2 0  1.743999999999028 0.2 0  1.735999999999061 0.2 0  1.727999999999112 0.2 0  1.719999999999168 0.2 0  1.711999999999223 0.2 0  1.703999999999279 0.2 0  1.695999999999334 0.2 0  1.68799999999939 0.2 0  1.679999999999446 0.2 0  1.671999999999501 0.2 0  1.663999999999557 0.2 0  1.655999999999612 0.2 0  1.647999999999668 0.2 0  1.639999999999723 0.2 0  1.631999999999779 0.2 0  1.623999999999834 0.2 0  1.61599999999989 0.2 0  1.607999999999945 0.2 0  1.600000000000001 0.2 0  1.592000000000056 0.2 0  1.584000000000112 0.2 0  1.576000000000167 0.2 0  1.568000000000223 0.2 0  1.560000000000279 0.2 0  1.552000000000334 0.2 0  1.54400000000039 0.2 0  1.536000000000445 0.2 0  1.528000000000501 0.2 0  1.520000000000556 0.2 0  1.512000000000612 0.2 0  1.504000000000667 0.2 0  1.496000000000723 0.2 0  1.488000000000778 0.2 0  1.480000000000834 0.2 0  1.472000000000889 0.2 0  1.464000000000945 0.2 0  1.456000000001 0.2 0  1.448000000001056 0.2 0  1.440000000001112 0.2 0  1.432000000001167 0.2 0  1.424000000001223 0.2 0  1.416000000001278 0.2 0  1.408000000001334 0.2 0  1.400000000001389 0.2 0  1.392000000001445 0.2 0  1.3840000000015 0.2 0  1.376000000001556 0.2 0  1.368000000001611 0.2 0  1.360000000001667 0.2 0  1.352000000001722 0.2 0  1.344000000001778 0.2 0  1.336000000001833 0.2 0  1.328000000001889 0.2 0  1.320000000001944 0.2 0  1.312000000002 0.2 0  1.304000000002055 0.2 0  1.296000000002111 0.2 0  1.288000000002166 0.2 0  1.280000000002222 0.2 0  1.272000000002277 0.2 0  1.264000000002333 0.2 0  1.256000000002388 0.2 0  1.248000000002444 0.2 0  1.240000000002499 0.2 0  1.232000000002555 0.2 0  1.22400000000261 0.2 0  1.216000000002666 0.2 0  1.208000000002721 0.2 0  1.200000000002777 0.2 0  1.192000000002832 0.2 0  1.184000000002888 0.2 0  1.176000000002943 0.2 0  1.168000000002999 0.2 0  1.160000000003054 0.2 0  1.15200000000311 0.2 0  1.144000000003165 0.2 0  1.136000000003221 0.2 0  1.128000000003276 0.2 0  1.120000000003332 0.2 0  1.112000000003387 0.2 0  1.104000000003443 0.2 0  1.096000000003498 0.2 0  1.088000000003554 0.2 0  1.080000000003609 0.2 0  1.072000000003665 0.2 0  1.06400000000372 0.2 0  1.056000000003776 0.2 0  1.048000000003831 0.2 0  1.040000000003887 0.2 0  1.032000000003942 0.2 0  1.024000000003998 0.2 0  1.016000000004053 0.2 0  1.008000000004088 0.2 0  1.000000000004121 0.2 0  0.99200000000411 0.2 0  0.984000000004098 0.2 0  0.9760000000040647 0.2 0  0.9680000000040314 0.2 0  0.9600000000039981 0.2 0  0.9520000000039648 0.2 0  0.9440000000039312 0.2 0  0.9360000000038982 0.2 0  0.928000000003864
[...]
<PointData  Scalars="pressure"> 
<DataArray  type="Float64"  Name="pressure"  format="ascii">3.1645312731901991e-03  4.1547191736356750e-08  4.0120862527114792e-08  3.1645355689452780e-03  3.1519274365902337e-03  3.1392738250046637e-03  3.1265929276340226e-03  3.1139635686812761e-03  3.1012614988599665e-03  3.0886169785381678e-03  3.0759617047644845e-03  3.0633252145369507e-03  3.0506388698683419e-03  3.0379766089668292e-03  3.0253235154161966e-03  3.0126608708160576e-03  3.0000181025580750e-03  2.9873356333066795e-03  2.9746978448937861e-03  2.9620275181740929e-03  2.9493665560635846e-03  2.9367107569207959e-03  2.9240655842042414e-03  2.9113855961159416e-03  2.8987213027547518e-03  2.8860978222883453e-03  2.8734094632643209e-03  2.8607690196348927e-03  2.8480910948389549e-03  2.8354374971073619e-03  2.8227770080497309e-03  2.8101454324496030e-03  2.7974576884197801e-03  2.7847994492444278e-03  2.7721586070130642e-03  2.7594852606621766e-03  2.7468441410157195e-03  2.7341897241489957e-03  2.7214653854897687e-03  2.7088744183079660e-03  2.6961891257356583e-03  2.6835721113910001e-03  2.6708586676501404e-03  2.6582100600165107e-03  2.6455732307741381e-03  2.6329258183542519e-03  2.6202503367993152e-03  2.6075987129636669e-03  2.5949075962755693e-03  2.5822842885061246e-03  2.5696059058542956e-03  2.5569574008728374e-03  2.5443095748517090e-03  2.5316275288270506e-03  2.5189882070790503e-03  2.5063203172926902e-03  2.4936703100890039e-03  2.4809955613666287e-03  2.4683583412697559e-03  2.4556832812727175e-03  2.4430470949537756e-03  2.4303788751489728e-03  2.4177131914126485e-03  2.4050249382146344e-03  2.3924247669303011e-03  2.3797469479171066e-03  2.3670720693407987e-03  2.3544310893099806e-03  2.3417633265022941e-03  2.3291131694979012e-03  2.3164385349597801e-03  2.3038034728617425e-03  2.2911219503108015e-03  2.2784905493544861e-03  2.2658222241055616e-03  2.2531658155840561e-03  2.2404668538457120e-03  2.2278692592973487e-03  2.2151899077343111e-03  2.2025151467989727e-03  2.1898742501340767e-03  2.1772065338958950e-03  2.1645565693225273e-03  2.1518819223433636e-03  2.1392447931341554e-03  2.1265698310025853e-03  2.1139337356181568e-03  2.1012656027620904e-03  2.0886000009882771e-03  2.0759118241024041e-03  2.0633117231950672e-03  2.0506339687208258e-03  2.0379591518746706e-03  2.0253182294329231e-03  2.0126504977892013e-03  2.0000004926385238e-03  1.9873258146565205e-03  1.9746886639871696e-03  1.9620136314120167e-03  1.9493778006301407e-03  1.9367082464300002e-03  1.9240464328214941e-03  1.9113553798883538e-03  1.8987547087811600e-03  1.8860781459532103e-03  1.8734080945465954e-03  1.8607665170634277e-03  1.8480827691234277e-03  1.8354463761364290e-03  1.8227782825177394e-03  1.8101057364243141e-03  1.7974818623148901e-03  1.7848064292072452e-03  1.7721505180496233e-03  1.7594684806468781e-03  1.7468559981076901e-03  1.7341768828800055e-03  1.7214860528937015e-03  1.7088908791225885e-03  1.6961678296211109e-03  1.6835438479829812e-03  1.6709105514143203e-03  1.6582107840181289e-03  1.6455585249951009e-03  1.6329285287516029e-03  1.6202318363935200e-03  1.6076046954995296e-03  1.5949308285302234e-03  1.5822703054241690e-03  1.5696188594179026e-03  1.5569735868010282e-03  1.5442929712671841e-03  1.5316478149376845e-03  1.5189742523774058e-03  1.5063463049233353e-03  1.4936588793358339e-03  1.4810198773654358e-03  1.4683363510040149e-03  1.4556891328103474e-03  1.4430593832381047e-03  1.4303622708446483e-03  1.4177166350679629e-03  1.4050539611723226e-03  1.3924191841749665e-03  1.3797332074422773e-03  1.3670766978868664e-03  1.3544612891553283e-03  1.3417413503552075e-03  1.3291170115005608e-03  1.3164421238549488e-03  1.3037830489845499e-03  1.2911682846991558e-03  1.2784544022241880e-03  1.2658125727695133e-03  1.2531491953102190e-03  1.2405270657381701e-03  1.2278339494620379e-03  1.2151993236699174e-03  1.2025311668827769e-03  1.1898768395859007e-03  1.1772095962844439e-03  1.1645595210420952e-03  1.1518808624187723e-03  1.1392226389594488e-03  1.1266106999510163e-03  1.1138961542005105e-03  1.1012555719587507e-03  1.0885927459150877e-03  1.0759707157050847e-03  1.0632769284467517e-03  1.0506406927137059e-03  1.0379735131684517e-03  1.0253210174962504e-03  1.0126552637163731e-03  1.0000087221664171e-03  9.8732689150410834e-04  9.7466866532530227e-04  9.6205539775476182e-04  9.4934101308000868e-04  9.3669968692716254e-04  9.2403528101756385e-04  9.1141375025566578e-04  8.9872029666799712e-04  8.8608345115337721e-04  8.7341642915680147e-04  8.6076386041087109e-04  8.4809810515359800e-04  8.3545172904605461e-04  8.2276998098292412e-04  8.1011184570575941e-04  7.9749869112154205e-04  7.8478430145256448e-04  7.7214326824391328e-04  7.5947900924099043e-04  7.4685744859229240e-04  7.3416507599044273e-04  7.2152886990710645e-04  7.0886084612637953e-04  6.9620665182352126e-04  6.8353943120687797e-04  6.7088972463556838e-04  6.5821123013383388e-04  6.4555303351690647e-04  6.3294107437753054e-04  6.2022622248468690e-04  6.0758644373583076e-04  5.9492236840059942e-04  5.8230187516223155e-04  5.6963407849228143e-04  5.5694589641484870e-04  5.4430314473616749e-04  5.3162836851766064e-04  5.1900885550484280e-04  5.0632777652435707e-04  4.9366429726217884e-04  4.8099149655919226e-04  4.6836108885667753e-04  4.5571325843563141e-04  4.4304051158130690e-04  4.3038885608023559e-04  4.1770908896277464e-04  4.0508116817141663e-04  3.9239099847208740e-04  3.7974869859460508e-04  3.6708272078301061e-04  3.5443697044077149e-04  3.4178587880731576e-04  3.2911592285856810e-04  3.1645351265254825e-04  3.0378591788093998e-04  2.9113434415479708e-04  2.7850412727470824e-04  2.6581757322307074e-04  2.5316257753167984e-04  2.4053784037040697e-04  2.2782402521790522e-04  2.1522065319110701e-04  2.0249288731431672e-04  1.8988001006200130e-04  1.7724237649506341e-04  1.6455814533501863e-04  1.5191053729023872e-04  1.3920071468726344e-04  1.2661031822499378e-04  1.1390879926206892e-04  1.0124906753191645e-04  8.8629592832166192e-05  7.5958668553925227e-05  6.3302504462060718e-05  5.0602487194217214e-05  3.8002033804080045e-05  2.5296838968220830e-05  1.2673621326103251e-05  5.2831697176075510e-10  1.0451764547431052e-08  3.4539831601398127e-10  1.2399243546486843e-09  -4.5002693600627998e-09  -1.9110552515059253e-09  -1.4945250273807630e-09  -2.5509047619058598e-09  -7.4881682674645778e-10  -1.2352117128918186e-10  -7.5314909571858258e-10  -3.6389700061754009e-10  -8.0457626393012918e-10  7.7886940735346316e-11  2.5864122592506780e-10  1.0873678523230895e-09  -2.4484184708052762e-09  -1.4920304325087328e-09  -6.0924782861111440e-09  -4.9036583152852099e-09  1.9864377405770795e-09  -3.6122117756337114e-09  9.7016913432806992e-09  6.8844412655917654e-10  1.2673755836938416e-05  2.5309610535779920e-05  3.7995158064114909e-05  5.0608005651538069e-05  6.3301123810145983e-05  7.5958878031181921e-05  8.8631345025543860e-05  1.0125006164994418e-04  1.1391023351898266e-04  1.2661215912666536e-04  1.3919603058982748e-04  1.5190679436195189e-04  1.6456211130338119e-04  1.7724244353287238e-04  1.8988037003615939e-04  2.0248311620783453e-04  2.1521739527379592e-04  2.2782279515751763e-04  2.4053959606754079e-04  2.5314533302165661e-04  2.6581621026732942e-04  2.7850906802865934e-04  2.9113314785215631e-04  3.0378636075775782e-04  3.1645259373019793e-04  3.2911752353397884e-04  3.4178567063746060e-04  3.5443659372154992e-04  3.6708198634218485e-04  3.7974966935266875e-04  3.9239039356877626e-04  4.0508174436111041e-04  4.1770889775434919e-04  4.3038818818369608e-04  4.4304171224143898e-04  4.5571222089074264e-04  4.6835807623973695e-04  4.8099450096106635e-04  4.9366394277254198e-04  5.0632903176020690e-04  5.1900981236316368e-04  5.3163440597833083e-04  5.4430179018810664e-04  5.5694534554376948e-04  5.6963202123977051e-04  5.8230254299296150e-04  5.9491995248036006e-04  6.0758494410312119e-04  6.2023185115612231e-04  6.3293953925737574e-04  6.4555422242866371e-04  6.5821210921252317e-04  6.7089227211756934e-04  6.8354181007496161e-04  6.9620698552719435e-04  7.0885382305502199e-04  7.2153271508417025e-04  7.3417087815066766e-04  7.4685306038212163e-04  7.5948154100256024e-04  7.7214406026146140e-04  7.8478314086883379e-04  7.9749845882377574e-04  8.1011030724777405e-04  8.2277025286726945e-04  8.3545005795511299e-04  8.4809921006154785e-04  8.6076385911699593e-04  8.7341076002850305e-04  8.8608928983472703e-04  8.9872678434735082e-04  9.1140844250350113e-04  9.2403700262546208e-04  9.3669989967276016e-04  9.4934043921812749e-04  9.6205478578591664e-04  9.7466685702514086e-04  9.8732673888249096e-04  1.0000066510798312e-03  1.0126557722914997e-03  1.0253204161665007e-03  1.0379674453850070e-03  1.0506460247203305e-03  1.0632839478246499e-03  1.0759650145746671e-03  1.0885949858019822e-03  1.1012567503211168e-03  1.1138997824576414e-03  1.1266091664334434e-03  1.1392234400650599e-03  1.1518814826563845e-03  1.1645616782139305e-03  1.1772112131109732e-03  1.1898764179488551e-03  1.2025232541883674e-03  1.2152021272787380e-03  1.2278403659612533e-03  1.2405226374410064e-03  1.2531511892821332e-03  1.2658136274923586e-03  1.2784526014773866e-03  1.2911677901388890e-03  1.3037766205246575e-03  1.3164375202738359e-03  1.3291182707590810e-03  1.3417688084965925e-03  1.3544334876934927e-03  1.3670802130355886e-03  1.3797586080194055e-03  1.3923959116520796e-03  1.4050777175747165e-03  1.4177068267000564e-03  1.4303675766145483e-03  1.4430270436922743e-03  1.4557017616429455e-03  1.4683325659289896e-03  1.4810364183403103e-03  1.4936419981112998e-03  1.5063427302688820e-03  1.5190024157707936e-03  1.5316085559527615e-03  1.5443243032786523e-03  1.5569367469863275e-03  1.5696085936948664e-03  1.5822855200475800e-03  1.5949435027949571e-03  1.6075869663643764e-03  1.6202325471517977e-03  1.6329012316820524e-03  1.6455739334493155e-03  1.6582425769781719e-03  1.6708698508908291e-03  1.6835371542752743e-03  1.6961816933885874e-03  1.7088818778719587e-03  1.7214890494744596e-03  1.7341856174243331e-03  1.7468230948378158e-03  1.7594805454656881e-03  1.7721454168300075e-03  1.7848236505299054e-03  1.7974564546746679e-03  1.8101325371507389e-03  1.8227694743132941e-03  1.8354453439499939e-03  1.8480976855285182e-03  1.8607613200878710e-03  1.8733998296073574e-03  1.8860753364740215e-03  1.8987548886648044e-03  1.9113557451578245e-03  1.9240456167993526e-03  1.9367034133926046e-03  1.9493803403397968e-03  1.9620055424717496e-03  1.9746946473435428e-03  1.9873358011461882e-03  1.9999986798279489e-03  2.0126511823085561e-03  2.0253178070699044e-03  2.0379564490471771e-03  2.0506319142687018e-03  2.0633115357087460e-03  2.0759130646222338e-03  2.0886013418850470e-03  2.1012588971777071e-03  2.1139372995830326e-03  2.1265619583502962e-03  2.1392511486970148e-03  2.1518921656956398e-03  2.1645548014503145e-03  2.1772073335657310e-03  2.1898741004963778e-03  2.2025118578756181e-03  2.2151891061039245e-03  2.2278684107328822e-03  2.2404695283185384e-03  2.2531596421331598e-03  2.2658165246165446e-03  2.2784925482144435e-03  2.2911248479902751e-03  2.3038015843954911e-03  2.3164383702751210e-03  2.3291129880213461e-03  2.3417636616994428e-03  2.3544310539671850e-03  2.3670718730431444e-03  2.3797466235844621e-03  2.3924246621120950e-03  2.4050261054555807e-03  2.4177153016056406e-03  2.4303731879592263e-03  2.4430500691234062e-03  2.4556755090646611e-03  2.4683644594967634e-03  2.4810053783688437e-03  2.4936684157136164e-03  2.5063204815362248e-03  2.5189881495666032e-03  2.5316261699955692e-03  2.5443022742484759e-03  2.5569819117306760e-03  2.5695837609339810e-03  2.5822722958174760e-03  2.5949299447318641e-03  2.6076096982870440e-03  2.6202469094208855e-03  2.6328855168400917e-03  2.6455700477435594e-03  2.6582189029789932e-03  2.6709046361473843e-03  2.6835268188318017e-03  2.6961886252725646e-03  2.7088514348916569e-03  2.7215267212840812e-03  2.7341549965748460e-03  2.7468546849512753e-03  2.7594706219572366e-03  2.7721520763459083e-03  2.7848024666154180e-03  2.7974617137522507e-03  2.8101048892847460e-03  2.8227864549920569e-03  2.8354587406917552e-03  2.8480958052174315e-03  2.8607470393423825e-03  2.8734116969166960e-03  2.8860871005055360e-03  2.8987156919073171e-03  2.9114039121164196e-03  2.9240429739348281e-03  2.9367208925604226e-03  2.9493290404571733e-03  2.9620375154949946e-03  2.9746850207565249e-03  2.9873384051926589e-03  3.0000256007396550e-03  3.0126507592370443e-03  3.0253314783840503e-03  3.0379426950999052e-03  3.0506568678219286e-03  3.0633074963529478e-03  3.0759596442194092e-03  3.0885974275111430e-03  3.1012954559705048e-03  3.1139346845175169e-03  3.1266087212777904e-03  3.1392756142880483e-03  3.1519158548646473e-03  3.1645539455365857e-03  3.1645561390357476e-03  3.1645580594460826e-03  3.1645598892438551e-03  3.1645579238771199e-03  3.1645584976355704e-03  3.1645575414899936e-03  3.1645539514538134e-03  3.1645550603147401e-03  3.1645572345855690e-03  3.1645565325539122e-03  3.1645569551872559e-03  3.1645567024403726e-03  3.1645572131333748e-03  3.1645572077680035e-03  3.1645576659545122e-03  3.1645595411853946e-03  3.1645573701386321e-03  3.1645575413469201e-03  3.1645570598977505e-03  3.1645568505775899e-03  3.1645579530720693e-03  3.1645556923100013e-03  3.1645550456975342e-03  4.7496807477307861e-04  6.3924000357185593e-04  8.0573317128329732e-04  9.6803796050815624e-04  1.1329095499429092e-03  1.2974659547944675e-03  1.4612576461163205e-03  2.7283421163878329e-03  2.5631179205255904e-03  2.9936743655332291e-03  2.3985602837460376e-03  2.2342882702590270e-03  2.0694479496047298e-03  1.9059161196517084e-03  1.7405025126866357e-03  1.5905397553425636e-04  3.1645807577979930e-04  1.6018116101677510e-03  2.8605276033644863e-03  5.5652969648591793e-04  7.2142359180026386e-04  8.8598251819675959e-04  1.0506297353253498e-03  1.2153546887785020e-03  1.3797464203502913e-03  2.6462444751627775e-03  2.4789737020273180e-03  2.3144168697887819e-03  2.1498602378572720e-03  1.9853037664398065e-03  1.8236053116961618e-03  1.3784615559978670e-03  1.2169018107185976e-03  1.0508147675979676e-03  1.8227790042260202e-03  1.9867613173996353e-03  8.8627151078760178e-04  7.2353403910213425e-04  2.1514599317397068e-03  2.3164495863398291e-03  2.4811386776623272e-03  5.5715868612030508e-04  2.6476334143378127e-03  2.3873295786032184e-04  2.3653734311758750e-04  3.9305376570646149e-04  3.9788214037843615e-04  2.9165287227809196e-03  2.8057204610759971e-03  1.5397103171532096e-03  1.6620147526531181e-03  3.0678600561832537e-03  3.0680382312342392e-03  9.0317234488924151e-05  9.2655327132199598e-05  1.6782039569351347e-03  1.5241450526597359e-03  2.9373358514169882e-03  2.7820447255849836e-03  4.7467037265053668e-04  6.3924457260802715e-04  8.0422232196241371e-04  9.6964228451617901e-04  1.1329144201916554e-03  1.2974741961128966e-03  1.4620279270246284e-03  2.5602597580966012e-03  2.3957014661432283e-03  2.2311429126687272e-03  2.0665883683893566e-03  1.9050687673939294e-03  1.2947419005770087e-03  1.1302318560036625e-03  9.6626536170397299e-04  8.0107202891983149e-04  6.3656225754969015e-04  4.7517971306986634e-04  1.7387271517144158e-03  1.9050517849748413e-03  2.0719140110928274e-03  2.2364678139035923e-03  2.3987267418992984e-03  2.5655824616345937e-03  2.7269788780953509e-03  3.1276619405897713e-04  3.1295495264845177e-04  2.9920292985207222e-03  1.7526751379563512e-03  1.4515032346436602e-03  1.6587285140993695e-04  1.6587786301379382e-04  2.7135421741364316e-03  1.5896469522888928e-03  6.9318019159267952e-05  3.0030243253419049e-03  1.6015007059599511e-03  3.0970045686500780e-03  2.8750630423934349e-03  2.9291528519415763e-03  2.7936035894955101e-03  1.6658942940444719e-03  1.5269180296531549e-03  2.8612786837265546e-03  4.1285353872342993e-04  2.1984912759639413e-04  5.7785439356799985e-04  1.4008447883845222e-03  9.0696767009961442e-04  1.1942962801776019e-03  1.0715240816718628e-03  7.0043186103211752e-04  1.8021746867771002e-03  2.6665229406611789e-03  2.5008709018998717e-03  2.3354226531406754e-03  2.1721961551881119e-03  2.0078627109222074e-03  2.8619741782865754e-03  3.1083942574274557e-03  3.1081467670521132e-03  1.7912073971887547e-03  1.9568677842763216e-03  1.2455256533221875e-03  2.1215240521598928e-03  2.2859818753705650e-03  1.0827418665503355e-03  2.4506379302830080e-03  9.1826809141898206e-04  2.6151932925174972e-03  7.5453811839123499e-04  5.8775634615298522e-04  7.5182130072617645e-04  5.8898223871370705e-04  6.9137971734899162e-04  5.2365167398820648e-04  9.1809534574300677e-04  1.0826526445645945e-03  8.5292341935393147e-04  1.0174799068052229e-03  1.2452329458412859e-03  1.1850495314515200e-03  1.4117643392288440e-03  1.3465906248036469e-03  2.6123433275999611e-03  2.4474329476264962e-03  2.5111396840824200e-03  2.2828763347413515e-03  2.3465825246742084e-03  2.1183195893150451e-03  1.9537638015649319e-03  2.1820260378545742e-03  2.0174696518328755e-03  1.8548786870213566e-03  5.2618449665790357e-04  6.9070403111196044e-04  2.6776711627844517e-03  8.5413071370703145e-04  2.5118142696122581e-03  2.3465830528200285e-03  1.0186874866494786e-03  2.1836816639712589e-03  1.1833923296668989e-03  2.0181425518935566e-03  1.3476311258348301e-03  1.8556581416839170e-03  1.5924618085831387e-03  3.6308761041480524e-04  3.6318668949744909e-04  5.4237169594034497e-05  5.5042178688655207e-05  4.2638776863118373e-04  4.2638714247208922e-04  2.7764789601809987e-03  1.5103805888574033e-03  1.6927185877425421e-03  2.9436645544554199e-03  2.6603294739134666e-04  2.6695595500701296e-04  1.9563936655725171e-03  1.8555376821368923e-03  2.1212016712143420e-03  2.2857576289422440e-03  2.4484102759817004e-03  2.6129673182480632e-03  7.5386295894183729e-04  1.0184019204099253e-03  5.2480409217631316e-04  8.5502591823831669e-04  1.2475324362172309e-03  1.3496299647621050e-03  3.0443623997424285e-03  3.0375361047091597e-03  1.6416898499081098e-03  1.7991383369463383e-03  1.4021942581531948e-03  2.8243167119745764e-03  2.1220476798153168e-04  2.1250460371147360e-04  2.6659220657506985e-03  1.2628869581078085e-03  7.6921699655008418e-04  2.5962239740919394e-03  2.4316658313955687e-03  2.2677618327952131e-03  2.1025525738645493e-03  1.9361335179431051e-03  1.8714683938458700e-03  5.0936161477251973e-04  8.3837656817606788e-04  1.0028127915293757e-03  1.3320466019180520e-03  2.6825854690763328e-04  3.6303813024394566e-04  3.4784183112434859e-04  2.7595261158629919e-03  1.2135855120702571e-04  1.2153345501995129e-04  1.4928818413708521e-03  1.7073903360413244e-03  2.8356565243473417e-04  2.9609578032076321e-03  1.7079686179421062e-03  1.4945713741167719e-03  3.0228185642076038e-03  1.7735453830440887e-03  1.0989462084064875e-03  9.3436649646336971e-04  6.0527667646067000e-04  1.4277040373024798e-03  1.0956217897361295e-03  9.3114118418607158e-04  1.1658900448160614e-03  6.0195185484527766e-04  6.7337323735571788e-04  2.0352929093771280e-03  2.1998424307405860e-03  2.3644059360233192e-03  2.5289632739940145e-03  6.7204569314470539e-04  2.6910962232981391e-03  2.5289129677606545e-03  2.3635216706565337e-03  2.1998212731882396e-03  1.1669493678953073e-03  2.0350549674534582e-03  4.4377032647807175e-04  4.4244305987279465e-04  3.0499731277386023e-03  1.8549419864104030e-04  1.8879596469899287e-04  3.1131295445895896e-03  3.1156648639335807e-03  2.6946201592689457e-03  1.1372386334538278e-04  2.7547124569104911e-03  1.6291286330120812e-03  1.4364434018443303e-03  1.7726041542433196e-03  1.3930307035074188e-04  4.7542078440828519e-05  5.0316544448643468e-05  1.5469105156172430e-03  1.4821571735439711e-03  1.7217875443151683e-03  1.5578048967045855e-03  1.6449665182436970e-03  2.9625450365792999e-03  2.7433937653084908e-03  2.8277675175605549e-03  2.9131658184661123e-03  2.9748052001078119e-03  1.5592203079601136e-03  2.8962280092864005e-03  2.8220059747697929e-03  1.9434678600608346e-03  2.1084259762007523e-03  2.2729814690877169e-03  2.4374070314692013e-03  2.6018758474719555e-0