<?xml version="1.0"?>
<VTKFile type="UnstructuredGrid"  version="0.1"  >
<UnstructuredGrid>
<Piece  NumberOfPoints="8545" NumberOfCells="16538">
<Points>
<DataArray  type="Float64"  NumberOfComponents="3"  format="ascii">0 0 0  2 0 0  2 0.2 0  0 0.2 0  0.007999999999984813 0 0  0.01599999999996964 0 0  0.02399999999995461 0 0  0.03199999999993959 0 0  0.03999999999992457 0 0  0.04799999999990945 0 0  0.05599999999989373 0 0  0.06399999999987775 0 0  0.07199999999986065 0 0  0.07999999999984338 0 0  0.08799999999982558 0 0  0.09599999999980778 0 0  0.10399999999979 0 0  0.1119999999997726 0 0  0.1199999999997562 0 0  0.1279999999997408 0 0  0.1359999999997272 0 0  0.1439999999997141 0 0  0.1519999999997019 0 0  0.1599999999996896 0 0  0.1679999999996774 0 0  0.1759999999996651 0 0  0.1839999999996529 0 0  0.1919999999996407 0 0  0.1999999999996284 0 0  0.2079999999996162 0 0  0.2159999999996039 0 0  0.2239999999995916 0 0  0.2319999999995794 0 0  0.2399999999995652 0 0  0.2479999999995501 0 0  0.2559999999995309 0 0  0.2639999999995103 0 0  0.2719999999994875 0 0  0.2799999999994642 0 0  0.2879999999994408 0 0  0.2959999999994175 0 0  0.3039999999993941 0 0  0.3119999999993708 0 0  0.3199999999993474 0 0  0.3279999999993241 0 0  0.3359999999993007 0 0  0.3439999999992774 0 0  0.351999999999254 0 0  0.3599999999992307 0 0  0.3679999999992074 0 0  0.375999999999184 0 0  0.3839999999991606 0 0  0.3919999999991373 0 0  0.3999999999991139 0 0  0.4079999999990906 0 0  0.4159999999990672 0 0  0.4239999999990439 0 0  0.4319999999990204 0 0  0.4399999999989971 0 0  0.4479999999989738 0 0  0.4559999999989504 0 0  0.463999999998927 0 0  0.4719999999989037 0 0  0.4799999999988804 0 0  0.487999999998857 0 0  0.4959999999988337 0 0  0.5039999999988103 0 0  0.511999999998787 0 0  0.5199999999987636 0 0  0.5279999999987403 0 0  0.5359999999987169 0 0  0.5439999999986936 0 0  0.5519999999986703 0 0  0.559999999998647 0 0  0.5679999999986237 0 0  0.5759999999986004 0 0  0.583999999998577 0 0  0.5919999999985537 0 0  0.5999999999985304 0 0  0.6079999999985071 0 0  0.6159999999984838 0 0  0.6239999999984605 0 0  0.6319999999984371 0 0  0.6399999999984138 0 0  0.6479999999983904 0 0  0.6559999999983671 0 0  0.6639999999983438 0 0  0.6719999999983205 0 0  0.6799999999982972 0 0  0.6879999999982739 0 0  0.6959999999982506 0 0  0.7039999999982272 0 0  0.7119999999982038 0 0  0.7199999999981805 0 0  0.7279999999981572 0 0  0.7359999999981339 0 0  0.7439999999981106 0 0  0.7519999999980873 0 0  0.759999999998064 0 0  0.7679999999980406 0 0  0.7759999999980173 0 0  0.783999999997994 0 0  0.7919999999979707 0 0  0.7999999999979474 0 0  0.807999999997924 0 0  0.8159999999979007 0 0  0.8239999999978773 0 0  0.831999999997854 0 0  0.8399999999978307 0 0  0.8479999999978074 0 0  0.855999999997784 0 0  0.8639999999977607 0 0  0.8719999999977374 0 0  0.8799999999977141 0 0  0.8879999999976906 0 0  0.8959999999976673 0 0  0.903999999997644 0 0  0.9119999999976207 0 0  0.9199999999975974 0 0  0.9279999999975741 0 0  0.9359999999975508 0 0  0.9439999999975274 0 0  0.9519999999975041 0 0  0.9599999999974808 0 0  0.9679999999974574 0 0  0.9759999999974341 0 0  0.9839999999974108 0 0  0.9919999999973981 0 0  0.9999999999973858 0 0  1.007999999997396 0 0  1.015999999997406 0 0  1.023999999997427 0 0  1.031999999997449 0 0  1.039999999997469 0 0  1.04799999999749 0 0  1.055999999997512 0 0  1.063999999997533 0 0  1.071999999997554 0 0  1.079999999997575 0 0  1.087999999997596 0 0  1.095999999997617 0 0  1.103999999997638 0 0  1.111999999997659 0 0  1.11999999999768 0 0  1.127999999997702 0 0  1.135999999997722 0 0  1.143999999997744 0 0  1.151999999997765 0 0  1.159999999997786 0 0  1.167999999997807 0 0  1.175999999997828 0 0  1.183999999997849 0 0  1.19199999999787 0 0  1.199999999997891 0 0  1.207999999997912 0 0  1.215999999997933 0 0  1.223999999997955 0 0  1.231999999997976 0 0  1.239999999997997 0 0  1.247999999998018 0 0  1.255999999998039 0 0  1.26399999999806 0 0  1.271999999998081 0 0  1.279999999998102 0 0  1.287999999998123 0 0  1.295999999998144 0 0  1.303999999998166 0 0  1.311999999998186 0 0  1.319999999998208 0 0  1.327999999998229 0 0  1.33599999999825 0 0  1.343999999998271 0 0  1.351999999998292 0 0  1.359999999998313 0 0  1.367999999998334 0 0  1.375999999998355 0 0  1.383999999998376 0 0  1.391999999998397 0 0  1.399999999998418 0 0  1.40799999999844 0 0  1.41599999999846 0 0  1.423999999998482 0 0  1.431999999998503 0 0  1.439999999998524 0 0  1.447999999998545 0 0  1.455999999998566 0 0  1.463999999998587 0 0  1.471999999998608 0 0  1.479999999998629 0 0  1.48799999999865 0 0  1.495999999998672 0 0  1.503999999998693 0 0  1.511999999998714 0 0  1.519999999998735 0 0  1.527999999998756 0 0  1.535999999998777 0 0  1.543999999998798 0 0  1.551999999998819 0 0  1.55999999999884 0 0  1.567999999998861 0 0  1.575999999998882 0 0  1.583999999998904 0 0  1.591999999998924 0 0  1.599999999998946 0 0  1.607999999998967 0 0  1.615999999998988 0 0  1.623999999999009 0 0  1.63199999999903 0 0  1.639999999999051 0 0  1.647999999999072 0 0  1.655999999999093 0 0  1.663999999999114 0 0  1.671999999999136 0 0  1.679999999999157 0 0  1.687999999999177 0 0  1.695999999999199 0 0  1.70399999999922 0 0  1.711999999999241 0 0  1.719999999999262 0 0  1.727999999999283 0 0  1.735999999999304 0 0  1.743999999999325 0 0  1.751999999999346 0 0  1.759999999999367 0 0  1.767999999999389 0 0  1.775999999999409 0 0  1.783999999999431 0 0  1.791999999999452 0 0  1.799999999999473 0 0  1.807999999999494 0 0  1.815999999999515 0 0  1.823999999999536 0 0  1.831999999999557 0 0  1.839999999999578 0 0  1.847999999999599 0 0  1.85599999999962 0 0  1.863999999999641 0 0  1.871999999999663 0 0  1.879999999999684 0 0  1.887999999999705 0 0  1.895999999999726 0 0  1.903999999999747 0 0  1.911999999999768 0 0  1.919999999999789 0 0  1.92799999999981 0 0  1.935999999999831 0 0  1.943999999999853 0 0  1.951999999999873 0 0  1.959999999999895 0 0  1.967999999999916 0 0  1.975999999999937 0 0  1.983999999999958 0 0  1.991999999999979 0 0  2 0.007999999999985056 0  2 0.01599999999997076 0  2 0.02399999999995914 0  2 0.03199999999993772 0  2 0.03999999999991205 0  2 0.04799999999988908 0  2 0.05599999999986612 0  2 0.06399999999984315 0  2 0.07199999999982019 0  2 0.07999999999979179 0  2 0.08799999999976883 0  2 0.09599999999974587 0  2 0.1039999999997452 0  2 0.1119999999997669 0  2 0.1199999999997886 0  2 0.1279999999998103 0  2 0.135999999999832 0  2 0.1439999999998537 0  2 0.1519999999998738 0  2 0.1599999999998949 0  2 0.1679999999999159 0  2 0.175999999999937 0  2 0.183999999999958 0  2 0.191999999999979 0  1.991999999999967 0.2 0  1.983999999999933 0.2 0  1.9759999999999 0.2 0  1.967999999999867 0.2 0  1.959999999999834 0.2 0  1.9519999999998 0.2 0  1.943999999999767 0.2 0  1.935999999999734 0.2 0  1.9279999999997 0.2 0  1.919999999999667 0.2 0  1.911999999999634 0.2 0  1.9039999999996 0.2 0  1.895999999999567 0.2 0  1.887999999999534 0.2 0  1.879999999999501 0.2 0  1.871999999999467 0.2 0  1.863999999999434 0.2 0  1.855999999999401 0.2 0  1.847999999999367 0.2 0  1.839999999999334 0.2 0  1.831999999999301 0.2 0  1.823999999999268 0.2 0  1.815999999999234 0.2 0  1.807999999999201 0.2 0  1.799999999999168 0.2 0  1.791999999999135 0.2 0  1.783999999999101 0.2 0  1.775999999999068 0.2 0  1.767999999999035 0.2 0  1.759999999999017 0.2 0  1.751999999999006 0.2 0  1.743999999999028 0.2 0  1.735999999999061 0.2 0  1.727999999999112 0.2 0  1.719999999999168 0.2 0  1.711999999999223 0.2 0  1.703999999999279 0.2 0  1.695999999999334 0.2 0  1.68799999999939 0.2 0  1.679999999999446 0.2 0  1.671999999999501 0.2 0  1.663999999999557 0.2 0  1.655999999999612 0.2 0  1.647999999999668 0.2 0  1.639999999999723 0.2 0  1.631999999999779 0.2 0  1.623999999999834 0.2 0  1.61599999999989 0.2 0  1.607999999999945 0.2 0  1.600000000000001 0.2 0  1.592000000000056 0.2 0  1.584000000000112 0.2 0  1.576000000000167 0.2 0  1.568000000000223 0.2 0  1.560000000000279 0.2 0  1.552000000000334 0.2 0  1.54400000000039 0.2 0  1.536000000000445 0.2 0  1.528000000000501 0.2 0  1.520000000000556 0.2 0  1.512000000000612 0.2 0  1.504000000000667 0.2 0  1.496000000000723 0.2 0  1.488000000000778 0.2 0  1.480000000000834 0.2 0  1.472000000000889 0.2 0  1.464000000000945 0.2 0  1.456000000001 0.2 0  1.448000000001056 0.2 0  1.440000000001112 0.2 0  1.432000000001167 0.2 0  1.424000000001223 0.2 0  1.416000000001278 0.2 0  1.408000000001334 0.2 0  1.400000000001389 0.2 0  1.392000000001445 0.2 0  1.3840000000015 0.2 0  1.376000000001556 0.2 0  1.368000000001611 0.2 0  1.360000000001667 0.2 0  1.352000000001722 0.2 0  1.344000000001778 0.2 0  1.336000000001833 0.2 0  1.328000000001889 0.2 0  1.320000000001944 0.2 0  1.312000000002 0.2 0  1.304000000002055 0.2 0  1.296000000002111 0.2 0  1.288000000002166 0.2 0  1.280000000002222 0.2 0  1.272000000002277 0.2 0  1.264000000002333 0.2 0  1.256000000002388 0.2 0  1.248000000002444 0.2 0  1.240000000002499 0.2 0  1.232000000002555 0.2 0  1.22400000000261 0.2 0  1.216000000002666 0.2 0  1.208000000002721 0.2 0  1.200000000002777 0.2 0  1.192000000002832 0.2 0  1.184000000002888 0.2 0  1.176000000002943 0.2 0  1.168000000002999 0.2 0  1.160000000003054 0.2 0  1.15200000000311 0.2 0  1.144000000003165 0.2 0  1.136000000003221 0.2 0  1.128000000003276 0.2 0  1.120000000003332 0.2 0  1.112000000003387 0.2 0  1.104000000003443 0.2 0  1.096000000003498 0.2 0  1.088000000003554 0.2 0  1.080000000003609 0.2 0  1.072000000003665 0.2 0  1.06400000000372 0.2 0  1.056000000003776 0.2 0  1.048000000003831 0.2 0  1.040000000003887 0.2 0  1.032000000003942 0.2 0  1.024000000003998 0.2 0  1.016000000004053 0.2 0  1.008000000004088 0.2 0  1.000000000004121 0.2 0  0.99200000000411 0.2 0  0.984000000004098 0.2 0  0.9760000000040647 0.2 0  0.9680000000040314 0.2 0  0.9600000000039981 0.2 0  0.9520000000039648 0.2 0  0.9440000000039312 0.2 0  0.9360000000038982 0.2 0  0.928000000003864
[...]
<PointData  Scalars="pressure"> 
<DataArray  type="Float64"  Name="pressure"  format="ascii">3.1645288170934682e-03  4.3843051847746662e-08  4.2377444349057320e-08  3.1645336290477021e-03  3.1519260333786785e-03  3.1392722966191201e-03  3.1265899432253645e-03  3.1139626419940270e-03  3.1012583766709565e-03  3.0886140392398990e-03  3.0759591630809368e-03  3.0633245241449172e-03  3.0506371861481600e-03  3.0379747345937232e-03  3.0253222106808087e-03  3.0126590850377156e-03  3.0000173468761938e-03  2.9873338489191143e-03  2.9746974615026205e-03  2.9620270736199616e-03  2.9493663256912172e-03  2.9367109270131298e-03  2.9240667894581233e-03  2.9113858031150136e-03  2.8987204875416807e-03  2.8860993906572037e-03  2.8734099733458219e-03  2.8607708971258852e-03  2.8480923285916933e-03  2.8354387440692281e-03  2.8227780025685788e-03  2.8101484639866336e-03  2.7974597791967271e-03  2.7848012499632727e-03  2.7721614145274315e-03  2.7594874158706506e-03  2.7468472385465681e-03  2.7341943440562610e-03  2.7214661019269010e-03  2.7088776039220783e-03  2.6961914451768560e-03  2.6835776618679254e-03  2.6708615299368341e-03  2.6582130112426665e-03  2.6455766693418790e-03  2.6329302145518276e-03  2.6202539976954912e-03  2.6076033331044056e-03  2.5949101595619420e-03  2.5822883581446575e-03  2.5696093206443939e-03  2.5569616359301531e-03  2.5443139656285705e-03  2.5316305833255224e-03  2.5189920770633846e-03  2.5063242140873558e-03  2.4936749356870578e-03  2.4809990674267220e-03  2.4683631229551373e-03  2.4556869405005107e-03  2.4430520165167730e-03  2.4303838207621713e-03  2.4177184284495060e-03  2.4050276556228179e-03  2.3924301132037568e-03  2.3797516141765992e-03  2.3670754374041391e-03  2.3544352167921491e-03  2.3417674336671619e-03  2.3291179597645846e-03  2.3164421704874078e-03  2.3038085326548214e-03  2.2911254623567976e-03  2.2784956109679387e-03  2.2658269835712903e-03  2.2531711691896553e-03  2.2404694144901060e-03  2.2278744035056351e-03  2.2151943438321847e-03  2.2025182999334076e-03  2.1898781534865990e-03  2.1772104102549812e-03  2.1645611251946903e-03  2.1518853067682567e-03  2.1392494044709560e-03  2.1265732711189655e-03  2.1139383926185138e-03  2.1012702406059671e-03  2.0886048895702555e-03  2.0759141551328305e-03  2.0633166488419380e-03  2.0506381831467304e-03  2.0379620385560173e-03  2.0253218507753413e-03  2.0126540727752095e-03  2.0000047397370204e-03  1.9873288835095680e-03  1.9746929560344431e-03  1.9620167421019021e-03  1.9493821577777409e-03  1.9367124421349640e-03  1.9240510692143675e-03  1.9113574373974061e-03  1.8987591886289934e-03  1.8860820737939838e-03  1.8734109092026754e-03  1.8607703949709102e-03  1.8480852852436388e-03  1.8354500196590155e-03  1.8227818798249172e-03  1.8101080143846614e-03  1.7974858015716113e-03  1.7848099623771633e-03  1.7721547219712369e-03  1.7594704938051478e-03  1.7468603491259910e-03  1.7341807444764827e-03  1.7214876596078619e-03  1.7088962648371835e-03  1.6961697417077844e-03  1.6835463842355056e-03  1.6709155511655718e-03  1.6582139254818992e-03  1.6455611832130381e-03  1.6329334383965823e-03  1.6202336224090663e-03  1.6076082265756083e-03  1.5949339337119875e-03  1.5822729309371082e-03  1.5696216092326877e-03  1.5569770925738865e-03  1.5442953434303909e-03  1.5316508246234182e-03  1.5189761009577858e-03  1.5063497957212792e-03  1.4936608210940883e-03  1.4810234827581539e-03  1.4683385276685263e-03  1.4556913955960479e-03  1.4430633399989486e-03  1.4303642238866004e-03  1.4177189733192025e-03  1.4050557317878800e-03  1.3924228536253637e-03  1.3797358456092211e-03  1.3670785584247497e-03  1.3544662173293875e-03  1.3417427849890958e-03  1.3291196105505185e-03  1.3164442515164866e-03  1.3037849460551594e-03  1.2911722934756480e-03  1.2784560238783109e-03  1.2658143878004776e-03  1.2531505668405070e-03  1.2405302995323823e-03  1.2278351055639107e-03  1.2152016362793822e-03  1.2025331485906868e-03  1.1898788234955117e-03  1.1772113075522962e-03  1.1645623799125058e-03  1.1518827613335443e-03  1.1392243537703447e-03  1.1266146231450906e-03  1.1138976013226431e-03  1.1012572686504897e-03  1.0885939249742098e-03  1.0759736917391950e-03  1.0632778327926689e-03  1.0506427104692976e-03  1.0379752400321595e-03  1.0253229313471580e-03  1.0126567793607947e-03  1.0000114145644226e-03  9.8732826841968729e-04  9.7466981592693176e-04  9.6205872427549603e-04  9.4934190660102768e-04  9.3670089673127750e-04  9.2403606841669672e-04  9.1141638986872667e-04  8.9872088482789757e-04  8.8608512798843387e-04  8.7341784785233774e-04  8.6076550112777696e-04  8.4809935745261682e-04  8.3545416203193118e-04  8.2277109679236614e-04  8.1011273578315216e-04  7.9750175657399144e-04  7.8478491726366147e-04  7.7214420870374385e-04  7.5947949479457247e-04  7.4685975431150106e-04  7.3416527388857225e-04  7.2153022608901129e-04  7.0886193965695649e-04  6.9620777314436798e-04  6.8354031025395876e-04  6.7089174532019289e-04  6.5821228019685154e-04  6.4555384557246078e-04  6.3294412820901022e-04  6.2022675661593666e-04  6.0758727579191864e-04  5.9492259581976983e-04  5.8230361344117790e-04  5.6963589926823234e-04  5.5694573909760700e-04  5.4430400881116925e-04  5.3162796196578558e-04  5.1901077466837424e-04  5.0632920611536655e-04  4.9366569741519462e-04  4.8099129001753256e-04  4.6836143215931244e-04  4.5571466103825237e-04  4.4304111058940908e-04  4.3039010758279245e-04  4.1770887584597596e-04  4.0508290298934196e-04  3.9239125371702343e-04  3.7974998919238585e-04  3.6708270144670380e-04  3.5443755901266638e-04  3.4178698434789812e-04  3.2911666066132774e-04  3.1645402582226406e-04  3.0378549024349396e-04  2.9113414445399230e-04  2.7850547244673019e-04  2.6581769144774862e-04  2.5316233284626365e-04  2.4054011946306335e-04  2.2782298513376501e-04  2.1522286372552336e-04  2.0249142003280146e-04  1.8987919837069181e-04  1.7724359678398394e-04  1.6455836981574821e-04  1.5191197233714690e-04  1.3919893902358566e-04  1.2661139918205991e-04  1.1390869280364186e-04  1.0124748211056206e-04  8.8630494723801134e-05  7.5959111778550035e-05  6.3303585727687205e-05  5.0600623931134253e-05  3.8003031178408490e-05  2.5295314808418646e-05  1.2673333952524170e-05  5.4315469302688768e-10  1.0522705034475534e-08  2.4398643957925330e-10  1.0879655583360526e-09  -4.6150964449576621e-09  -1.7998413226978030e-09  -1.6175270495272472e-09  -2.4407843486537525e-09  -6.7351049816627607e-10  -1.3374026552965252e-10  -5.7545077776130647e-10  -2.4986830893786587e-10  -5.5980054381025136e-10  5.1781487670153388e-12  1.8863106717054802e-10  8.6131242577554660e-10  -2.1270785576186395e-09  -1.3133529204786874e-09  -5.3911260778162094e-09  -5.0226103687237439e-09  1.7433777332307010e-09  -3.6110136692686135e-09  9.7684310583764092e-09  7.2280007400393004e-10  1.2673546342149580e-05  2.5308692664422990e-05  3.7995610907866623e-05  5.0606322634974119e-05  6.3301976006611315e-05  7.5959219344340118e-05  8.8632240843908850e-05  1.0124850007167597e-04  1.1391018276583822e-04  1.2661326486010122e-04  1.3919418216867252e-04  1.5190812595020989e-04  1.6456276536097586e-04  1.7724387379028096e-04  1.8987983071314284e-04  2.0248188810296193e-04  2.1521986341450320e-04  2.2782188499897426e-04  2.4054187494375792e-04  2.5314425066412223e-04  2.6581665916289261e-04  2.7851062722512111e-04  2.9113291662828775e-04  3.0378599253900145e-04  3.1645290304850186e-04  3.2911827228109187e-04  3.4178677521879330e-04  3.5443715119425057e-04  3.6708197984127534e-04  3.7975087168437495e-04  3.9239056915362928e-04  4.0508347607717501e-04  4.1770875574013901e-04  4.3038957866291467e-04  4.4304243283077262e-04  4.5571332881722649e-04  4.6835822080902828e-04  4.8099443885972725e-04  4.9366522009863865e-04  5.0633017226910289e-04  5.1901149250065245e-04  5.3163421759127129e-04  5.4430262564780698e-04  5.5694549214837824e-04  5.6963400285194911e-04  5.8230427919189059e-04  5.9491999112283253e-04  6.0758580816148489e-04  6.2023249976547344e-04  6.3294254975680567e-04  6.4555487496165457e-04  6.5821291864060416e-04  6.7089406492042830e-04  6.8354273128723886e-04  6.9620813777332359e-04  7.0885455410773200e-04  7.2153467714811332e-04  7.3417156767059167e-04  7.4685494552615122e-04  7.5948216157142780e-04  7.7214499920968125e-04  7.8478373740938296e-04  7.9750158073147294e-04  8.1011122845009616e-04  8.2277134790137213e-04  8.3545221742388584e-04  8.4810041364082349e-04  8.6076526373576900e-04  8.7341184615581896e-04  8.8609165055731536e-04  8.9872787101301138e-04  9.1141067276026273e-04  9.2403787510602676e-04  9.3670108702978124e-04  9.4934137601959158e-04  9.6205819208288943e-04  9.7466808978205347e-04  9.8732813197411023e-04  1.0000091114913655e-03  1.0126572803756634e-03  1.0253221273289481e-03  1.0379688267534489e-03  1.0506486896627954e-03  1.0632853480687452e-03  1.0759675797981983e-03  1.0885962228317652e-03  1.1012584137237308e-03  1.1139012027917229e-03  1.1266131813082031e-03  1.1392250272047959e-03  1.1518832429815624e-03  1.1645644154066981e-03  1.1772130832446827e-03  1.1898785143394902e-03  1.2025249260800373e-03  1.2152050236001802e-03  1.2278419816807993e-03  1.2405254526591690e-03  1.2531527491489787e-03  1.2658155281552736e-03  1.2784541981252359e-03  1.2911719547931781e-03  1.3037786701441516e-03  1.3164396489255762e-03  1.3291212551702393e-03  1.3417709023250161e-03  1.3544358519199486e-03  1.3670822607616685e-03  1.3797619445263835e-03  1.3923979426422686e-03  1.4050808555358082e-03  1.4177085269136288e-03  1.4303698940591120e-03  1.4430296926553170e-03  1.4557047132963891e-03  1.4683344040580608e-03  1.4810408982142084e-03  1.4936432602246858e-03  1.5063468473734004e-03  1.5190056128923891e-03  1.5316095602092440e-03  1.5443284600968467e-03  1.5569384539080773e-03  1.5696117568090898e-03  1.5822896000852310e-03  1.5949467974451970e-03  1.6075896448472533e-03  1.6202348653748392e-03  1.6329042177707239e-03  1.6455773486935034e-03  1.6582460397480837e-03  1.6708719488081059e-03  1.6835400523476812e-03  1.6961842406747105e-03  1.7088862854330342e-03  1.7214909691730138e-03  1.7341897466844128e-03  1.7468260510345929e-03  1.7594840427900256e-03  1.7721491755555228e-03  1.7848278922525996e-03  1.7974590676511865e-03  1.8101364312437817e-03  1.8227720862158709e-03  1.8354490347371739e-03  1.8481009380639647e-03  1.8607649171717264e-03  1.8734026389600170e-03  1.8860793604702074e-03  1.8987596665256531e-03  1.9113578997335939e-03  1.9240501772739733e-03  1.9367075118566304e-03  1.9493848041144412e-03  1.9620079448862521e-03  1.9746990420065795e-03  1.9873389978752238e-03  2.0000023179748256e-03  2.0126546630125620e-03  2.0253217378786207e-03  2.0379595710312598e-03  2.0506362343847419e-03  2.0633166106640327e-03  2.0759155173186951e-03  2.0886061972325985e-03  2.1012633127343193e-03  2.1139421480534633e-03  2.1265646740183130e-03  2.1392558776384355e-03  2.1518957091183305e-03  2.1645587835289505e-03  2.1772111240066436e-03  2.1898783294084425e-03  2.2025152082532427e-03  2.2151936906490833e-03  2.2278736329615309e-03  2.2404721296197362e-03  2.2531648216244831e-03  2.2658212072921339e-03  2.2784977150217219e-03  2.2911283666536384e-03  2.3038063911816581e-03  2.3164419287512250e-03  2.3291176720338360e-03  2.3417676874007455e-03  2.3544351094562342e-03  2.3670751668346379e-03  2.3797512195204702e-03  2.3924299248601205e-03  2.4050288084160086e-03  2.4177204417646426e-03  2.4303778252841332e-03  2.4430550155473819e-03  2.4556783879218047e-03  2.4683692991781829e-03  2.4810089926194062e-03  2.4936723705489884e-03  2.5063241607292657e-03  2.5189923299899328e-03  2.5316294952449619e-03  2.5443067931260471e-03  2.5569871430521775e-03  2.5695863659788488e-03  2.5822772725131097e-03  2.5949344918263814e-03  2.6076147513027022e-03  2.6202501084697481e-03  2.6328887743695397e-03  2.6455750678598170e-03  2.6582230023176039e-03  2.6709095275644261e-03  2.6835300122439315e-03  2.6961923563724143e-03  2.7088555962921329e-03  2.7215312345441204e-03  2.7341583216704568e-03  2.7468605181450020e-03  2.7594736412162200e-03  2.7721563969646114e-03  2.7848060392844844e-03  2.7974650931741050e-03  2.8101075779471216e-03  2.8227907442173908e-03  2.8354631909083992e-03  2.8480985080303937e-03  2.8607496055856781e-03  2.8734148949936373e-03  2.8860906116742286e-03  2.8987171146026762e-03  2.9114071062875660e-03  2.9240447550328594e-03  2.9367229986482324e-03  2.9493289408620720e-03  2.9620402783551375e-03  2.9746863415199627e-03  2.9873393423353817e-03  3.0000279250314982e-03  3.0126506448196104e-03  3.0253318987824799e-03  3.0379408950190778e-03  3.0506582546398573e-03  3.0633074478247238e-03  3.0759585414528003e-03  3.0885955855216181e-03  3.1012956764518568e-03  3.1139332342755332e-03  3.1266079366677460e-03  3.1392748922288633e-03  3.1519143580414086e-03  3.1645537786787244e-03  3.1645556842219945e-03  3.1645584651177794e-03  3.1645597938729296e-03  3.1645579185319529e-03  3.1645585919608662e-03  3.1645575943237696e-03  3.1645547013709838e-03  3.1645553319990280e-03  3.1645571521582857e-03  3.1645566105761693e-03  3.1645569569446570e-03  3.1645567580027823e-03  3.1645571178008864e-03  3.1645572011899251e-03  3.1645574786150999e-03  3.1645591888239495e-03  3.1645574619187950e-03  3.1645574012058191e-03  3.1645570394925938e-03  3.1645567542899558e-03  3.1645579749689018e-03  3.1645552084534527e-03  3.1645548669778805e-03  4.7496888121786711e-04  6.3924124974013756e-04  8.0573482573476920e-04  9.6803986201839294e-04  1.1329117370550883e-03  1.2974684942953572e-03  1.4612602789424883e-03  2.7283453100847579e-03  2.5631220914804718e-03  2.9936747545380202e-03  2.3985648016090055e-03  2.2342925309454913e-03  2.0694519160328276e-03  1.9059198451881207e-03  1.7405059841511486e-03  1.5905412783395658e-04  3.1645830230944667e-04  1.6018143573388413e-03  2.8605294163751823e-03  5.5653140708128283e-04  7.2142483009365844e-04  8.8598370030818722e-04  1.0506319865113440e-03  1.2153565554386553e-03  1.3797485533948608e-03  2.6462474049774335e-03  2.4789773179594962e-03  2.3144205751543701e-03  2.1498637288615533e-03  1.9853069896392664e-03  1.8236083433763159e-03  1.3784641716838386e-03  1.2169046699640708e-03  1.0508179742924212e-03  1.8227828063671729e-03  1.9867650097671204e-03  8.8627455569118138e-04  7.2353578778268824e-04  2.1514640520186594e-03  2.3164540765076270e-03  2.4811432995750990e-03  5.5716103241943338e-04  2.6476368454677471e-03  2.3873339919120852e-04  2.3653812436591590e-04  3.9305413455319248e-04  3.9788294516698684e-04  2.9165298977475752e-03  2.8057236066829192e-03  1.5397135908714560e-03  1.6620180621217046e-03  3.0678595315636356e-03  3.0680391622056173e-03  9.0317755080989728e-05  9.2655331446597178e-05  1.6782079063319183e-03  1.5241483398292775e-03  2.9373365724670131e-03  2.7820473223068346e-03  4.7467207257160686e-04  6.3924517316659248e-04  8.0422327280190863e-04  9.6964473601556780e-04  1.1329159146440716e-03  1.2974755825904030e-03  1.4620301670991351e-03  2.5602636627726281e-03  2.3957059492864135e-03  2.2311474889526134e-03  2.0665924679440983e-03  1.9050711983874865e-03  1.2947442492686951e-03  1.1302340448802533e-03  9.6626695292597123e-04  8.0107349834696940e-04  6.3656357163897686e-04  4.7518053162338931e-04  1.7387306091123829e-03  1.9050561141987499e-03  2.0719178408212342e-03  2.2364724768137740e-03  2.3987317928089854e-03  2.5655869856601576e-03  2.7269828698580933e-03  3.1276654996145449e-04  3.1295521686555022e-04  2.9920306360985841e-03  1.7526788156794813e-03  1.4515057459467209e-03  1.6587381501147769e-04  1.6587789768090285e-04  2.7135443583660014e-03  1.5896504421472478e-03  6.9317922064133665e-05  3.0030237114595797e-03  1.6015044407002765e-03  3.0970042736075008e-03  2.8750644936240298e-03  2.9291538853487738e-03  2.7936063640627679e-03  1.6658974977806866e-03  1.5269208566020295e-03  2.8612818854602787e-03  4.1285410407747135e-04  2.1984940238203418e-04  5.7785546975090132e-04  1.4008472215504483e-03  9.0696932605803342e-04  1.1942983721853315e-03  1.0715260546559325e-03  7.0043312187277108e-04  1.8021781557156504e-03  2.6665265373300218e-03  2.5008745737773288e-03  2.3354268624395285e-03  2.1722000362586194e-03  2.0078660640138420e-03  2.8619762737222974e-03  3.1083925081354180e-03  3.1081456692394200e-03  1.7912104708036477e-03  1.9568711480635850e-03  1.2455277238795218e-03  2.1215277207099936e-03  2.2859856388356427e-03  1.0827437277997713e-03  2.4506414766466617e-03  9.1826966296708801e-04  2.6151970495141034e-03  7.5453965016870851e-04  5.8775747969370918e-04  7.5182236016627503e-04  5.8898283849907187e-04  6.9138103481904145e-04  5.2365291453071504e-04  9.1809625783330394e-04  1.0826541425809101e-03  8.5292512338764443e-04  1.0174819139078532e-03  1.2452348938881712e-03  1.1850517189137008e-03  1.4117664450202306e-03  1.3465933753323122e-03  2.6123465252608042e-03  2.4474369851135405e-03  2.5111440667822281e-03  2.2828803027011412e-03  2.3465871570341528e-03  2.1183233913253294e-03  1.9537672633183002e-03  2.1820304137684810e-03  2.0174737710187901e-03  1.8548825695204061e-03  5.2618466273117589e-04  6.9070518277065767e-04  2.6776752171588222e-03  8.5413227585580485e-04  2.5118186737810360e-03  2.3465874723917865e-03  1.0186893461109948e-03  2.1836862157563731e-03  1.1833945091880840e-03  2.0181467567934601e-03  1.3476343611821633e-03  1.8556619416501268e-03  1.5924646162201353e-03  3.6308771429464812e-04  3.6318705724289793e-04  5.4236876835494959e-05  5.5041677346560558e-05  4.2638856177158193e-04  4.2638811251645599e-04  2.7764824640304042e-03  1.5103838337333178e-03  1.6927211852395740e-03  2.9436658918313694e-03  2.6603305523632641e-04  2.6695646204672531e-04  1.9563971115267136e-03  1.8555413723153513e-03  2.1212055292186291e-03  2.2857618663935692e-03  2.4484143051528864e-03  2.6129711065164250e-03  7.5386432790922162e-04  1.0184036348229787e-03  5.2480483222283505e-04  8.5502725082067311e-04  1.2475346746303616e-03  1.3496323677223692e-03  3.0443624672457066e-03  3.0375364712763794e-03  1.6416928639898462e-03  1.7991413034176076e-03  1.4021958188250889e-03  2.8243189769845819e-03  2.1220454277034580e-04  2.1250507456920125e-04  2.6659245470130517e-03  1.2628893605869797e-03  7.6921864083681385e-04  2.5962280156383048e-03  2.4316703979818618e-03  2.2677663192142610e-03  2.1025568877516610e-03  1.9361370187600164e-03  1.8714718285276902e-03  5.0936252499974113e-04  8.3837805627638522e-04  1.0028146532100306e-03  1.3320488099860472e-03  2.6825925900721603e-04  3.6303867686829713e-04  3.4784247431594390e-04  2.7595291834354389e-03  1.2135843793442572e-04  1.2153359358576756e-04  1.4928851514469303e-03  1.7073933154845198e-03  2.8356685883137664e-04  2.9609594971758959e-03  1.7079715851500389e-03  1.4945735218960209e-03  3.0228181051364092e-03  1.7735488754820840e-03  1.0989475613706263e-03  9.3436787053820182e-04  6.0527693193403252e-04  1.4277045639803322e-03  1.0956228144608543e-03  9.3114268248521280e-04  1.1658918239350734e-03  6.0195207048317474e-04  6.7337428048720185e-04  2.0352960100141443e-03  2.1998472780120461e-03  2.3644094626586155e-03  2.5289665301705005e-03  6.7204654035777907e-04  2.6911004326356574e-03  2.5289167728879372e-03  2.3635259721556242e-03  2.1998251282343909e-03  1.1669512654075842e-03  2.0350585764177627e-03  4.4377103533871148e-04  4.4244395989299988e-04  3.0499718426101057e-03  1.8549488144285401e-04  1.8879604179442664e-04  3.1131283448385017e-03  3.1156639895416811e-03  2.6946233448594745e-03  1.1372391785191884e-04  2.7547149491357775e-03  1.6291318195665858e-03  1.4364458686164296e-03  1.7726077064185979e-03  1.3930291672310924e-04  4.7541918757659569e-05  5.0316274641197063e-05  1.5469139946499679e-03  1.4821598507490593e-03  1.7217902290840264e-03  1.5578072833306264e-03  1.6449700292208626e-03  2.9625444102408640e-03  2.7433962556096653e-03  2.8277694137833847e-03  2.9131656472913647e-03  2.9748053522965687e-03  1.5592236542318941e-03  2.8962287540263603e-03  2.8220094051263607e-03  1.9434713373191043e-03  2.1084297961912238e-03  2.2729857760169516e-03  2.4374113147562844e-03  2.6018795476756406e-0