<?xml version="1.0"?>
<VTKFile type="UnstructuredGrid"  version="0.1"  >
<UnstructuredGrid>
<Piece  NumberOfPoints="21459" NumberOfCells="42258">
<Points>
<DataArray  type="Float64"  NumberOfComponents="3"  format="ascii">0 0 0  0.77 0 0  0.77 0.15 0  0 0.15 0  0.002575250836115831 0 0  0.005150501672231662 0 0  0.007725752508347561 0 0  0.0103010033444635 0 0  0.01287625418057944 0 0  0.01545150501669537 0 0  0.01802675585281131 0 0  0.02060200668892696 0 0  0.0231772575250426 0 0  0.02575250836115786 0 0  0.02832775919727293 0 0  0.03090301003338809 0 0  0.03347826086950344 0 0  0.0360535117056188 0 0  0.03862876254173415 0 0  0.04120401337784951 0 0  0.04377926421396486 0 0  0.04635451505008022 0 0  0.04892976588619594 0 0  0.05150501672231246 0 0  0.05408026755842897 0 0  0.05665551839454548 0 0  0.059230769230662 0 0  0.06180602006677815 0 0  0.06438127090289408 0 0  0.06695652173901002 0 0  0.06953177257512595 0 0  0.07210702341124189 0 0  0.07468227424735784 0 0  0.07725752508347376 0 0  0.07983277591959044 0 0  0.08240802675570753 0 0  0.08498327759182464 0 0  0.08755852842794172 0 0  0.09013377926405881 0 0  0.0927090301001737 0 0  0.09528428093628846 0 0  0.09785953177240253 0 0  0.1004347826085162 0 0  0.1030100334446298 0 0  0.1055852842807434 0 0  0.108160535116857 0 0  0.1107357859529706 0 0  0.1133110367890842 0 0  0.1158862876251971 0 0  0.1184615384613096 0 0  0.1210367892974217 0 0  0.123612040133533 0 0  0.1261872909696443 0 0  0.1287625418057556 0 0  0.1313377926418669 0 0  0.1339130434779796 0 0  0.1364882943140932 0 0  0.1390635451502075 0 0  0.1416387959863234 0 0  0.1442140468224393 0 0  0.1467892976585553 0 0  0.1493645484946712 0 0  0.1519397993307857 0 0  0.1545150501668993 0 0  0.1570903010030123 0 0  0.1596655518391236 0 0  0.1622408026752349 0 0  0.1648160535113462 0 0  0.1673913043474575 0 0  0.1699665551835688 0 0  0.1725418060196801 0 0  0.1751170568557914 0 0  0.1776923076919027 0 0  0.180267558528014 0 0  0.1828428093641274 0 0  0.185418060200241 0 0  0.187993311036356 0 0  0.1905685618724719 0 0  0.1931438127085879 0 0  0.1957190635447038 0 0  0.1982943143808197 0 0  0.2008695652169336 0 0  0.2034448160530472 0 0  0.2060200668891594 0 0  0.2085953177252707 0 0  0.211170568561382 0 0  0.2137458193974934 0 0  0.2163210702336046 0 0  0.2188963210697159 0 0  0.2214715719058272 0 0  0.2240468227419385 0 0  0.2266220735780498 0 0  0.2291973244141617 0 0  0.2317725752502753 0 0  0.2343478260863889 0 0  0.2369230769225046 0 0  0.2394983277586206 0 0  0.2420735785947365 0 0  0.2446488294308524 0 0  0.2472240802669673 0 0  0.2497993311030786 0 0  0.2523745819391899 0 0  0.2549498327753012 0 0  0.2575250836114125 0 0  0.2601003344475263 0 0  0.2626755852836423 0 0  0.2652508361197582 0 0  0.2678260869558742 0 0  0.2704013377919901 0 0  0.272976588628106 0 0  0.275551839464222 0 0  0.2781270903003354 0 0  0.2807023411364467 0 0  0.2832775919725579 0 0  0.2858528428086692 0 0  0.2884280936447806 0 0  0.2910033444808919 0 0  0.2935785953170031 0 0  0.2961538461531145 0 0  0.2987290969892258 0 0  0.301304347825338 0 0  0.3038795986614539 0 0  0.3064548494975699 0 0  0.3090301003336858 0 0  0.3116053511698018 0 0  0.3141806020059177 0 0  0.3167558528420336 0 0  0.3193311036781486 0 0  0.3219063545142599 0 0  0.3244816053503712 0 0  0.3270568561864825 0 0  0.3296321070225938 0 0  0.3322073578587051 0 0  0.3347826086948165 0 0  0.3373578595309277 0 0  0.339933110367039 0 0  0.3425083612031504 0 0  0.3450836120392617 0 0  0.347658862875373 0 0  0.3502341137114842 0 0  0.3528093645475955 0 0  0.3553846153837077 0 0  0.3579598662198236 0 0  0.3605351170559395 0 0  0.3631103678920555 0 0  0.3656856187281714 0 0  0.3682608695642873 0 0  0.3708361204004033 0 0  0.3734113712365184 0 0  0.3759866220726297 0 0  0.378561872908741 0 0  0.3811371237448562 0 0  0.3837123745809721 0 0  0.3862876254170927 0 0  0.3888628762532179 0 0  0.3914381270893431 0 0  0.3940133779254684 0 0  0.3965886287615936 0 0  0.3991638795977189 0 0  0.401739130433844 0 0  0.4043143812699693 0 0  0.4068896321060945 0 0  0.4094648829422198 0 0  0.412040133778345 0 0  0.4146153846144702 0 0  0.4171906354505954 0 0  0.4197658862867207 0 0  0.4223411371228482 0 0  0.4249163879589781 0 0  0.4274916387951079 0 0  0.4300668896312377 0 0  0.4326421404673676 0 0  0.4352173913034975 0 0  0.4377926421396274 0 0  0.4403678929757572 0 0  0.4429431438118872 0 0  0.4455183946480163 0 0  0.4480936454841415 0 0  0.4506688963202668 0 0  0.453244147156392 0 0  0.4558193979925173 0 0  0.4583946488286424 0 0  0.4609698996647677 0 0  0.463545150500893 0 0  0.4661204013370182 0 0  0.4686956521731435 0 0  0.4712709030092686 0 0  0.4738461538453939 0 0  0.4764214046815212 0 0  0.4789966555176511 0 0  0.481571906353781 0 0  0.4841471571899109 0 0  0.4867224080260408 0 0  0.489297658862167 0 0  0.4918729096982922 0 0  0.4944481605344174 0 0  0.4970234113705426 0 0  0.4995986622066672 0 0  0.5021739130427878 0 0  0.5047491638789084 0 0  0.5073244147150326 0 0  0.5098996655511578 0 0  0.5124749163872871 0 0  0.5150501672234217 0 0  0.5176254180595552 0 0  0.5202006688956804 0 0  0.5227759197318056 0 0  0.5253511705679309 0 0  0.5279264214040561 0 0  0.5305016722401854 0 0  0.5330769230763199 0 0  0.5356521739124535 0 0  0.5382274247485787 0 0  0.5408026755847039 0 0  0.5433779264208219 0 0  0.5459531772569379 0 0  0.5485284280930578 0 0  0.5511036789291831 0 0  0.5536789297653092 0 0  0.5562541806014436 0 0  0.5588294314375781 0 0  0.5614046822737055 0 0  0.5639799331098307 0 0  0.5665551839459561 0 0  0.5691304347820813 0 0  0.5717056856182072 0 0  0.5742809364543418 0 0  0.5768561872904763 0 0  0.5794314381266108 0 0  0.5820066889627452 0 0  0.5845819397988758 0 0  0.5871571906350012 0 0  0.5897324414711264 0 0  0.5923076923072516 0 0  0.5948829431433768 0 0  0.5974581939795088 0 0  0.6000334448156434 0 0  0.6026086956517741 0 0  0.6051839464878993 0 0  0.6077591973240239 0 0  0.6103344481601398 0 0  0.6129096989962558 0 0  0.6154849498323786 0 0  0.6180602006685038 0 0  0.6206354515046327 0 0  0.6232107023407671 0 0  0.6257859531769011 0 0  0.6283612040130263 0 0  0.6309364548491515 0 0  0.6335117056852767 0 0  0.636086956521402 0 0  0.6386622073575308 0 0  0.6412374581936653 0 0  0.6438127090297993 0 0  0.6463879598659246 0 0  0.6489632107020498 0 0  0.6515384615381682 0 0  0.6541137123742842 0 0  0.6566889632104037 0 0  0.6592642140465289 0 0  0.6618394648826547 0 0  0.6644147157187892 0 0  0.6669899665549236 0 0  0.6695652173910515 0 0  0.6721404682271768 0 0  0.674715719063302 0 0  0.6772909698994272 0 0  0.6798662207355527 0 0  0.6824414715716872 0 0  0.6850167224078217 0 0  0.6875919732439497 0 0  0.6901672240800749 0 0  0.6927424749161967 0 0  0.6953177257523127 0 0  0.6978929765884289 0 0  0.7004682274245541 0 0  0.7030434782606794 0 0  0.705618729096811 0 0  0.7081939799329454 0 0  0.7107692307690766 0 0  0.7133444816052019 0 0  0.7159197324413271 0 0  0.7184949832774523 0 0  0.7210702341135775 0 0  0.7236454849497092 0 0  0.7262207357858437 0 0  0.7287959866219749 0 0  0.7313712374581001 0 0  0.7339464882942252 0 0  0.7365217391303411 0 0  0.7390969899664571 0 0  0.7416722408025793 0 0  0.7442474916387045 0 0  0.7468227424748329 0 0  0.7493979933109675 0 0  0.7519732441471019 0 0  0.7545484949832271 0 0  0.7571237458193523 0 0  0.7596989966554775 0 0  0.7622742474916027 0 0  0.764849498327731 0 0  0.7674247491638655 0 0  0.77 0.004999999999990473 0  0.77 0.009999999999980134 0  0.77 0.01499999999997245 0  0.77 0.01999999999996296 0  0.77 0.02499999999994839 0  0.77 0.02999999999993517 0  0.77 0.03499999999992059 0  0.77 0.03999999999990602 0  0.77 0.04499999999989145 0  0.77 0.04999999999987687 0  0.77 0.0549999999998623 0  0.77 0.05999999999985044 0  0.77 0.06499999999983586 0  0.77 0.06999999999982129 0  0.77 0.07499999999980943 0  0.77 0.07999999999981869 0  0.77 0.08499999999983195 0  0.77 0.08999999999984591 0  0.77 0.09499999999985989 0  0.77 0.09999999999987387 0  0.77 0.1049999999998868 0  0.77 0.1099999999998987 0  0.77 0.1149999999999134 0  0.77 0.1199999999999254 0  0.77 0.1249999999999365 0  0.77 0.1299999999999492 0  0.77 0.1349999999999592 0  0.77 0.1399999999999721 0  0.77 0.144999999999986 0  0.7674247491638934 0.15 0  0.7648494983277866 0.15 0  0.7622742474916738 0.15 0  0.7596989966555578 0.15 0  0.7571237458194419 0.15 0  0.7545484949833259 0.15 0  0.7519732441472099 0.15 0  0.7493979933110939 0.15 0  0.7468227424749779 0.15 0  0.7442474916388619 0.15 0  0.741672240802746 0.15 0  0.73909698996663 0.15 0  0.736521739130514 0.15 0  0.733946488294398 0.15 0  0.7313712374582821 0.15 0  0.7287959866221662 0.15 0  0.7262207357860502 0.15 0  0.7236454849499342 0.15 0  0.7210702341138182 0.15 0  0.7184949832777022 0.15 0  0.7159197324415862 0.15 0  0.7133444816054703 0.15 0  0.7107692307693543 0.15 0  0.7081939799332383 0.15 0  0.7056187290971223 0.15 0  0.7030434782610063 0.15 0  0.7004682274248905 0.15 0  0.6978929765887745 0.15 0  0.6953177257526585 0.15 0  0.6927424749165425 0.15 0  0.6901672240804265 0.15 0  0.6875919732443105 0.15 0  0.6850167224081946 0.15 0  0.6824414715720786 0.15 0  0.6798662207359626 0.15 0  0.6772909698998466 0.15 0  0.6747157190637306 0.15 0  0.6721404682276146 0.15 0  0.6695652173914987 0.15 0  0.6669899665553827 0.15 0  0.6644147157192668 0.15 0  0.6618394648831508 0.15 0  0.6592642140470348 0.15 0  0.6566889632109189 0.15 0  0.6541137123748029 0.15 0  0.6515384615386869 0.15 0  0.6489632107025709 0.15 0  0.6463879598664549 0.15 0  0.6438127090303389 0.15 0  0.6412374581942317 0.15 0  0.6386622073581251 0.15 0  0.6360869565220184 0.15 0  0.6335117056859116 0.15 0  0.6309364548498024 0.15 0  0.6283612040136864 0.15 0  0.6257859531775705 0.15 0  0.6232107023414633 0.15 0  0.6206354515053566 0.15 0  0.6180602006692498 0.15 0  0.6154849498331432 0.15 0  0.612909698997034 0.15 0  0.6103344481609181 0.15 0  0.607759197324802 0.15 0  0.6051839464886948 0.15 0  0.602608695652588 0.15 0  0.6000334448164814 0.15
[...]
<PointData  Scalars="concentration"> 
<DataArray  type="Float64"  Name="concentration"  format="ascii">0.0000000000000000e+00  1.0000000000000016e+00  1.0000000000000016e+00  0.0000000000000000e+00  3.9219755649758194e-02  -5.8203356985018308e-02  -2.4907544775996767e-02  9.0451806559745074e-01  1.0450249970321530e+00  9.7076732685122102e-01  1.0058894801201408e+00  9.9791128135725715e-01  1.0006726506049126e+00  9.9908753002421302e-01  9.9889398015214192e-01  1.0003468137351987e+00  9.9996064598573597e-01  9.9997303927627168e-01  1.0001533624123675e+00  1.0001571279140322e+00  1.0000812289650092e+00  1.0000326139090543e+00  9.9990348633027137e-01  9.9993817609067315e-01  9.9999617524482043e-01  1.0000068933362452e+00  1.0000001007737807e+00  9.9999994190485386e-01  9.9999979528260119e-01  9.9999976412559621e-01  1.0000000014978987e+00  1.0000000454985214e+00  9.9999999560360731e-01  9.9999999702819886e-01  1.0000000044911168e+00  1.0000000219887515e+00  9.9999999776753989e-01  9.9999999715723087e-01  9.9999999720156441e-01  9.9999999968040298e-01  1.0000000001702609e+00  1.0000000001397897e+00  9.9999999998388256e-01  1.0000000000114289e+00  9.9999999999725298e-01  9.9999999998590905e-01  1.0000000000051696e+00  1.0000000000064615e+00  9.9999999999877986e-01  9.9999999999993028e-01  9.9999999999967670e-01  1.0000000000000295e+00  1.0000000000003668e+00  9.9999999999995293e-01  9.9999999999997757e-01  9.9999999999996669e-01  1.0000000000000451e+00  1.0000000000000902e+00  9.9999999999998268e-01  9.9999999999998246e-01  9.9999999999999212e-01  9.9999999999998279e-01  1.0000000000000364e+00  1.0000000000000386e+00  1.0000000000000171e+00  1.0000000000000013e+00  1.0000000000000007e+00  1.0000000000000004e+00  1.0000000000000011e+00  9.9999999999999922e-01  1.0000000000000029e+00  1.0000000000000016e+00  1.0000000000000016e+00  1.0000000000000018e+00  1.0000000000000027e+00  1.0000000000000009e+00  1.0000000000000022e+00  1.0000000000000011e+00  1.0000000000000016e+00  1.0000000000000016e+00  1.0000000000000013e+00  1.0000000000000009e+00  1.0000000000000018e+00  1.0000000000000024e+00  1.0000000000000009e+00  1.0000000000000011e+00  1.0000000000000024e+00  1.0000000000000011e+00  1.0000000000000013e+00  1.0000000000000011e+00  1.0000000000000011e+00  1.0000000000000009e+00  1.0000000000000011e+00  1.0000000000000011e+00  1.0000000000000011e+00  1.0000000000000007e+00  1.0000000000000011e+00  1.0000000000000024e+00  1.0000000000000011e+00  1.0000000000000016e+00  1.0000000000000024e+00  1.0000000000000009e+00  1.0000000000000018e+00  1.0000000000000016e+00  1.0000000000000022e+00  1.0000000000000009e+00  1.0000000000000018e+00  1.0000000000000016e+00  1.0000000000000004e+00  1.0000000000000011e+00  1.0000000000000016e+00  1.0000000000000018e+00  1.0000000000000020e+00  1.0000000000000011e+00  1.0000000000000013e+00  1.0000000000000013e+00  1.0000000000000011e+00  1.0000000000000016e+00  1.0000000000000016e+00  1.0000000000000018e+00  1.0000000000000027e+00  1.0000000000000011e+00  1.0000000000000020e+00  1.0000000000000020e+00  1.0000000000000013e+00  1.0000000000000013e+00  1.0000000000000016e+00  1.0000000000000011e+00  1.0000000000000013e+00  1.0000000000000011e+00  1.0000000000000036e+00  1.0000000000000013e+00  1.0000000000000013e+00  1.0000000000000018e+00  1.0000000000000013e+00  1.0000000000000016e+00  1.0000000000000004e+00  1.0000000000000016e+00  1.0000000000000013e+00  1.0000000000000024e+00  1.0000000000000018e+00  1.0000000000000011e+00  1.0000000000000016e+00  1.0000000000000018e+00  9.9999999999999911e-01  1.0000000000000013e+00  1.0000000000000011e+00  1.0000000000000016e+00  1.0000000000000018e+00  1.0000000000000031e+00  1.0000000000000009e+00  1.0000000000000024e+00  1.0000000000000007e+00  1.0000000000000016e+00  1.0000000000000011e+00  1.0000000000000016e+00  1.0000000000000011e+00  1.0000000000000022e+00  1.0000000000000004e+00  1.0000000000000022e+00  1.0000000000000011e+00  1.0000000000000024e+00  1.0000000000000020e+00  1.0000000000000018e+00  1.0000000000000013e+00  1.0000000000000031e+00  1.0000000000000013e+00  1.0000000000000011e+00  1.0000000000000013e+00  1.0000000000000011e+00  1.0000000000000013e+00  1.0000000000000013e+00  1.0000000000000018e+00  1.0000000000000018e+00  1.0000000000000009e+00  1.0000000000000016e+00  1.0000000000000016e+00  1.0000000000000018e+00  1.0000000000000018e+00  1.0000000000000016e+00  1.0000000000000018e+00  1.0000000000000018e+00  1.0000000000000000e+00  1.0000000000000018e+00  1.0000000000000013e+00  1.0000000000000009e+00  1.0000000000000020e+00  1.0000000000000007e+00  1.0000000000000011e+00  1.0000000000000009e+00  1.0000000000000007e+00  1.0000000000000040e+00  1.0000000000000020e+00  1.0000000000000011e+00  1.0000000000000016e+00  1.0000000000000018e+00  1.0000000000000011e+00  1.0000000000000011e+00  1.0000000000000013e+00  1.0000000000000013e+00  1.0000000000000018e+00  1.0000000000000011e+00  1.0000000000000016e+00  1.0000000000000020e+00  1.0000000000000007e+00  1.0000000000000013e+00  1.0000000000000013e+00  1.0000000000000016e+00  1.0000000000000011e+00  1.0000000000000009e+00  1.0000000000000020e+00  1.0000000000000016e+00  1.0000000000000013e+00  1.0000000000000013e+00  1.0000000000000016e+00  1.0000000000000007e+00  1.0000000000000009e+00  1.0000000000000018e+00  1.0000000000000020e+00  1.0000000000000011e+00  1.0000000000000016e+00  1.0000000000000018e+00  1.0000000000000007e+00  1.0000000000000020e+00  1.0000000000000013e+00  1.0000000000000022e+00  1.0000000000000013e+00  1.0000000000000011e+00  1.0000000000000020e+00  1.0000000000000013e+00  1.0000000000000018e+00  1.0000000000000002e+00  1.0000000000000020e+00  1.0000000000000016e+00  1.0000000000000007e+00  1.0000000000000016e+00  1.0000000000000016e+00  1.0000000000000016e+00  1.0000000000000013e+00  1.0000000000000018e+00  1.0000000000000013e+00  1.0000000000000011e+00  1.0000000000000009e+00  1.0000000000000016e+00  1.0000000000000011e+00  1.0000000000000022e+00  1.0000000000000016e+00  9.9999999999999956e-01  1.0000000000000024e+00  1.0000000000000011e+00  1.0000000000000007e+00  1.0000000000000018e+00  1.0000000000000002e+00  1.0000000000000018e+00  1.0000000000000009e+00  1.0000000000000018e+00  1.0000000000000009e+00  1.0000000000000016e+00  1.0000000000000022e+00  1.0000000000000011e+00  1.0000000000000016e+00  1.0000000000000013e+00  1.0000000000000013e+00  1.0000000000000016e+00  1.0000000000000009e+00  1.0000000000000018e+00  1.0000000000000022e+00  1.0000000000000011e+00  1.0000000000000024e+00  1.0000000000000013e+00  1.0000000000000004e+00  1.0000000000000016e+00  1.0000000000000013e+00  1.0000000000000011e+00  1.0000000000000018e+00  1.0000000000000013e+00  1.0000000000000011e+00  1.0000000000000013e+00  1.0000000000000020e+00  1.0000000000000018e+00  1.0000000000000018e+00  1.0000000000000009e+00  1.0000000000000002e+00  1.0000000000000013e+00  1.0000000000000011e+00  1.0000000000000016e+00  1.0000000000000013e+00  1.0000000000000013e+00  1.0000000000000011e+00  1.0000000000000020e+00  1.0000000000000016e+00  1.0000000000000016e+00  1.0000000000000020e+00  1.0000000000000020e+00  1.0000000000000013e+00  1.0000000000000013e+00  1.0000000000000016e+00  1.0000000000000013e+00  1.0000000000000009e+00  1.0000000000000018e+00  1.0000000000000016e+00  1.0000000000000002e+00  1.0000000000000011e+00  1.0000000000000007e+00  1.0000000000000007e+00  1.0000000000000002e+00  1.0000000000000004e+00  1.0000000000000009e+00  1.0000000000000004e+00  9.9999999999999967e-01  1.0000000000000011e+00  1.0000000000000002e+00  1.0000000000000004e+00  1.0000000000000007e+00  1.0000000000000004e+00  1.0000000000000007e+00  1.0000000000000002e+00  1.0000000000000009e+00  1.0000000000000007e+00  1.0000000000000004e+00  1.0000000000000002e+00  1.0000000000000009e+00  1.0000000000000004e+00  1.0000000000000004e+00  1.0000000000000007e+00  1.0000000000000002e+00  1.0000000000000007e+00  1.0000000000000002e+00  1.0000000000000011e+00  1.0000000000000004e+00  1.0000000000000002e+00  1.0000000000000013e+00  1.0000000000000016e+00  1.0000000000000013e+00  1.0000000000000022e+00  1.0000000000000016e+00  1.0000000000000009e+00  1.0000000000000007e+00  1.0000000000000016e+00  1.0000000000000020e+00  1.0000000000000018e+00  1.0000000000000011e+00  1.0000000000000016e+00  1.0000000000000016e+00  1.0000000000000018e+00  1.0000000000000020e+00  1.0000000000000004e+00  1.0000000000000022e+00  1.0000000000000020e+00  1.0000000000000013e+00  1.0000000000000016e+00  1.0000000000000011e+00  1.0000000000000024e+00  1.0000000000000016e+00  1.0000000000000011e+00  1.0000000000000016e+00  1.0000000000000016e+00  1.0000000000000018e+00  1.0000000000000029e+00  1.0000000000000011e+00  1.0000000000000022e+00  1.0000000000000013e+00  1.0000000000000016e+00  1.0000000000000004e+00  1.0000000000000009e+00  1.0000000000000029e+00  1.0000000000000011e+00  1.0000000000000022e+00  1.0000000000000018e+00  9.9999999999999867e-01  1.0000000000000020e+00  1.0000000000000020e+00  1.0000000000000007e+00  1.0000000000000018e+00  1.0000000000000007e+00  1.0000000000000007e+00  1.0000000000000016e+00  1.0000000000000020e+00  1.0000000000000024e+00  1.0000000000000000e+00  1.0000000000000013e+00  1.0000000000000007e+00  1.0000000000000016e+00  1.0000000000000013e+00  1.0000000000000007e+00  1.0000000000000018e+00  1.0000000000000013e+00  1.0000000000000022e+00  1.0000000000000007e+00  1.0000000000000013e+00  1.0000000000000013e+00  1.0000000000000007e+00  1.0000000000000013e+00  1.0000000000000018e+00  1.0000000000000016e+00  1.0000000000000013e+00  1.0000000000000011e+00  1.0000000000000016e+00  1.0000000000000009e+00  1.0000000000000016e+00  9.9999999999999978e-01  1.0000000000000013e+00  1.0000000000000009e+00  1.0000000000000007e+00  1.0000000000000020e+00  1.0000000000000009e+00  1.0000000000000013e+00  1.0000000000000018e+00  1.0000000000000007e+00  1.0000000000000013e+00  1.0000000000000016e+00  1.0000000000000009e+00  1.0000000000000018e+00  1.0000000000000020e+00  1.0000000000000011e+00  1.0000000000000009e+00  1.0000000000000016e+00  1.0000000000000016e+00  1.0000000000000013e+00  1.0000000000000013e+00  1.0000000000000016e+00  1.0000000000000016e+00  1.0000000000000011e+00  1.0000000000000018e+00  1.0000000000000013e+00  1.0000000000000024e+00  1.0000000000000013e+00  1.0000000000000009e+00  1.0000000000000022e+00  1.0000000000000022e+00  1.0000000000000016e+00  1.0000000000000016e+00  1.0000000000000024e+00  1.0000000000000013e+00  1.0000000000000013e+00  1.0000000000000016e+00  1.0000000000000016e+00  1.0000000000000011e+00  1.0000000000000016e+00  1.0000000000000013e+00  1.0000000000000009e+00  1.0000000000000020e+00  1.0000000000000002e+00  1.0000000000000007e+00  1.0000000000000018e+00  1.0000000000000018e+00  1.0000000000000016e+00  1.0000000000000011e+00  1.0000000000000013e+00  1.0000000000000018e+00  1.0000000000000013e+00  1.0000000000000013e+00  1.0000000000000013e+00  1.0000000000000020e+00  1.0000000000000004e+00  1.0000000000000004e+00  1.0000000000000009e+00  1.0000000000000013e+00  1.0000000000000013e+00  1.0000000000000022e+00  1.0000000000000009e+00  1.0000000000000011e+00  1.0000000000000007e+00  1.0000000000000018e+00  1.0000000000000013e+00  1.0000000000000016e+00  1.0000000000000009e+00  1.0000000000000009e+00  1.0000000000000016e+00  1.0000000000000018e+00  9.9999999999999978e-01  1.0000000000000018e+00  1.0000000000000018e+00  1.0000000000000011e+00  1.0000000000000013e+00  1.0000000000000009e+00  9.9999999999999933e-01  1.0000000000000011e+00  1.0000000000000013e+00  1.0000000000000016e+00  1.0000000000000013e+00  1.0000000000000013e+00  1.0000000000000013e+00  1.0000000000000007e+00  1.0000000000000007e+00  1.0000000000000016e+00  1.0000000000000018e+00  1.0000000000000022e+00  1.0000000000000009e+00  1.0000000000000007e+00  1.0000000000000011e+00  1.0000000000000027e+00  1.0000000000000009e+00  1.0000000000000013e+00  1.0000000000000022e+00  1.0000000000000013e+00  1.0000000000000018e+00  1.0000000000000009e+00  1.0000000000000020e+00  1.0000000000000011e+00  1.0000000000000009e+00  1.0000000000000020e+00  1.0000000000000018e+00  1.0000000000000016e+00  1.0000000000000011e+00  1.0000000000000018e+00  1.0000000000000013e+00  1.0000000000000013e+00  1.0000000000000004e+00  1.0000000000000013e+00  1.0000000000000016e+00  1.0000000000000018e+00  1.0000000000000009e+00  1.0000000000000009e+00  1.0000000000000016e+00  1.0000000000000016e+00  1.0000000000000013e+00  1.0000000000000016e+00  1.0000000000000007e+00  1.0000000000000013e+00  1.0000000000000016e+00  1.0000000000000011e+00  1.0000000000000020e+00  1.0000000000000009e+00  1.0000000000000016e+00  1.0000000000000020e+00  1.0000000000000009e+00  1.0000000000000016e+00  1.0000000000000009e+00  1.0000000000000013e+00  1.0000000000000009e+00  1.0000000000000016e+00  1.0000000000000007e+00  1.0000000000000009e+00  1.0000000000000020e+00  1.0000000000000013e+00  1.0000000000000016e+00  1.0000000000000018e+00  1.0000000000000011e+00  1.0000000000000016e+00  1.0000000000000013e+00  1.0000000000000018e+00  1.0000000000000013e+00  1.0000000000000007e+00  1.0000000000000016e+00  1.0000000000000016e+00  1.0000000000000022e+00  1.0000000000000016e+00  1.0000000000000011e+00  1.0000000000000016e+00  1.0000000000000007e+00  1.0000000000000018e+00  1.0000000000000018e+00  1.0000000000000013e+00  1.0000000000000004e+00  1.0000000000000009e+00  1.0000000000000020e+00  1.0000000000000018e+00  1.0000000000000009e+00  1.0000000000000007e+00  1.0000000000000022e+00  1.0000000000000013e+00  1.0000000000000011e+00  1.0000000000000029e+00  1.0000000000000024e+00  9.9999999999999811e-01  9.9999999999999889e-01  1.0000000000000020e+00  9.9999999999999967e-01  1.0000000000000036e+00  9.9999999999999523e-01  9.9999999999998768e-01  1.0000000000000016e+00  1.0000000000000615e+00  1.0000000000001270e+00  1.0000000000004385e+00  9.9999999999941003e-01  1.0000000000000511e+00  1.0000000000000526e+00  1.0000000000008045e+00  1.0000000000008620e+00  9.9999999999967282e-01  9.9999999999947675e-01  9.9999999999985245e-01  1.0000000000005524e+00  1.0000000000006115e+00  1.0000000000002718e+00  1.0000000000026827e+00  9.9999999996132816e-01  9.9999999984270049e-01  1.0000000000659270e+00  1.0000000000556981e+00  9.9999999991249011e-01  9.9999999966848674e-01  9.9999999878376822e-01  9.9999999899503922e-01  9.9999999995622302e-01  1.0000000016008506e+00  9.9999999923839245e-01  1.0000000115639909e+00  9.9999999936269290e-01  1.0000000351108129e+00  1.0000000025000033e+00  9.9999978755049379e-01  9.9999981060345988e-01  9.9999996138572178e-01  1.0000000886092095e+00  1.0000066873824844e+00  9.9999623465324738e-01  9.9993852139156347e-01  9.9990244211459312e-01  1.0000269798840886e+00  1.0000786347754487e+00  1.0001547539945688e+00  1.0001490694718604e+00  9.9997480523145210e-01  9.9995881020592181e-01  1.0003424585604768e+00  9.9888473636418385e-01  9.9907375753798766e-01  1.0006902515900935e+00  9.9792586656428417e-01  1.0058503576782714e+00  9.7083881512376069e-01  1.0452249011600823e+00  9.0465631131240076e-01  -2.4963962275969462e-02  -5.7777657121953249e-02  3.9048764130692616e-02  0.0000000000000000e+00  0.0000000000000000e+00  0.0000000000000000e+00  0.0000000000000000e+00  0.0000000000000000e+00  0.0000000000000000e+00  0.0000000000000000e+00  0.0000000000000000e+00  0.0000000000000000e+00  0.0000000000000000e+00  0.0000000000000000e+00  0.0000000000000000e+00  0.0000000000000000e+00  0.0000000000000000e+00  0.0000000000000000e+00  0.0000000000000000e+00  0.0000000000000000e+00  0.0000000000000000e+00  0.0000000000000000e+00  0.0000000000000000e+00  0.0000000000000000e+00  0.0000000000000000e+00  0.0000000000000000e+00  0.0000000000000000e+00  0.0000000000000000e+00  0.0000000000000000e+00  0.0000000000000000e+00  0.0000000000000000e+00  0.0000000000000000e+00  9.9999999999999978e-01  9.9999824614755162e-01  1.0000000000000016e+00  9.0723195224658137e-01  1.0000000000000018e+00  9.9999999998939082e-01  1.0000000000000018e+00  9.9999999999999900e-01  1.0000000000000024e+00  9.9999999954423802e-01  1.0000000000000013e+00  1.0000000000000002e+00  1.0000000000000013e+00  1.0000000000000011e+00  9.9999999955726371e-01  9.9986550522755535e-01  9.9983671918318351e-01  1.0000000000000020e+00  1.0000000000000027e+00  9.9999999999999944e-01  1.0000000000000011e+00  1.0000000000000007e+00  1.0000000000000016e+00  1.0000000000000007e+00  1.0000000000000027e+00  -1.4585612332103421e-02  -1.8137703730244443e-02  1.0000000000000027e+00  1.0000000000000040e+00  9.9999999999997224e-01  9.9999999818854912e-01  1.0000000000000042e+00  1.0000000000000040e+00  1.0000000000000009e+00  1.0000000000000031e+00  1.0000000000000020e+00  1.0000000000000016e+00  1.0000000000000004e+00  9.9999999309775467e-01  1.0000000000000029e+00  1.0000000000000022e+00  9.9137342860280864e-01  9.9516837334345876e-01  1.0000000000000016e+00  1.0000000000000018e+00  1.0000000000000020e+00  1.0000000000000024e+00  1.0000000000000022e+00  9.9999999944397500e-01  9.9999998256975775e-01  1.0000000000000022e+00  1.0000000000000018e+00  1.0000000000000027e+00  9.9999999999978084e-01  1.0000000000000029e+00  9.9992244732379176e-01  9.9999996309359729e-01  1.0000000000000007e+00  1.0000000000000018e+00  1.0000000000000013e+00  9.9999998339272489e-01  1.0000000000000011e+00  1.0000000000000020e+00  1.0000000000000011e+00  1.0000000000000022e+00  1.0000000000000018e+00  9.9999999999999956e-01  9.9677405911814887e-01  9.9999999999999201e-01  -1.0088471749046432e-02  1.0000000000000329e+00  1.0000000000000020e+00  1.0000000000000016e+00  1.0000000000000009e+00  1.0000000000000013e+00  1.0000000000000027e+00  9.9999999999630229e-01  9.9999646488432370e-01  1.0000000000000011e+00  1.0000000000000022e+00  1.0000000000000018e+00  1.0000000000000029e+00  1.0000000000000027e+00  1.0000000000000011e+00  9.9999999999999911e-01  1.0000000000000011e+00  9.9999999999988254e-01  1.0000000000000002e+00  1.0000000000001958e+00  1.0000000000000011e+00  1.0000000000000027e+00  1.0000000000000029e+00  9.9999999999988554e-01  9.9999600133466426e-01  9.9999999999999822e-01  9.9999999999999367e-01  9.9999787843717414e-01  9.9999873660320870e-01  1.0000000000000011e+00  1.0000000000000031e+00  1.0000000000000009e+00  1.0000000000000013e+00  1.0000000000000022e+00  1.0000000000000058e+00  1.0000000000000029e+00  1.0000000000000029e+00  1.0000000000000018e+00  -7.0582477582055767e-05  -5.5830784277237670e-03  9.4761417302648032e-01  9.4808046611953800e-01  1.0000000000000024e+00  9.9534145291683218e-01  1.0000000000000020e+00  1.0000000000000031e+00  1.0000000000000031e+00  1.0000000000000027e+00  9.9999999995947142e-01  9.9999982879275484e-01  1.0000000000000016e+00  1.0000000000000018e+00  1.0000000000000009e+00  1.0000000000000029e+00  1.0000000000000029e+00  1.0000000000000031e+00  9.9999980313090031e-01  1.0000000000000024e+00  1.0000000000000004e+00  1.0000000000000011e+00  6.9943709534752729e-01  6.9463992670025299e-01  9.9999999995378508e-01  1.0000000000000009e+00  1.0000000000000004e+00  1.0000000000000016e+00  1.0000000000404530e+00  1.0000000000000024e+00  1.0000000000000033e+00  1.0000000000000018e+00  1.0000000000160580e+00  1.0000000000000022e+00  9.9633558650974341e-01  1.0000000000000013e+00  9.9999999999999978e-01  1.0000000000000029e+00  9.9999999998787892e-01  1.0000000000000036e+00  1.0000000000000016e+00  1.0000000000000022e+00  1.0000000000000022e+00  1.0000000000000024e+00  1.0000000000000020e+00  9.9999999876316181e-01  1.0000000000000022e+00  1.0000000000000009e+00  9.9999999999482703e-01  9.9999999999997258e-01  1.0000000000000016e+00  1.0000000000000016e+00  1.0000000000000029e+00  1.0000000000000000e+00  9.9999999728838762e-01  9.9999041327641269e-01  9.9999863461104699e-01  1.0000000000000022e+00  1.0000000000000038e+00  1.0000000000000016e+00  -5.9304544285208163e-02  -7.2736528808886661e-02  9.9999999999999967e-01  1.000000000000