<?xml version="1.0"?>
<VTKFile type="UnstructuredGrid"  version="0.1"  >
<UnstructuredGrid>
<Piece  NumberOfPoints="21459" NumberOfCells="42258">
<Points>
<DataArray  type="Float64"  NumberOfComponents="3"  format="ascii">0 0 0  0.77 0 0  0.77 0.15 0  0 0.15 0  0.002575250836115831 0 0  0.005150501672231662 0 0  0.007725752508347561 0 0  0.0103010033444635 0 0  0.01287625418057944 0 0  0.01545150501669537 0 0  0.01802675585281131 0 0  0.02060200668892696 0 0  0.0231772575250426 0 0  0.02575250836115786 0 0  0.02832775919727293 0 0  0.03090301003338809 0 0  0.03347826086950344 0 0  0.0360535117056188 0 0  0.03862876254173415 0 0  0.04120401337784951 0 0  0.04377926421396486 0 0  0.04635451505008022 0 0  0.04892976588619594 0 0  0.05150501672231246 0 0  0.05408026755842897 0 0  0.05665551839454548 0 0  0.059230769230662 0 0  0.06180602006677815 0 0  0.06438127090289408 0 0  0.06695652173901002 0 0  0.06953177257512595 0 0  0.07210702341124189 0 0  0.07468227424735784 0 0  0.07725752508347376 0 0  0.07983277591959044 0 0  0.08240802675570753 0 0  0.08498327759182464 0 0  0.08755852842794172 0 0  0.09013377926405881 0 0  0.0927090301001737 0 0  0.09528428093628846 0 0  0.09785953177240253 0 0  0.1004347826085162 0 0  0.1030100334446298 0 0  0.1055852842807434 0 0  0.108160535116857 0 0  0.1107357859529706 0 0  0.1133110367890842 0 0  0.1158862876251971 0 0  0.1184615384613096 0 0  0.1210367892974217 0 0  0.123612040133533 0 0  0.1261872909696443 0 0  0.1287625418057556 0 0  0.1313377926418669 0 0  0.1339130434779796 0 0  0.1364882943140932 0 0  0.1390635451502075 0 0  0.1416387959863234 0 0  0.1442140468224393 0 0  0.1467892976585553 0 0  0.1493645484946712 0 0  0.1519397993307857 0 0  0.1545150501668993 0 0  0.1570903010030123 0 0  0.1596655518391236 0 0  0.1622408026752349 0 0  0.1648160535113462 0 0  0.1673913043474575 0 0  0.1699665551835688 0 0  0.1725418060196801 0 0  0.1751170568557914 0 0  0.1776923076919027 0 0  0.180267558528014 0 0  0.1828428093641274 0 0  0.185418060200241 0 0  0.187993311036356 0 0  0.1905685618724719 0 0  0.1931438127085879 0 0  0.1957190635447038 0 0  0.1982943143808197 0 0  0.2008695652169336 0 0  0.2034448160530472 0 0  0.2060200668891594 0 0  0.2085953177252707 0 0  0.211170568561382 0 0  0.2137458193974934 0 0  0.2163210702336046 0 0  0.2188963210697159 0 0  0.2214715719058272 0 0  0.2240468227419385 0 0  0.2266220735780498 0 0  0.2291973244141617 0 0  0.2317725752502753 0 0  0.2343478260863889 0 0  0.2369230769225046 0 0  0.2394983277586206 0 0  0.2420735785947365 0 0  0.2446488294308524 0 0  0.2472240802669673 0 0  0.2497993311030786 0 0  0.2523745819391899 0 0  0.2549498327753012 0 0  0.2575250836114125 0 0  0.2601003344475263 0 0  0.2626755852836423 0 0  0.2652508361197582 0 0  0.2678260869558742 0 0  0.2704013377919901 0 0  0.272976588628106 0 0  0.275551839464222 0 0  0.2781270903003354 0 0  0.2807023411364467 0 0  0.2832775919725579 0 0  0.2858528428086692 0 0  0.2884280936447806 0 0  0.2910033444808919 0 0  0.2935785953170031 0 0  0.2961538461531145 0 0  0.2987290969892258 0 0  0.301304347825338 0 0  0.3038795986614539 0 0  0.3064548494975699 0 0  0.3090301003336858 0 0  0.3116053511698018 0 0  0.3141806020059177 0 0  0.3167558528420336 0 0  0.3193311036781486 0 0  0.3219063545142599 0 0  0.3244816053503712 0 0  0.3270568561864825 0 0  0.3296321070225938 0 0  0.3322073578587051 0 0  0.3347826086948165 0 0  0.3373578595309277 0 0  0.339933110367039 0 0  0.3425083612031504 0 0  0.3450836120392617 0 0  0.347658862875373 0 0  0.3502341137114842 0 0  0.3528093645475955 0 0  0.3553846153837077 0 0  0.3579598662198236 0 0  0.3605351170559395 0 0  0.3631103678920555 0 0  0.3656856187281714 0 0  0.3682608695642873 0 0  0.3708361204004033 0 0  0.3734113712365184 0 0  0.3759866220726297 0 0  0.378561872908741 0 0  0.3811371237448562 0 0  0.3837123745809721 0 0  0.3862876254170927 0 0  0.3888628762532179 0 0  0.3914381270893431 0 0  0.3940133779254684 0 0  0.3965886287615936 0 0  0.3991638795977189 0 0  0.401739130433844 0 0  0.4043143812699693 0 0  0.4068896321060945 0 0  0.4094648829422198 0 0  0.412040133778345 0 0  0.4146153846144702 0 0  0.4171906354505954 0 0  0.4197658862867207 0 0  0.4223411371228482 0 0  0.4249163879589781 0 0  0.4274916387951079 0 0  0.4300668896312377 0 0  0.4326421404673676 0 0  0.4352173913034975 0 0  0.4377926421396274 0 0  0.4403678929757572 0 0  0.4429431438118872 0 0  0.4455183946480163 0 0  0.4480936454841415 0 0  0.4506688963202668 0 0  0.453244147156392 0 0  0.4558193979925173 0 0  0.4583946488286424 0 0  0.4609698996647677 0 0  0.463545150500893 0 0  0.4661204013370182 0 0  0.4686956521731435 0 0  0.4712709030092686 0 0  0.4738461538453939 0 0  0.4764214046815212 0 0  0.4789966555176511 0 0  0.481571906353781 0 0  0.4841471571899109 0 0  0.4867224080260408 0 0  0.489297658862167 0 0  0.4918729096982922 0 0  0.4944481605344174 0 0  0.4970234113705426 0 0  0.4995986622066672 0 0  0.5021739130427878 0 0  0.5047491638789084 0 0  0.5073244147150326 0 0  0.5098996655511578 0 0  0.5124749163872871 0 0  0.5150501672234217 0 0  0.5176254180595552 0 0  0.5202006688956804 0 0  0.5227759197318056 0 0  0.5253511705679309 0 0  0.5279264214040561 0 0  0.5305016722401854 0 0  0.5330769230763199 0 0  0.5356521739124535 0 0  0.5382274247485787 0 0  0.5408026755847039 0 0  0.5433779264208219 0 0  0.5459531772569379 0 0  0.5485284280930578 0 0  0.5511036789291831 0 0  0.5536789297653092 0 0  0.5562541806014436 0 0  0.5588294314375781 0 0  0.5614046822737055 0 0  0.5639799331098307 0 0  0.5665551839459561 0 0  0.5691304347820813 0 0  0.5717056856182072 0 0  0.5742809364543418 0 0  0.5768561872904763 0 0  0.5794314381266108 0 0  0.5820066889627452 0 0  0.5845819397988758 0 0  0.5871571906350012 0 0  0.5897324414711264 0 0  0.5923076923072516 0 0  0.5948829431433768 0 0  0.5974581939795088 0 0  0.6000334448156434 0 0  0.6026086956517741 0 0  0.6051839464878993 0 0  0.6077591973240239 0 0  0.6103344481601398 0 0  0.6129096989962558 0 0  0.6154849498323786 0 0  0.6180602006685038 0 0  0.6206354515046327 0 0  0.6232107023407671 0 0  0.6257859531769011 0 0  0.6283612040130263 0 0  0.6309364548491515 0 0  0.6335117056852767 0 0  0.636086956521402 0 0  0.6386622073575308 0 0  0.6412374581936653 0 0  0.6438127090297993 0 0  0.6463879598659246 0 0  0.6489632107020498 0 0  0.6515384615381682 0 0  0.6541137123742842 0 0  0.6566889632104037 0 0  0.6592642140465289 0 0  0.6618394648826547 0 0  0.6644147157187892 0 0  0.6669899665549236 0 0  0.6695652173910515 0 0  0.6721404682271768 0 0  0.674715719063302 0 0  0.6772909698994272 0 0  0.6798662207355527 0 0  0.6824414715716872 0 0  0.6850167224078217 0 0  0.6875919732439497 0 0  0.6901672240800749 0 0  0.6927424749161967 0 0  0.6953177257523127 0 0  0.6978929765884289 0 0  0.7004682274245541 0 0  0.7030434782606794 0 0  0.705618729096811 0 0  0.7081939799329454 0 0  0.7107692307690766 0 0  0.7133444816052019 0 0  0.7159197324413271 0 0  0.7184949832774523 0 0  0.7210702341135775 0 0  0.7236454849497092 0 0  0.7262207357858437 0 0  0.7287959866219749 0 0  0.7313712374581001 0 0  0.7339464882942252 0 0  0.7365217391303411 0 0  0.7390969899664571 0 0  0.7416722408025793 0 0  0.7442474916387045 0 0  0.7468227424748329 0 0  0.7493979933109675 0 0  0.7519732441471019 0 0  0.7545484949832271 0 0  0.7571237458193523 0 0  0.7596989966554775 0 0  0.7622742474916027 0 0  0.764849498327731 0 0  0.7674247491638655 0 0  0.77 0.004999999999990473 0  0.77 0.009999999999980134 0  0.77 0.01499999999997245 0  0.77 0.01999999999996296 0  0.77 0.02499999999994839 0  0.77 0.02999999999993517 0  0.77 0.03499999999992059 0  0.77 0.03999999999990602 0  0.77 0.04499999999989145 0  0.77 0.04999999999987687 0  0.77 0.0549999999998623 0  0.77 0.05999999999985044 0  0.77 0.06499999999983586 0  0.77 0.06999999999982129 0  0.77 0.07499999999980943 0  0.77 0.07999999999981869 0  0.77 0.08499999999983195 0  0.77 0.08999999999984591 0  0.77 0.09499999999985989 0  0.77 0.09999999999987387 0  0.77 0.1049999999998868 0  0.77 0.1099999999998987 0  0.77 0.1149999999999134 0  0.77 0.1199999999999254 0  0.77 0.1249999999999365 0  0.77 0.1299999999999492 0  0.77 0.1349999999999592 0  0.77 0.1399999999999721 0  0.77 0.144999999999986 0  0.7674247491638934 0.15 0  0.7648494983277866 0.15 0  0.7622742474916738 0.15 0  0.7596989966555578 0.15 0  0.7571237458194419 0.15 0  0.7545484949833259 0.15 0  0.7519732441472099 0.15 0  0.7493979933110939 0.15 0  0.7468227424749779 0.15 0  0.7442474916388619 0.15 0  0.741672240802746 0.15 0  0.73909698996663 0.15 0  0.736521739130514 0.15 0  0.733946488294398 0.15 0  0.7313712374582821 0.15 0  0.7287959866221662 0.15 0  0.7262207357860502 0.15 0  0.7236454849499342 0.15 0  0.7210702341138182 0.15 0  0.7184949832777022 0.15 0  0.7159197324415862 0.15 0  0.7133444816054703 0.15 0  0.7107692307693543 0.15 0  0.7081939799332383 0.15 0  0.7056187290971223 0.15 0  0.7030434782610063 0.15 0  0.7004682274248905 0.15 0  0.6978929765887745 0.15 0  0.6953177257526585 0.15 0  0.6927424749165425 0.15 0  0.6901672240804265 0.15 0  0.6875919732443105 0.15 0  0.6850167224081946 0.15 0  0.6824414715720786 0.15 0  0.6798662207359626 0.15 0  0.6772909698998466 0.15 0  0.6747157190637306 0.15 0  0.6721404682276146 0.15 0  0.6695652173914987 0.15 0  0.6669899665553827 0.15 0  0.6644147157192668 0.15 0  0.6618394648831508 0.15 0  0.6592642140470348 0.15 0  0.6566889632109189 0.15 0  0.6541137123748029 0.15 0  0.6515384615386869 0.15 0  0.6489632107025709 0.15 0  0.6463879598664549 0.15 0  0.6438127090303389 0.15 0  0.6412374581942317 0.15 0  0.6386622073581251 0.15 0  0.6360869565220184 0.15 0  0.6335117056859116 0.15 0  0.6309364548498024 0.15 0  0.6283612040136864 0.15 0  0.6257859531775705 0.15 0  0.6232107023414633 0.15 0  0.6206354515053566 0.15 0  0.6180602006692498 0.15 0  0.6154849498331432 0.15 0  0.612909698997034 0.15 0  0.6103344481609181 0.15 0  0.607759197324802 0.15 0  0.6051839464886948 0.15 0  0.602608695652588 0.15 0  0.6000334448164814 0.15
[...]
<PointData  Scalars="pressure"> 
<DataArray  type="Float64"  Name="pressure"  format="ascii">4.7808542089126671e-01  -2.9917429635538898e-11  2.8287323512894508e-11  4.7837209063912850e-01  3.9029616285605651e-01  3.8197350988886714e-01  3.8509281493771613e-01  2.5892718723603297e-01  2.3977988969579644e-01  2.3220395935816204e-01  2.3057595744811432e-01  2.3003399755541001e-01  2.2914599173597736e-01  2.2819475055889299e-01  2.2728232752860769e-01  2.2637651721829163e-01  2.2570156222376081e-01  2.2526149976324603e-01  2.2497288391216963e-01  2.2482065275617300e-01  2.2472808270641709e-01  2.2470745155102978e-01  2.2472012467730404e-01  2.2474316771553812e-01  2.2479190805817187e-01  2.2483688186466894e-01  2.2486647735693699e-01  2.2486293122247261e-01  2.2479584886574802e-01  2.2467099315817099e-01  2.2447856358287183e-01  2.2421204635424000e-01  2.2388407029666435e-01  2.2350560213669113e-01  2.2309978504977282e-01  2.2266429065764548e-01  2.2223076645014786e-01  2.2181129052599829e-01  2.2140813248247507e-01  2.2103393839779703e-01  2.2069623719258785e-01  2.2039210971620243e-01  2.2011999025595921e-01  2.1989104059536238e-01  2.1968675253672665e-01  2.1950768097808473e-01  2.1933773710403540e-01  2.1917953416988428e-01  2.1901011120045244e-01  2.1881607699237784e-01  2.1859833707915188e-01  2.1835941610488574e-01  2.1808947633293119e-01  2.1779656480229717e-01  2.1748597602938649e-01  2.1715553886757338e-01  2.1680581531069684e-01  2.1644305403578121e-01  2.1606368945809351e-01  2.1567007668036361e-01  2.1525667827465347e-01  2.1482713994919558e-01  2.1437157048909469e-01  2.1389418736419466e-01  2.1339598606335244e-01  2.1287424223624729e-01  2.1233856909877127e-01  2.1178971480695566e-01  2.1123063213068730e-01  2.1066528380221744e-01  2.1008813408838597e-01  2.0950211278884820e-01  2.0890453113852142e-01  2.0829283666626713e-01  2.0766004961053444e-01  2.0701328241993555e-01  2.0634253293208155e-01  2.0564928483851444e-01  2.0494003753109274e-01  2.0420822069246308e-01  2.0345873427673816e-01  2.0269143911453036e-01  2.0190897173934266e-01  2.0110814412283987e-01  2.0029480552168849e-01  1.9947053393567740e-01  1.9862932793359853e-01  1.9777902485193039e-01  1.9691729541966668e-01  1.9604647932737601e-01  1.9516526198772810e-01  1.9427657600046158e-01  1.9338045507627857e-01  1.9247813852129200e-01  1.9156963109546318e-01  1.9065689600390445e-01  1.8973938995216563e-01  1.8881845474023479e-01  1.8789489312348359e-01  1.8696954509437327e-01  1.8604184515404934e-01  1.8511315295357805e-01  1.8418332069615689e-01  1.8325314601281742e-01  1.8232238163207928e-01  1.8139158454004356e-01  1.8046136591587100e-01  1.7953112923955813e-01  1.7860128805243133e-01  1.7767188021494865e-01  1.7674302624405297e-01  1.7581474692939322e-01  1.7488716768829968e-01  1.7396009314593813e-01  1.7303363738963620e-01  1.7210770964217190e-01  1.7118241129510331e-01  1.7025767715054180e-01  1.6933342633377851e-01  1.6840961544338112e-01  1.6748629656401581e-01  1.6656338447441069e-01  1.6564082726992033e-01  1.6471865428447038e-01  1.6379676422261541e-01  1.6287515547919926e-01  1.6195381537221551e-01  1.6103269642589291e-01  1.6011177698799617e-01  1.5919102156913240e-01  1.5827045744210916e-01  1.5734998381861678e-01  1.5642965503302239e-01  1.5550941400157944e-01  1.5458927212577991e-01  1.5366918274182151e-01  1.5274915765117222e-01  1.5182918001898218e-01  1.5090923728480637e-01  1.4998932598886996e-01  1.4906943999893466e-01  1.4814956319012595e-01  1.4722969528871846e-01  1.4630983422139091e-01  1.4538997603042789e-01  1.4447011085165151e-01  1.4355024314822395e-01  1.4263036297023274e-01  1.4171047287957950e-01  1.4079057457155950e-01  1.3987066127087477e-01  1.3895073228089735e-01  1.3803079110930397e-01  1.3711083381117364e-01  1.3619086086589666e-01  1.3527087380582611e-01  1.3435087050486128e-01  1.3343085259644427e-01  1.3251082093432034e-01  1.3159077459204743e-01  1.3067071521919404e-01  1.2975064172143866e-01  1.2883055647763109e-01  1.2791045894361119e-01  1.2699035037833911e-01  1.2607023034869094e-01  1.2515010077498073e-01  1.2422996205302216e-01  1.2330981380269272e-01  1.2238965794374773e-01  1.2146949296391749e-01  1.2054932228432665e-01  1.1962914423636015e-01  1.1870896031865803e-01  1.1778877077361272e-01  1.1686857648405258e-01  1.1594837700363100e-01  1.1502817355173423e-01  1.1410796572452421e-01  1.1318775475027147e-01  1.1226754062020106e-01  1.1134732324306219e-01  1.1042710450649776e-01  1.0950688234862592e-01  1.0858665832396544e-01  1.0766643297001219e-01  1.0674620606675972e-01  1.0582597749656285e-01  1.0490574817318433e-01  1.0398551789681638e-01  1.0306528651182460e-01  1.0214505470552268e-01  1.0122482229205179e-01  1.0030458941659660e-01  9.9384356304912339e-02  9.8464122954416880e-02  9.7543889501380404e-02  9.6623655865209199e-02  9.5703422359675133e-02  9.4783188845216193e-02  9.3862955491501338e-02  9.2942722240218115e-02  9.2022489242493496e-02  9.1102256422663064e-02  9.0182023817874352e-02  8.9261791549633471e-02  8.8341559532073927e-02  8.7421327778150593e-02  8.6501096445472520e-02  8.5580865290006539e-02  8.4660634516984426e-02  8.3740404119840101e-02  8.2820173983802370e-02  8.1899944206798789e-02  8.0979714668574385e-02  8.0059485572357453e-02  7.9139256706848293e-02  7.8219028134828644e-02  7.7298799912989574e-02  7.6378571920849084e-02  7.5458344237913519e-02  7.4538116824740680e-02  7.3617889685423876e-02  7.2697662762996218e-02  7.1777436079167020e-02  7.0857209646033065e-02  6.9936983424540036e-02  6.9016757414826421e-02  6.8096531614808012e-02  6.7176305983936660e-02  6.6256080538149312e-02  6.5335855268572593e-02  6.4415630159079987e-02  6.3495405203738267e-02  6.2575180392913210e-02  6.1654955720933227e-02  6.0734731177271364e-02  5.9814506744634136e-02  5.8894282431934293e-02  5.7974058226872231e-02  5.7053834120909745e-02  5.6133610104434906e-02  5.5213386175161520e-02  5.4293162326877441e-02  5.3372938550459881e-02  5.2452714854863795e-02  5.1532491211860099e-02  5.0612267638286815e-02  4.9692044117118424e-02  4.8771820648831621e-02  4.7851597226474460e-02  4.6931373848710170e-02  4.6011150510739646e-02  4.5090927213842447e-02  4.4170703949832732e-02  4.3250480717322154e-02  4.2330257510595597e-02  4.1410034331588505e-02  4.0489811180709073e-02  3.9569588047069428e-02  3.8649364936399727e-02  3.7729141842794169e-02  3.6808918765684449e-02  3.5888695704732375e-02  3.4968472655309453e-02  3.4048249618917503e-02  3.3128026593455373e-02  3.2207803577459782e-02  3.1287580571489011e-02  3.0367357571538897e-02  2.9447134579509582e-02  2.8526911593636215e-02  2.7606688612205176e-02  2.6686465636040765e-02  2.5766242664767975e-02  2.4846019696116720e-02  2.3925796730603490e-02  2.3005573768615908e-02  2.2085350807690089e-02  2.1165127849459911e-02  2.0244904892393455e-02  1.9324681936854458e-02  1.8404458981975059e-02  1.7484236028127327e-02  1.6564013074916298e-02  1.5643790122087775e-02  1.4723567169618527e-02  1.3803344217018345e-02  1.2883121264598984e-02  1.1962898312366570e-02  1.1042675359976320e-02  1.0122452406895273e-02  9.2022294541060663e-03  8.2820065012185091e-03  7.3617835476753445e-03  6.4415605944507029e-03  5.5213376410264527e-03  4.6011146877836277e-03  3.6808917352331963e-03  2.7606687834232364e-03  1.8404458368743754e-03  9.2022288870264235e-04  -2.3221462274326959e-11  -3.0918638896750881e-11  -3.6560992517713441e-11  -4.0421665579129496e-11  -4.3603130206944557e-11  -4.5887526752840724e-11  -4.6142866664836887e-11  -4.4380650712241320e-11  -4.2015164636711207e-11  -3.7738510450703725e-11  -3.2001655382228249e-11  -2.5176209372141045e-11  -1.7395231172701185e-11  -8.7650730323492260e-12  2.3567021364454165e-14  8.8785785068828078e-12  1.7128518822068469e-11  2.5084210351004518e-11  3.1837944688640254e-11  3.7912194518640087e-11  4.2032267040995839e-11  4.4335658641297987e-11  4.6172693149665967e-11  4.5934395685358022e-11  4.3622289446781927e-11  4.0462743216790793e-11  3.6548916485313199e-11  3.0906085044226098e-11  2.3283545697364284e-11  9.2022306230483627e-04  1.8404460642267939e-03  2.7606690683537188e-03  3.6808920674372492e-03  4.6011150650993263e-03  5.5213380628491128e-03  6.4415610600211557e-03  7.3617840572031057e-03  8.2820070545193917e-03  9.2022300521234311e-03  1.0122453049779399e-02  1.1042676047699202e-02  1.1962899045757702e-02  1.2883122043935869e-02  1.3803345042222331e-02  1.4723568040500337e-02  1.5643791038474717e-02  1.6564014036158734e-02  1.7484237033715714e-02  1.8404460030507431e-02  1.9324683026437587e-02  2.0244906021284644e-02  2.1165129015242094e-02  2.2085352007345467e-02  2.3005574997299792e-02  2.3925797985089758e-02  2.4846020970854161e-02  2.5766243953605033e-02  2.6686466932295792e-02  2.7606689905912404e-02  2.8526912876707146e-02  2.9447135840428851e-02  3.0367358799458719e-02  3.1287581751314228e-02  3.2207804693824248e-02  3.3128027630011825e-02  3.4048250554242022e-02  3.4968473469022134e-02  3.5888696372011114e-02  3.6808919259579916e-02  3.7729142133157090e-02  3.8649364991703718e-02  3.9569587829964233e-02  4.0489810649852666e-02  4.1410033447920248e-02  4.2330256221666918e-02  4.3250478964329070e-02  4.4170701686051965e-02  4.5090924371083904e-02  4.6011147022356855e-02  4.6931369636908103e-02  4.7851592212437580e-02  4.8771814739156961e-02  4.9692037223171233e-02  5.0612259654787835e-02  5.1532482027827099e-02  5.2452704341513848e-02  5.3372926593725868e-02  5.4293148772532218e-02  5.5213370873230472e-02  5.6133592900048962e-02  5.7053814847099600e-02  5.7974036677760382e-02  5.8894258432280584e-02  5.9814480066736168e-02  6.0734701593618760e-02  6.1654922998647659e-02  6.2575144278798234e-02  6.3495365425202135e-02  6.4415586409429501e-02  6.5335807264841020e-02  6.6256027940411591e-02  6.7176248455095788e-02  6.8096468781750824e-02  6.9016688923461647e-02  6.9936908868685407e-02  7.0857128582856657e-02  7.1777348083428921e-02  7.2697567380892808e-02  7.3617786414540726e-02  7.4538005202711088e-02  7.5458223707260311e-02  7.6378441994475368e-02  7.7298659920433957e-02  7.8218877645727131e-02  7.9139095010130750e-02  8.0059312055691681e-02  8.0979528801934472e-02  8.1899745249618780e-02  8.2819961378302928e-02  8.3740177093877016e-02  8.4660392551105426e-02  8.5580607637845169e-02  8.6500822389508514e-02  8.7421036803872781e-02  8.8341250867670224e-02  8.9261464673971655e-02  9.0181678128533560e-02  9.1101891198928878e-02  9.2022104047997544e-02  9.2942316703617689e-02  9.3862529044546769e-02  9.4782741196551945e-02  9.5702953118521852e-02  9.6623165000529407e-02  9.7543376738266213e-02  9.8463588525188023e-02  9.9383800246350351e-02  1.0030401220968185e-01  1.0122422431539628e-01  1.0214443660884560e-01  1.0306464931258426e-01  1.0398486247536411e-01  1.0490507640522274e-01  1.0582529077875459e-01  1.0674550654287054e-01  1.0766572308368060e-01  1.0858594111040908e-01  1.0950616056348891e-01  1.1042638134473375e-01  1.1134660445453740e-01  1.1226682944141148e-01  1.1318705701322759e-01  1.1410728738769299e-01  1.1502752142734997e-01  1.1594775846757562e-01  1.1686799948348556e-01  1.1778824464644456e-01  1.1870849500141020e-01  1.1962874955094115e-01  1.2054901188540643e-01  1.2146927977632042e-01  1.2238955390710185e-01  1.2330983643260324e-01  1.2423012818805372e-01  1.2515042792585668e-01  1.2607073815807757e-01  1.2699105878275735e-01  1.2791139284084013e-01  1.2883173800498957e-01  1.2975209803897364e-01  1.3067247386973249e-01  1.3159286581924171e-01  1.3251327543020455e-01  1.3343370492571707e-01  1.3435415516102617e-01  1.3527462720534691e-01  1.3619512546093471e-01  1.3711564933951012e-01  1.3803620275588327e-01  1.3895678547136164e-01  1.3987740399969339e-01  1.4079806110029483e-01  1.4171875517201873e-01  1.4263948783076569e-01  1.4356027179487785e-01  1.4448110525465496e-01  1.4540199158166472e-01  1.4632293815393710e-01  1.4724394477264210e-01  1.4816502724572408e-01  1.4908617690212350e-01  1.5000741387556923e-01  1.5092873752178848e-01  1.5185015838896573e-01  1.5277167796763425e-01  1.5369330181415966e-01  1.5461507350753192e-01  1.5553695008075594e-01  1.5645898161795799e-01  1.5738118284277025e-01  1.5830353390084767e-01  1.5922607223584723e-01  1.6014881281229393e-01  1.6107177268520576e-01  1.6199494050259125e-01  1.6291837154615221e-01  1.6384205386924386e-01  1.6476601076937689e-01  1.6569025758743533e-01  1.6661488478691935e-01  1.6753978117886578e-01  1.6846507835328095e-01  1.6939072385503776e-01  1.7031670416132955e-01  1.7124312651891049e-01  1.7216996797053058e-01  1.7309716815673298e-01  1.7402476982780110e-01  1.7495283227906036e-01  1.7588107134310382e-01  1.7680965209955857e-01  1.7773855181457524e-01  1.7866747625109419e-01  1.7959694101842405e-01  1.8052606397448318e-01  1.8145472883178113e-01  1.8238333474092000e-01  1.8331162086365024e-01  1.8423894393277007e-01  1.8516436981120032e-01  1.8608915509495172e-01  1.8701232423326991e-01  1.8793236941713734e-01  1.8885031683458733e-01  1.8976390111929611e-01  1.9067440659934634e-01  1.9158010528522790e-01  1.9248075594383901e-01  1.9337460512744351e-01  1.9426225805884348e-01  1.9514375101664949e-01  1.9601514334610667e-01  1.9687817458555323e-01  1.9773181224174863e-01  1.9857444687855419e-01  1.9940868144785370e-01  2.0022740214610099e-01  2.0103500820945619e-01  2.0182903419144252e-01  2.0260926419254469e-01  2.0337007750548630e-01  2.0411795283254749e-01  2.0484581288334419e-01  2.0555526072937907e-01  2.0624124420764159e-01  2.0690619905956231e-01  2.0754865286746313e-01  2.0816705056999202e-01  2.0876202910999239e-01  2.0933425590835056e-01  2.0988531115326794e-01  2.1041582595613012e-01  2.1092883102215779e-01  2.1142814082481010e-01  2.1191622322127163e-01  2.1239731530965739e-01  2.1287054753321266e-01  2.1333997273626640e-01  2.1380174396064180e-01  2.1425525301479903e-01  2.1469956108247226e-01  2.1512717786187413e-01  2.1553530735706217e-01  2.1591759152607401e-01  2.1627589545161108e-01  2.1660163564842508e-01  2.1689990414815136e-01  2.1717618226115332e-01  2.1742767165388285e-01  2.1766929469983357e-01  2.1790340587344870e-01  2.1813703988844832e-01  2.1837355987120483e-01  2.1861162228352626e-01  2.1886068380119472e-01  2.1912503428945940e-01  2.1940361231110408e-01  2.1970451984939235e-01  2.2002753158864211e-01  2.2038055832339667e-01  2.2075563885095939e-01  2.2114903934148791e-01  2.2155991715638387e-01  2.2198885604361801e-01  2.2243085339377439e-01  2.2289833061157732e-01  2.2338574900537517e-01  2.2386430125668560e-01  2.2433619678311034e-01  2.2475868770442942e-01  2.2511073083389008e-01  2.2536802865110572e-01  2.2552648978889925e-01  2.2559727785932179e-01  2.2557774313589934e-01  2.2550882436935282e-01  2.2541577618200737e-01  2.2531303903214686e-01  2.2523713895703551e-01  2.2517348954782265e-01  2.2514960040139606e-01  2.2520513831642539e-01  2.2532516659791227e-01  2.2558692006865455e-01  2.2600415724661199e-01  2.2665960559960099e-01  2.2754898507235655e-01  2.2844683570144803e-01  2.2938601793166116e-01  2.3026434136679250e-01  2.3079879702602427e-01  2.3242045643551457e-01  2.3999453482309838e-01  2.5914108932363528e-01  3.8537959911910435e-01  3.8226059967954368e-01  3.9058239827686553e-01  3.7728989147197523e-01  3.6697500053621601e-01  3.5237445623538477e-01  3.4346661832511688e-01  3.3722132936113225e-01  3.3290873758111622e-01  3.2992370998947762e-01  3.2767720970639108e-01  3.2598268382012668e-01  3.2475243715595281e-01  3.2383105932534723e-01  3.2317872280349613e-01  3.2269962313989214e-01  3.2243974906457334e-01  3.2233057710754975e-01  3.2241389087096650e-01  3.2263520513477123e-01  3.2308129661993057e-01  3.2372162403147220e-01  3.2460563348418292e-01  3.2581331047155576e-01  3.2746707470874031e-01  3.2971240287934389e-01  3.3268618824700880e-01  3.3697634535121196e-01  3.4320910703291685e-01  3.5210498424413811e-01  3.6669575649298369e-01  3.7700525721862066e-01  5.8434158923528622e-02  2.9498911892849061e-01  8.8744170712715953e-02  3.0998137827585948e-01  2.8090071719111053e-02  1.8618782322729932e-01  1.5864232161999073e-01  1.1634019132435121e-01  1.3767283769872912e-01  2.0029369221654447e-01  7.3537482690284664e-02  4.3287790134999699e-02  4.3109816483981066e-02  7.3436527993606088e-02  1.9944466145281950e-01  3.0136855810027230e-01  3.0124798272792691e-01  1.0278852449754594e-01  1.7248338154098361e-01  1.0261711856344663e-01  1.7253368931133417e-01  1.4527524545321552e-01  1.2887209294633697e-01  1.6076275463539416e-02  1.5870724797453700e-02  3.1588168958159984e-01  3.1618395115119746e-01  1.2470315958504767e-01  1.5045210885813348e-01  1.8988031832801425e-01  2.0806444229247228e-01  1.8934320843331023e-01  6.0832520291144693e-02  5.6300219560742992e-02  8.6480037112904903e-02  3.0416634121102966e-02  8.6531422172006822e-02  3.0351485354658345e-02  2.0859840080085290e-01  1.5960180019489228e-01  1.1554626508566088e-01  3.0586299271718176e-01  3.0573933483334265e-01  1.1324236577860657e-01  1.6185532797126861e-01  1.2753336360765147e-01  1.4784463115904953e-01  1.3517969423666973e-01  1.9696968697967562e-01  3.0157374276057081e-01  5.0820664505562288e-02  6.6066588555345654e-02  9.9160159969359687e-02  1.7586587088752931e-01  1.8048587461007190e-01  2.9973912043756307e-01  2.9115558338747510e-01  4.8185162498779126e-02  6.8657259701911305e-02  1.3749823507622802e-01  2.1270551944460339e-01  1.7993260778393294e-01  7.8890444781605909e-02  3.8047115792985836e-02  9.5666060871195766e-02  9.5696120810490962e-02  1.3682613673670513e-01  3.0430123407324122e-01  1.9736828260179357e-01  3.1695910457798165e-01  1.9731851812311052e-01  1.5101996548192223e-01  7.7718094929150702e-02  3.8919200174508922e-02  4.7702087063271503e-02  7.8003568727332079e-02  2.0387931957273855e-01  2.9644751072969533e-01  1.6761493969891525e-01  1.0725107552861032e-01  6.8803144014015799e-02  3.8558427578854942e-02  9.3811021728781543e-02  9.3657639263727402e-02  5.3277054571553864e-02  6.3388011638253791e-02  1.8133637904132197e-01  1.7240308566199770e-02  2.0391962102220274e-01  2.2545463167196775e-02  2.2671504511815755e-02  1.2345399792138129e-01  1.8126699740768465e-01  2.9788472884493944e-01  1.0781984975640717e-01  1.6734720045308896e-01  3.0230464486979763e-01  2.1755746968894049e-01  1.4368783664665830e-01  1.5365244719945217e-01  1.6429801167222938e-01  1.0500759237627819e-01  1.6994865316067800e-01  1.1051878094651062e-01  9.6129354205159567e-03  9.6124137633586855e-03  1.2116629567721834e-01  3.1996276020949027e-01  3.2027687018108414e-01  3.0985520091970342e-01  3.1112785003812671e-01  1.1767951185569542e-01  3.0536443463025659e-01  3.5509617445494558e-02  8.1443496963000406e-02  1.2032930157356797e-01  1.5496517301532828e-01  1.9420313300624639e-01  2.9186519530009969e-01  6.3672300891883402e-02  5.3275130737959885e-02  2.3888047437472266e-02  2.3989682050733496e-02  1.5654873030540625e-01  1.2809605440388985e-01  2.9244316286212629e-01  8.1157223197720604e-02  3.5711049559603913e-02  1.4311311329286344e-01  3.1172833019951324e-01  3.1143284713396624e-01  1.9116050843242660e-01  1.3032469339545549e-01  1.4400241477029876e-01  1.3031810004772143e-01  2.1003261956368222e-01  1.8695943581597227e-01  5.7236520299836176e-02  5.9653605299910255e-02  2.1015620775018040e-01  1.8651118499656411e-01  3.0465701098479864e-01  1.6547933262020337e-01  8.9102413166826766e-02  8.9246182568879201e-02  1.9542804004433056e-01  3.2316630350293092e-02  1.0953896874792401e-01  1.5742456609562566e-01  3.1994849238809603e-02  1.7393847049757338e-01  1.1379174704242738e-01  2.0445822620256529e-01  4.5048371943746363e-02  7.1800413302257921e-02  1.8776623579315119e-01  1.7025631776456432e-01  1.6116108696212567e-02  1.6250575031808521e-02  1.0137079176514098e-01  6.7448856023824499e-02  2.0338784210494254e-01  2.2057180454751787e-01  2.2109631372020250e-01  1.0458171318470426e-01  4.9451782219870871e-02  1.2364164318820725e-01  3.0927871306425109e-01  3.0979562699614099e-01  8.7458517829155175e-02  1.4322338052559547e-