<?xml version="1.0"?>
<VTKFile type="UnstructuredGrid"  version="0.1"  >
<UnstructuredGrid>
<Piece  NumberOfPoints="21337" NumberOfCells="41988">
<Points>
<DataArray  type="Float64"  NumberOfComponents="3"  format="ascii">0 0 0  0.77 0 0  0.77 0.15 0  0 0.15 0  0.002692307692302917 0 0  0.005384615384605834 0 0  0.008076923076908835 0 0  0.01076923076921186 0 0  0.01346153846151489 0 0  0.01615384615381792 0 0  0.01884615384612085 0 0  0.02153846153842357 0 0  0.02423076923072626 0 0  0.02692307692302838 0 0  0.02961538461533049 0 0  0.03230769230763287 0 0  0.03499999999993529 0 0  0.03769230769223771 0 0  0.04038461538454013 0 0  0.04307692307684255 0 0  0.04576923076914497 0 0  0.04846153846144754 0 0  0.05115384615375117 0 0  0.0538461538460548 0 0  0.05653846153835843 0 0  0.05923076923066205 0 0  0.06192307692296529 0 0  0.06461538461526832 0 0  0.06730769230757135 0 0  0.06999999999987438 0 0  0.07269230769217741 0 0  0.07538461538448044 0 0  0.07807692307678345 0 0  0.08076923076908764 0 0  0.08346153846139188 0 0  0.08615384615369612 0 0  0.08884615384600036 0 0  0.0915384615383034 0 0  0.09423076923060524 0 0  0.09692307692290673 0 0  0.09961538461520734 0 0  0.1023076923075079 0 0  0.1049999999998086 0 0  0.1076923076921091 0 0  0.1103846153844097 0 0  0.1130769230767103 0 0  0.1157692307690103 0 0  0.1184615384613097 0 0  0.1211538461536087 0 0  0.1238461538459068 0 0  0.126538461538205 0 0  0.1292307692305032 0 0  0.1319230769228014 0 0  0.1346153846151016 0 0  0.1373076923074022 0 0  0.1399999999997043 0 0  0.1426923076920073 0 0  0.1453846153843103 0 0  0.1480769230766134 0 0  0.150769230768916 0 0  0.1534615384612166 0 0  0.1561538461535172 0 0  0.1588461538458156 0 0  0.1615384615381138 0 0  0.164230769230412 0 0  0.1669230769227102 0 0  0.1696153846150083 0 0  0.1723076923073065 0 0  0.1749999999996047 0 0  0.1776923076919029 0 0  0.180384615384201 0 0  0.1830769230765016 0 0  0.1857692307688022 0 0  0.1884615384611046 0 0  0.1911538461534076 0 0  0.1938461538457106 0 0  0.1965384615380136 0 0  0.199230769230316 0 0  0.2019230769226166 0 0  0.2046153846149171 0 0  0.2073076923072153 0 0  0.2099999999995135 0 0  0.2126923076918116 0 0  0.2153846153841098 0 0  0.218076923076408 0 0  0.2207692307687062 0 0  0.2234615384610044 0 0  0.2261538461533025 0 0  0.2288461538456009 0 0  0.2315384615379015 0 0  0.2342307692302022 0 0  0.2369230769225048 0 0  0.2396153846148079 0 0  0.2423076923071109 0 0  0.2449999999994139 0 0  0.247692307691715 0 0  0.2503846153840132 0 0  0.2530769230763114 0 0  0.2557692307686096 0 0  0.2584615384609077 0 0  0.2611538461532104 0 0  0.2638461538455134 0 0  0.2665384615378165 0 0  0.2692307692301195 0 0  0.2719230769224225 0 0  0.2746153846147255 0 0  0.2773076923070275 0 0  0.2799999999993256 0 0  0.2826923076916238 0 0  0.285384615383922 0 0  0.2880769230762202 0 0  0.2907692307685183 0 0  0.2934615384608165 0 0  0.2961538461531147 0 0  0.2988461538454129 0 0  0.3015384615377124 0 0  0.3042307692300155 0 0  0.3069230769223185 0 0  0.3096153846146215 0 0  0.3123076923069245 0 0  0.3149999999992276 0 0  0.3176923076915306 0 0  0.3203846153838307 0 0  0.323076923076129 0 0  0.3257692307684272 0 0  0.3284615384607253 0 0  0.3311538461530235 0 0  0.3338461538453217 0 0  0.3365384615376198 0 0  0.339230769229918 0 0  0.3419230769222162 0 0  0.3446153846145144 0 0  0.3473076923068126 0 0  0.3499999999991107 0 0  0.3526923076914089 0 0  0.3553846153837079 0 0  0.3580769230760109 0 0  0.360769230768314 0 0  0.363461538460617 0 0  0.3661538461529201 0 0  0.3688461538452231 0 0  0.3715384615375261 0 0  0.3742307692298269 0 0  0.3769230769221251 0 0  0.3796153846144243 0 0  0.3823076923067274 0 0  0.3849999999990304 0 0  0.3876923076913432 0 0  0.3903846153836559 0 0  0.3930769230759686 0 0  0.3957692307682814 0 0  0.3984615384605941 0 0  0.4011538461529068 0 0  0.4038461538452195 0 0  0.4065384615375321 0 0  0.409230769229845 0 0  0.4119230769221576 0 0  0.4146153846144704 0 0  0.4173076923067831 0 0  0.4199999999990959 0 0  0.4226923076914115 0 0  0.425384615383729 0 0  0.4280769230760466 0 0  0.4307692307683642 0 0  0.4334615384606818 0 0  0.4361538461529995 0 0  0.438846153845317 0 0  0.4415384615376347 0 0  0.4442307692299522 0 0  0.4469230769222666 0 0  0.4496153846145793 0 0  0.4523076923068921 0 0  0.4549999999992048 0 0  0.4576923076915175 0 0  0.4603846153838302 0 0  0.463076923076143 0 0  0.4657692307684557 0 0  0.4684615384607684 0 0  0.471153846153081 0 0  0.4738461538453938 0 0  0.4765384615377089 0 0  0.4792307692300266 0 0  0.4819230769223441 0 0  0.4846153846146617 0 0  0.4873076923069792 0 0  0.489999999999292 0 0  0.4926923076916048 0 0  0.4953846153839174 0 0  0.4980769230762301 0 0  0.5007692307685402 0 0  0.5034615384608481 0 0  0.5061538461531575 0 0  0.5088461538454702 0 0  0.5115384615377837 0 0  0.5142307692301061 0 0  0.5169230769224287 0 0  0.5196153846147429 0 0  0.5223076923070555 0 0  0.5249999999993683 0 0  0.527692307691681 0 0  0.5303846153839974 0 0  0.5330769230763198 0 0  0.5357692307686409 0 0  0.5384615384609537 0 0  0.5411538461532663 0 0  0.5438461538455703 0 0  0.5465384615378733 0 0  0.5492307692301829 0 0  0.5519230769224956 0 0  0.5546153846148125 0 0  0.5573076923071351 0 0  0.5599999999994555 0 0  0.5626923076917683 0 0  0.5653846153840809 0 0  0.5680769230763936 0 0  0.5707692307687064 0 0  0.5734615384610262 0 0  0.5761538461533487 0 0  0.5788461538456712 0 0  0.5815384615379936 0 0  0.5842307692303135 0 0  0.5869230769226261 0 0  0.5896153846149389 0 0  0.5923076923072516 0 0  0.5949999999995643 0 0  0.5976923076918849 0 0  0.6003846153842073 0 0  0.6030769230765242 0 0  0.605769230768837 0 0  0.6084615384611465 0 0  0.6111538461534496 0 0  0.6138461538457535 0 0  0.6165384615380662 0 0  0.6192307692303789 0 0  0.6219230769227 0 0  0.6246153846150224 0 0  0.6273076923073388 0 0  0.6299999999996516 0 0  0.6326923076919642 0 0  0.6353846153842769 0 0  0.6380769230765913 0 0  0.6407692307689137 0 0  0.6434615384612361 0 0  0.6461538461535496 0 0  0.6488461538458623 0 0  0.6515384615381684 0 0  0.6542307692304714 0 0  0.6569230769227788 0 0  0.6596153846150916 0 0  0.6623076923074064 0 0  0.6649999999997288 0 0  0.6676923076920513 0 0  0.6703846153843642 0 0  0.6730769230766769 0 0  0.6757692307689896 0 0  0.6784615384613023 0 0  0.6811538461536201 0 0  0.6838461538459425 0 0  0.6865384615382623 0 0  0.689230769230575 0 0  0.6919230769228872 0 0  0.6946153846151903 0 0  0.6973076923074933 0 0  0.6999999999998043 0 0  0.702692307692117 0 0  0.7053846153844354 0 0  0.7080769230767577 0 0  0.7107692307690769 0 0  0.7134615384613896 0 0  0.7161538461537023 0 0  0.718846153846015 0 0  0.7215384615383277 0 0  0.724230769230649 0 0  0.7269230769229713 0 0  0.7296153846152876 0 0  0.7323076923076003 0 0  0.7349999999999092 0 0  0.7376923076922122 0 0  0.7403846153845167 0 0  0.7430769230768295 0 0  0.7457692307691423 0 0  0.748461538461464 0 0  0.7511538461537864 0 0  0.7538461538461021 0 0  0.7565384615384148 0 0  0.7592307692307275 0 0  0.7619230769230403 0 0  0.7646153846153552 0 0  0.7673076923076777 0 0  0.77 0.002678571428566427 0  0.77 0.005357142857132536 0  0.77 0.008035714285698086 0  0.77 0.01071428571426477 0  0.77 0.01339285714283192 0  0.77 0.01607142857139917 0  0.77 0.01874999999996588 0  0.77 0.02142857142853017 0  0.77 0.02410714285709379 0  0.77 0.0267857142856574 0  0.77 0.02946428571422236 0  0.77 0.03214285714278598 0  0.77 0.03482142857134959 0  0.77 0.0374999999999132 0  0.77 0.04017857142847682 0  0.77 0.04285714285704043 0  0.77 0.04553571428560405 0  0.77 0.04821428571416767 0  0.77 0.05089285714273128 0  0.77 0.05357142857129488 0  0.77 0.05624999999985985 0  0.77 0.05892857142842482 0  0.77 0.06160714285698844 0  0.77 0.06428571428555205 0  0.77 0.06696428571411567 0  0.77 0.06964285714267927 0  0.77 0.07232142857124288 0  0.77 0.07499999999980922 0  0.77 0.07767857142838523 0  0.77 0.08035714285696278 0  0.77 0.08303571428554266 0  0.77 0.08571428571411904 0  0.77 0.08839285714270011 0  0.77 0.09107142857127612 0  0.77 0.09374999999985754 0  0.77 0.09642857142843357 0  0.77 0.09910714285701384 0  0.77 0.101785714285591 0  0.77 0.1044642857141701 0  0.77 0.1071428571427485 0  0.77 0.1098214285713264 0  0.77 0.1124999999999059 0  0.77 0.1151785714284854 0  0.77 0.1178571428570634 0  0.77 0.1205357142856417 0  0.77 0.1232142857142209 0  0.77 0.1258928571427942 0  0.77 0.1285714285713702 0  0.77 0.1312499999999516 0  0.77 0.1339285714285276 0  0.77 0.1366071428571091 0  0.77 0.1392857142856851 0  0.77 0.1419642857142665 0  0.77 0.1446428571428425 0  0.77 0.1473214285714224 0  0.7673076923077067 0.15 0  0.7646153846154133 0.15 0  0.7619230769231125 0.15 0  0.7592307692308095 0.15 0  0.7565384615385063 0.15 0  0.7538461538462033 0.15 0  0.7511538461539002 0.15 0  0.7484615384615971 0.15 0  0.7457692307692941 0.15 0  0.743076923076991 0.15 0  0.7403846153846879 0.15 0  0.7376923076923849 0.15 0  0.7350000000000818 0.15 0  0.7323076923077787 0.15 0  0.7296153846154757 0.15 0  0.7269230769231726 0.15 0  0.7242307692308696 0.15 0  0.7215384615385665 0.15 0  0.7188461538462634 0.15 0  0.7161538461539604 0.15 0  0.7134615384616573 0.15 0  0.7107692307693542 0.15 0  0.7080769230770512 0.15 0  0.7053846153847481 0.15 0  0.702692307692445 0.15 0  0.700000000000142 0.15 0  0.6973076923078388 0.15 0  0.6946153846155358 0.15 0  0.6919230769232327 0.15 0  0.6892307692309296 0.15 0  0.6865384615386265 0.15 0  0.6838461538463235 0.15 0  0.6811538461540204 0.15 0  0.6784615384617174 0.15 0  0.6757692307694143 0.15 0  0.6730769230771112 0.15 0  0.6703846153848081 0.15 0  0.6676923076925051 0.15 0  0.665000000000202 0.15 0  0.662307692307899 0.15 0  0.6596153846155959 0.15 0  0.6569230769232928 0.15 0  0.6542307692309897 0.15 0  0.6515384615386867 0.15 0  0.6488461538463836 0.15 0  0.6461538461540804 0.15 0  0.6434615384617781 0.15 0  0.6407692307694848 0.15 0  0.6380769230771914 0.15 0  0.6353846153848981 0.15 0  0.6326923076926048 0.
[...]
<PointData  Scalars="pressure"> 
<DataArray  type="Float64"  Name="pressure"  format="ascii">1.4839936736843965e+04  5.9835362211093412e-01  5.9835167935443923e-01  1.4839889067013237e+04  1.4741221443865086e+04  1.4651119523375231e+04  1.4560137487708787e+04  1.4470286687213111e+04  1.4379721884018960e+04  1.4292150996689605e+04  1.4201590346310211e+04  1.4112942299663071e+04  1.4024203305376453e+04  1.3934333384907048e+04  1.3847388937452059e+04  1.3759513371763251e+04  1.3669132726444999e+04  1.3579932805312925e+04  1.3491611332656972e+04  1.3403572418943204e+04  1.3313711879644923e+04  1.3226497028601003e+04  1.3135944223623734e+04  1.3046592904975592e+04  1.2958902670226549e+04  1.2870316789311375e+04  1.2781851258131468e+04  1.2692307619316769e+04  1.2605939933459846e+04  1.2515567463819041e+04  1.2427380144900742e+04  1.2337913362477184e+04  1.2249656733999274e+04  1.2159826191415716e+04  1.2073448876526118e+04  1.1982968853031256e+04  1.1894948421984287e+04  1.1805231962997941e+04  1.1716571697524962e+04  1.1629196653397832e+04  1.1542491887011092e+04  1.1452788566716426e+04  1.1362526110442652e+04  1.1274830454152263e+04  1.1185759302690145e+04  1.1098329712805576e+04  1.1008745491803265e+04  1.0920959597793380e+04  1.0830905561551052e+04  1.0742158616247234e+04  1.0654827958525048e+04  1.0565543099215096e+04  1.0478363165751989e+04  1.0387226474532206e+04  1.0298578082841928e+04  1.0211950101813480e+04  1.0121784095860519e+04  1.0032975471523745e+04  9.9452499983041998e+03  9.8584263834817702e+03  9.7685278447176661e+03  9.6778012959989410e+03  9.5900798224126447e+03  9.5026067116891245e+03  9.4142326985679611e+03  9.3244009721873754e+03  9.2357791310844877e+03  9.1464533845434999e+03  9.0594099326255910e+03  8.9702317801596018e+03  8.8821194154004716e+03  8.7931145440480250e+03  8.7043265226181938e+03  8.6155515591700587e+03  8.5267611426309795e+03  8.4382314580581515e+03  8.3503657861680276e+03  8.2619941317475514e+03  8.1721282097762096e+03  8.0849620231012786e+03  7.9950447608170962e+03  7.9065752601873091e+03  7.8187558940412719e+03  7.7300832195138946e+03  7.6413493887423328e+03  7.5526249049401440e+03  7.4639487042861638e+03  7.3750868507618898e+03  7.2866690547086573e+03  7.1983777757406933e+03  7.1082641183333008e+03  7.0206421746696924e+03  6.9338427282668617e+03  6.8440350801232162e+03  6.7557692882708325e+03  6.6678723508700878e+03  6.5791124941462103e+03  6.4892648708577472e+03  6.4008471182229114e+03  6.3129111282772510e+03  6.2242400983337357e+03  6.1346126961703658e+03  6.0477352426998777e+03  5.9579459081477034e+03  5.8696788027190769e+03  5.7818331132107387e+03  5.6920716848745251e+03  5.6042550929463869e+03  5.5160581488964308e+03  5.4274505013900571e+03  5.3375583999565706e+03  5.2486911295282953e+03  5.1605594721978960e+03  5.0717990474358621e+03  4.9840280731138710e+03  4.8941972933585457e+03  4.8068044192261486e+03  4.7196094894112848e+03  4.6310151215983642e+03  4.5401429536897867e+03  4.4527591083968528e+03  4.3634369825799859e+03  4.2735785336244708e+03  4.1841814122691667e+03  4.0934687764595860e+03  3.9749648319433149e+03  2.8473416913510405e+03  2.7919098130147554e+03  2.7336046891538899e+03  2.6724989494262686e+03  2.6455515259567946e+03  2.6243000122687872e+03  2.6064994997445415e+03  2.5892580004658234e+03  2.5725304516911742e+03  2.5557878886242452e+03  2.5394852570366138e+03  2.5224565130687329e+03  2.5062368556961178e+03  2.4893663225003888e+03  2.4730924030847250e+03  2.4562995789077431e+03  2.4397922425976635e+03  2.4233033667715931e+03  2.4067180409757325e+03  2.3900120435866170e+03  2.3735982633164599e+03  2.3571088150296805e+03  2.3402423562219597e+03  2.3236181117809128e+03  2.3072618908956424e+03  2.2909227369264881e+03  2.2741449065894813e+03  2.2576205480865106e+03  2.2411499024717036e+03  2.2245474239854120e+03  2.2076780376529077e+03  2.1911229953228572e+03  2.1744175662015277e+03  2.1581209435990277e+03  2.1413195673285786e+03  2.1249566848018580e+03  2.1082499956330457e+03  2.0916296053922874e+03  2.0750055149661598e+03  2.0581929826996711e+03  2.0420377656989097e+03  2.0253305645905104e+03  2.0086232925342399e+03  1.9921098828356755e+03  1.9751322422396693e+03  1.9587721545403526e+03  1.9423718931991775e+03  1.9257413039952557e+03  1.9087783687352421e+03  1.8924699638748182e+03  1.8757267526217070e+03  1.8594283880021123e+03  1.8425699174635440e+03  1.8260526404392253e+03  1.8095176398063486e+03  1.7928799114660476e+03  1.7762208802822015e+03  1.7596178080135935e+03  1.7429023267849434e+03  1.7265302770007938e+03  1.7101301129807152e+03  1.6934305862036288e+03  1.6769472283063931e+03  1.6602621403609753e+03  1.6432636804820438e+03  1.6269523034676204e+03  1.6104178408724999e+03  1.5936306499310861e+03  1.5771657357695965e+03  1.5605170577459876e+03  1.5438396695728284e+03  1.5273256644419846e+03  1.5106212221473759e+03  1.4943402260101404e+03  1.4776559797146035e+03  1.4609497120788731e+03  1.4440397528841690e+03  1.4277333228313325e+03  1.4112328548962362e+03  1.3948065027879786e+03  1.3778604987693764e+03  1.3610776178651297e+03  1.3448372166634269e+03  1.3280685475233929e+03  1.3115785486702846e+03  1.2947864803578418e+03  1.2784981254628751e+03  1.2615293209501999e+03  1.2449302897913658e+03  1.2285148762904937e+03  1.2121172107508037e+03  1.1953225699904553e+03  1.1784300384729961e+03  1.1622329496972723e+03  1.1456319502458678e+03  1.1285781651068166e+03  1.1122243082205662e+03  1.0956292630229411e+03  1.0791215206171889e+03  1.0623070044561994e+03  1.0459061415457204e+03  1.0293206034883542e+03  1.0127725900786744e+03  9.9594049640223955e+02  9.7972159903722115e+02  9.6276073879218222e+02  9.4611582050432003e+02  9.2965903811808516e+02  9.1316703347970792e+02  8.9653274572980854e+02  8.7972032013130081e+02  8.6318865140305888e+02  8.4667117013553082e+02  8.3014988647777750e+02  8.1332082908003508e+02  7.9697666007970315e+02  7.8019226452684211e+02  7.6376174244213905e+02  7.4685668042410850e+02  7.3048484183948574e+02  7.1368643012974508e+02  6.9701331734842154e+02  6.8062800883987404e+02  6.6432246554542121e+02  6.4747702889134814e+02  6.3079137774988044e+02  6.1430639518252633e+02  5.9777087149963018e+02  5.8096344983418567e+02  5.6474553932589174e+02  5.4794201959367228e+02  5.3104629214122747e+02  5.1448945220485734e+02  4.9805786201881580e+02  4.8167552946312787e+02  4.6475947487739461e+02  4.4823923248527001e+02  4.3151087289665662e+02  4.1500090985238921e+02  3.9836110658619964e+02  3.8197089861813703e+02  3.6518521557784260e+02  3.4875798787386123e+02  3.3213187497110368e+02  3.1563737059374023e+02  2.9877647602527514e+02  2.8214757486334071e+02  2.6577733355598895e+02  2.4921946293069391e+02  2.3223419936766393e+02  2.1572000148701869e+02  1.9929121448021775e+02  1.8267556658669713e+02  1.6609931675787783e+02  1.4920459870722925e+02  1.3307561533292665e+02  1.1639431508029656e+02  9.9701994954251816e+01  8.2721329227296494e+01  6.6086133594603851e+01  4.9495353694721366e+01  3.3147307348684144e+01  1.6787316905088286e+01  -9.6220500436144333e-03  1.6956246050622570e-02  2.5006870985298819e-02  -2.0452785501609756e-03  2.5262959112280379e-03  4.1540342648791964e-04  2.9845539157908765e-05  2.1116888175980675e-05  6.4963158801795983e-09  6.8293392540653260e-06  -7.4060639477562063e-06  5.5919732101036218e-07  -1.0541792662772855e-06  6.4077416418602691e-07  -2.9448943594953325e-07  -1.0074186572060835e-07  -1.1590477316124622e-07  -1.9325583553457766e-07  8.5432984448551700e-08  1.5216766086498541e-07  1.3374342431841521e-07  9.9160483737975220e-08  4.7424468532352980e-08  3.8360365840622366e-07  6.7017206926102854e-08  1.1519182330373894e-07  1.3051334413107530e-08  -7.2084671115088103e-09  3.1603111589840910e-08  -6.1517140447982649e-08  -4.1332788125370454e-08  8.8970926089392002e-09  9.3075795777265004e-08  -1.0384128611794225e-07  -3.8350675484641345e-08  9.9597201861199126e-08  -1.9318757150991704e-08  -2.0136536773994732e-07  -9.2637423875677653e-08  -1.0963301823535994e-07  -4.5838977499856311e-07  -7.7128601266703925e-08  -1.5290288258435823e-06  3.0417360788286065e-07  -7.5374275242889258e-06  6.7534268402552139e-06  3.5313478166729641e-08  2.1128299311964599e-05  2.9857209782404974e-05  4.1542263076264961e-04  2.5263057757904457e-03  -2.0452755104769459e-03  2.5006823837027486e-02  1.6956191691160478e-02  -9.6220182279193496e-03  1.6787261797868844e+01  3.3147198528353037e+01  4.9495190594215053e+01  6.6085915152311614e+01  8.2721054432530423e+01  9.9701661803521048e+01  1.1639392350888573e+02  1.3307516414057295e+02  1.4920408829845505e+02  1.6609874265566083e+02  1.8267492787690813e+02  1.9929050779957029e+02  2.1571922524473300e+02  2.3223334879903550e+02  2.4921853422648513e+02  2.6577632453324560e+02  2.8214648414634979e+02  2.9877529895378194e+02  3.1563610287220934e+02  3.3213051445032596e+02  3.4875653057699640e+02  3.6518365683110659e+02  3.8196923084329131e+02  3.9835932648122269e+02  4.1499900794314590e+02  4.3150884466126757e+02  4.4823706749713654e+02  4.6475716632235748e+02  4.8167306477693984e+02  4.9805523728053078e+02  5.1448665432103758e+02  5.3104330972960690e+02  5.4793883507756891e+02  5.6474214014094593e+02  5.8095982811542819e+02  5.9776700182178115e+02  6.1430226135952330e+02  6.3078696221003293e+02  6.4747230215619334e+02  6.6431739516565403e+02  6.8062258606219473e+02  6.9700749381414585e+02  7.1368017117629427e+02  7.3047809852487796e+02  7.4684941467842680e+02  7.6375388389484874e+02  7.8018376577943684e+02  7.9696748360959305e+02  8.1331039320107686e+02  8.3013832815361184e+02  8.4665828909111519e+02  8.6317524394324619e+02  8.7970391865264935e+02  8.9651424294236142e+02  9.1314672294540765e+02  9.2963509411831933e+02  9.4609807421115738e+02  9.6266680864109685e+02  9.7946774001081678e+02  9.9600040015390630e+02  1.0127672393824107e+03  1.0290636234934127e+03  1.0459849414593023e+03  1.0624015939920505e+03  1.0791404525723487e+03  1.0959236485433742e+03  1.1121433328903270e+03  1.1290582260653775e+03  1.1457246691793291e+03  1.1619779486739487e+03  1.1787667392878841e+03  1.1953669414267758e+03  1.2117991323619892e+03  1.2283744085159080e+03  1.2451752697025474e+03  1.2614654304321400e+03  1.2780786380866991e+03  1.2951040440604459e+03  1.3113901787551461e+03  1.3281652682010674e+03  1.3446727457627505e+03  1.3616066206878870e+03  1.3778063629685594e+03  1.3943325752285532e+03  1.4113500370105598e+03  1.4276180721716478e+03  1.4444759235353802e+03  1.4609742519052452e+03  1.4774871251670343e+03  1.4943171368956644e+03  1.5105610541233436e+03  1.5274641074152357e+03  1.5438765748624360e+03  1.5607137260800148e+03  1.5772281162919442e+03  1.5939068428777405e+03  1.6105121278212666e+03  1.6270543469213339e+03  1.6437034339616280e+03  1.6601491542357687e+03  1.6766842181350260e+03  1.6934932405617508e+03  1.7097306425072793e+03  1.7265974801849763e+03  1.7434238149399630e+03  1.7595652323806939e+03  1.7764390257884770e+03  1.7930472223358004e+03  1.8097903550069318e+03  1.8262266964724552e+03  1.8428647479752035e+03  1.8596267599467908e+03  1.8763013601265113e+03  1.8924660140823075e+03  1.9092704886289889e+03  1.9261907837707529e+03  1.9423792296961105e+03  1.9587668845103644e+03  1.9755905007722008e+03  1.9920247776720610e+03  2.0090558714972676e+03  2.0257756875269699e+03  2.0419560510140370e+03  2.0586722888790091e+03  2.0752762392498021e+03  2.0921036717228194e+03  2.1084413258341210e+03  2.1252763067032374e+03  2.1420135305711378e+03  2.1582025010183784e+03  2.1751413676018024e+03  2.1915203269314375e+03  2.2084201142777047e+03  2.2250098423969175e+03  2.2415487241001524e+03  2.2581454913802236e+03  2.2748346881594753e+03  2.2913827628738936e+03  2.3082086043376239e+03  2.3248705078609964e+03  2.3412422715769912e+03  2.3575555314140647e+03  2.3741413336842302e+03  2.3912305565220436e+03  2.4081527424945334e+03  2.4244280034538392e+03  2.4412204493440554e+03  2.4577139179297860e+03  2.4745142200405276e+03  2.4910055446928295e+03  2.5079567071699485e+03  2.5243105568577957e+03  2.5412793884368948e+03  2.5582563255705195e+03  2.5745193384591444e+03  2.5916273677939002e+03  2.6087497029733586e+03  2.6258791989651859e+03  2.6457488493294468e+03  2.6726903310075477e+03  2.7295965632202033e+03  2.7879564654033597e+03  2.8473647938473050e+03  2.9029641501109804e+03  3.8469969943377346e+03  4.1679450546574571e+03  4.2612507264214955e+03  4.3533611913421955e+03  4.4417558652605658e+03  4.5323210736966230e+03  4.6217953177906047e+03  4.7111056498541184e+03  4.7986563389114617e+03  4.8894959040677841e+03  4.9781435137876770e+03  5.0675312112284146e+03  5.1554608955594786e+03  5.2437439127325033e+03  5.3335103549852784e+03  5.4210989547130821e+03  5.5112710671463756e+03  5.6010734384358138e+03  5.6888304308617799e+03  5.7762799569646213e+03  5.8651984752440376e+03  5.9561322743657383e+03  6.0431973070760632e+03  6.1328628359528711e+03  6.2210405203720811e+03  6.3114447635803135e+03  6.3976929399390747e+03  6.4871955512061950e+03  6.5777530210257528e+03  6.6661111036072771e+03  6.7525546166304985e+03  6.8421697267947138e+03  6.9310021435563012e+03  7.0200385586307048e+03  7.1085955538175185e+03  7.1974074161601166e+03  7.2865184759196009e+03  7.3736355968188136e+03  7.4627097133860225e+03  7.5513086739837154e+03  7.6400974283648284e+03  7.7286696708201298e+03  7.8169704436061529e+03  7.9052507834844137e+03  7.9953681567403437e+03  8.0850482833289616e+03  8.1710627475507426e+03  8.2614282272937235e+03  8.3492026921142533e+03  8.4394926594387089e+03  8.5287029091505556e+03  8.6148822875592741e+03  8.7028034548758005e+03  8.7932501078474706e+03  8.8809852608174006e+03  8.9687841810917362e+03  9.0589553662397539e+03  9.1477866756069670e+03  9.2359681430871497e+03  9.3244724958184634e+03  9.4137520340588817e+03  9.5025481928456848e+03  9.5908631176570780e+03  9.6792971859458994e+03  9.7673317760983264e+03  9.8571506861626931e+03  9.9448414860567882e+03  1.0033708586368350e+04  1.0122481723280198e+04  1.0210495971155508e+04  1.0298739752506735e+04  1.0387896369650114e+04  1.0476897137804883e+04  1.0565600557883550e+04  1.0653511987019998e+04  1.0741798534939620e+04  1.0832386779123621e+04  1.0920940776128316e+04  1.1008040303613756e+04  1.1096717882841229e+04  1.1185337748185673e+04  1.1275077107394798e+04  1.1361907133802451e+04  1.1451969654460703e+04  1.1541868297563331e+04  1.1628580382514005e+04  1.1718419316597632e+04  1.1806659266460920e+04  1.1894683466010214e+04  1.1983487248430252e+04  1.2071549113417064e+04  1.2160038492867950e+04  1.2249588990175054e+04  1.2337536533607818e+04  1.2427244472316588e+04  1.2515447485627630e+04  1.2605831871338685e+04  1.2692217233464255e+04  1.2781803914760812e+04  1.2870442638268285e+04  1.2959264752710456e+04  1.3045769148183379e+04  1.3135828023954127e+04  1.3226517993303207e+04  1.3313609074308783e+04  1.3403481459419125e+04  1.3491535123583151e+04  1.3579862441583069e+04  1.3669066599224516e+04  1.3759450761339409e+04  1.3847329168009403e+04  1.3934275919505373e+04  1.4024147939900686e+04  1.4112888668844345e+04  1.4201538195888694e+04  1.4292100108884708e+04  1.4379672006511370e+04  1.4470237639394656e+04  1.4560089046186346e+04  1.4651071536176216e+04  1.4741173718762086e+04  1.4829462888362408e+04  1.4826698919749546e+04  1.4825054516961729e+04  1.4823603585547493e+04  1.4822543820193723e+04  1.4821668087843707e+04  1.4820944874557719e+04  1.4820330972744467e+04  1.4819805575565893e+04  1.4819347813280065e+04  1.4818938518532776e+04  1.4818570306836575e+04  1.4818250266561186e+04  1.4817956674727911e+04  1.4817699503851905e+04  1.4817467143955488e+04  1.4817265631216491e+04  1.4817081621322501e+04  1.4816919368014353e+04  1.4816780844398943e+04  1.4816657697847559e+04  1.4816557133665918e+04  1.4816468106290447e+04  1.4816396665021137e+04  1.4816342900823252e+04  1.4816306768443743e+04  1.4816284614189699e+04  1.4816277175482530e+04  1.4816286680588279e+04  1.4816311932893635e+04  1.4816350477161070e+04  1.4816405913604656e+04  1.4816479901910290e+04  1.4816571260765819e+04  1.4816675600123799e+04  1.4816797248322711e+04  1.4816943030930859e+04  1.4817104408037329e+04  1.4817291231060797e+04  1.4817496108299181e+04  1.4817732261186642e+04  1.4817990939733530e+04  1.4818285215055905e+04  1.4818606846429871e+04  1.4818976685946815e+04  1.4819387521758570e+04  1.4819846695147986e+04  1.4820373386791107e+04  1.4820988484190935e+04  1.4821712743892260e+04  1.4822589402566116e+04  1.4823649933510173e+04  1.4825101435135508e+04  1.4826746284264404e+04  1.4829510470464209e+04  4.6210569292869991e+02  1.2350507929848220e+04  1.4184186531507435e+03  9.3567274492655019e+02  9.5340504406588880e+03  6.6270505800681949e+03  4.1354439946644552e+03  2.0009173197687885e+03  2.3735205402408542e+03  1.7109324652814128e+03  8.0936302509464385e+03  8.1359385177373015e+03  1.0961731021520334e+04  1.0969770281896450e+04  1.6765175512380235e+03  1.1800944050745090e+03  1.1784248963945181e+03  6.9994256204301166e+02  7.0017313942624730e+02  2.2327784124575728e+03  5.3745945320963601e+03  5.3863200098986044e+03  2.5204899887690954e+03  2.7101647024651868e+02  1.3377520676689253e+04  1.3393393806631340e+04  2.6841369926816469e+02  2.5924411427641212e+03  2.1517842086862843e+03  1.9079774377576612e+03  1.4877700580859105e+03  1.9314183238373394e+03  6.9373176033127629e+03  9.2632821474321827e+03  6.9054530191893191e+03  9.3255389469530946e+03  1.2135008817085432e+04  1.2123051631703256e+04  1.4553320178958752e+03  9.5561323707426391e+02  9.5530217168340414e+02  4.1752799243514637e+03  4.8948005078067979e+02  4.9006270722209979e+02  4.3879221855639926e+03  2.0112451268629053e+02  1.3744520748778139e+04  2.4146777139447831e+03  2.5548670251099020e+03  2.1872850191108000e+03  1.8101377147696016e+03  1.0209718436652240e+04  7.5907180156871345e+03  1.0246125199002381e+04  5.6606038485986528e+03  1.3178508122526205e+03  2.3740555991714355e+03  6.4221616242828850e+02  1.2400265333970203e+03  1.5986496283275974e+03  8.5967885862339481e+03  1.1415452407991977e+04  2.0987745519979353e+03  6.0754215299073066e+03  1.0486377312079851e+04  6.0507393033405988e+03  1.2946462342917180e+03  1.7767839745883955e+03  2.3774996406768887e+03  8.0575355068103408e+02  8.0746695064469293e+02  7.7002117559935559e+03  1.7632250682114743e+03  7.7306317773635183e+03  1.1351322490237462e+04  1.1348933078833164e+04  1.5992344407864889e+03  1.3973392001299377e+04  1.3973437363581132e+04  1.5739380523137669e+02  1.5739333975510158e+02  2.6173894766333569e+03  8.5665886049528217e+03  1.0962926288928434e+03  1.0962824373298918e+03  1.0039830815192243e+04  1.3299381935317488e+03  4.9190348829131854e+03  6.1974528419395338e+03  8.5308826207032380e+03  6.1886408778188670e+03  1.0896189290967891e+03  1.3293620626557295e+03  1.6209706168219896e+03  2.0821530991266009e+03  6.2682460578090729e+02  6.2682808357302463e+02  7.9125135753712914e+02  1.2841739177241412e+04  1.2844367457945862e+04  2.0378354349758501e+03  9.9808514274896716e+03  8.4940121674606007e+02  2.2673705699849747e+03  4.8916999471766630e+03  1.0431349375776742e+03  3.5703711077531824e+02  3.5651379973513559e+02  3.4864347226713080e+03  5.1263846930165555e+03  4.6509190586265477e+03  1.3042408250880280e+04  3.3336431519097539e+02  1.2680439352779664e+04  2.2355208498821639e+03  5.5207975551680545e+02  5.5211912182101355e+02  3.9819899303719217e+02  1.4261362499697847e+02  1.4057143852866880e+04  1.4079662459352912e+02  1.4063897210185245e+04  2.0250118036305839e+03  3.9951309977958858e+03  1.8501190997253677e+03  3.7368417111878393e+03  1.5103140648363608e+03  7.3707389143901473e+03  1.1874749560677148e+04  1.1884188254525179e+04  9.0707935597316937e+03  2.5351797879710816e+03  9.0728318742082047e+03  2.2832308802363800e+03  8.3726593482158682e+02  7.0917835990982121e+03  1.5065125526129646e+03  2.4936445859525334e+03  1.8025574090559305e+03  2.4920247909995519e+03  9.6100758974218497e+03  1.4315540027147883e+03  9.6490432586260631e+03  1.2707970654591165e+04  1.9834464705