<?xml version="1.0"?>
<VTKFile type="UnstructuredGrid"  version="0.1"  >
<UnstructuredGrid>
<Piece  NumberOfPoints="4408" NumberOfCells="8313">
<Points>
<DataArray  type="Float64"  NumberOfComponents="3"  format="ascii">6 0.1 0  7.1 0.1 0  8 0.1 0  8 0.22 0  7.1 0.22 0  7 0.22 0  6 0.22 0  6.008527131783115 0.1 0  6.01705426356606 0.1 0  6.025581395348834 0.1 0  6.034108527131772 0.1 0  6.042635658914882 0.1 0  6.051162790697997 0.1 0  6.059689922480948 0.1 0  6.068217054263728 0.1 0  6.07674418604666 0.1 0  6.085271317829764 0.1 0  6.093798449612879 0.1 0  6.102325581395837 0.1 0  6.110852713178624 0.1 0  6.11937984496155 0.1 0  6.127906976744646 0.1 0  6.136434108527761 0.1 0  6.144961240310725 0.1 0  6.15348837209352 0.1 0  6.162015503876439 0.1 0  6.170542635659528 0.1 0  6.179069767442498 0.1 0  6.187596899225297 0.1 0  6.196124031008068 0.1 0  6.20465116279098 0.1 0  6.213178294574063 0.1 0  6.221705426357039 0.1 0  6.230232558139845 0.1 0  6.238759689922617 0.1 0  6.247286821705522 0.1 0  6.255813953488598 0.1 0  6.264341085271582 0.1 0  6.272868217054394 0.1 0  6.281395348837165 0.1 0  6.289922480620064 0.1 0  6.298449612403133 0.1 0  6.306976744186123 0.1 0  6.315503875968942 0.1 0  6.324031007751714 0.1 0  6.332558139534606 0.1 0  6.341085271317668 0.1 0  6.349612403100665 0.1 0  6.358139534883491 0.1 0  6.366666666666262 0.1 0  6.375193798449147 0.1 0  6.383720930232204 0.1 0  6.392248062015207 0.1 0  6.400775193798039 0.1 0  6.409302325580811 0.1 0  6.417829457363689 0.1 0  6.426356589146739 0.1 0  6.434883720929749 0.1 0  6.443410852712588 0.1 0  6.451937984495359 0.1 0  6.460465116278231 0.1 0  6.468992248061274 0.1 0  6.47751937984429 0.1 0  6.486046511627137 0.1 0  6.494573643409908 0.1 0  6.503100775192773 0.1 0  6.511627906975716 0.1 0  6.520155038758567 0.1 0  6.528682170541338 0.1 0  6.53720930232411 0.1 0  6.545736434106968 0.1 0  6.554263565889997 0.1 0  6.562790697673027 0.1 0  6.571317829455887 0.1 0  6.57984496123874 0.1 0  6.588372093021763 0.1 0  6.596899224804878 0.1 0  6.605426356587916 0.1 0  6.613953488370782 0.1 0  6.622480620153628 0.1 0  6.631007751936646 0.1 0  6.639534883719688 0.1 0  6.64806201550256 0.1 0  6.656589147285331 0.1 0  6.66511627906817 0.1 0  6.673643410851181 0.1 0  6.682170542634229 0.1 0  6.690697674417108 0.1 0  6.699224806199942 0.1 0  6.707751937982947 0.1 0  6.716279069766062 0.1 0  6.724806201549118 0.1 0  6.733333333332004 0.1 0  6.741860465114831 0.1 0  6.750387596897829 0.1 0  6.758914728680944 0.1 0  6.767441860464007 0.1 0  6.775968992246899 0.1 0  6.78449612402972 0.1 0  6.793023255812711 0.1 0  6.801550387595826 0.1 0  6.810077519378895 0.1 0  6.818604651161794 0.1 0  6.827131782944608 0.1 0  6.835658914727593 0.1 0  6.844186046510708 0.1 0  6.852713178293785 0.1 0  6.86124031007669 0.1 0  6.869767441859497 0.1 0  6.878294573642475 0.1 0  6.88682170542559 0.1 0  6.895348837208672 0.1 0  6.903875968991585 0.1 0  6.912403100774386 0.1 0  6.920930232557357 0.1 0  6.929457364340472 0.1 0  6.937984496123562 0.1 0  6.946511627906481 0.1 0  6.955038759689274 0.1 0  6.963565891472238 0.1 0  6.972093023255354 0.1 0  6.980620155038451 0.1 0  6.989147286821376 0.1 0  6.997674418604163 0.1 0  7.006201550387121 0.1 0  7.014728682170236 0.1 0  7.023255813953339 0.1 0  7.031782945736271 0.1 0  7.040310077519051 0.1 0  7.048837209302002 0.1 0  7.057364341085117 0.1 0  7.065891472868227 0.1 0  7.074418604651166 0.1 0  7.08294573643394 0.1 0  7.091472868216885 0.1 0  7.111392405063206 0.1 0  7.122784810126584 0.1 0  7.134177215189814 0.1 0  7.145569620252996 0.1 0  7.156962025316374 0.1 0  7.168354430379628 0.1 0  7.179746835442786 0.1 0  7.191139240506164 0.1 0  7.202531645569443 0.1 0  7.213924050632575 0.1 0  7.225316455695954 0.1 0  7.236708860759257 0.1 0  7.248101265822365 0.1 0  7.259493670885744 0.1 0  7.270886075949071 0.1 0  7.282278481012169 0.1 0  7.293670886075534 0.1 0  7.305063291138885 0.1 0  7.316455696201983 0.1 0  7.327848101265324 0.1 0  7.339240506328699 0.1 0  7.350632911391798 0.1 0  7.362025316455115 0.1 0  7.373417721518494 0.1 0  7.384810126581612 0.1 0  7.396202531644905 0.1 0  7.407594936708154 0.1 0  7.418987341771317 0.1 0  7.430379746834695 0.1 0  7.441772151897969 0.1 0  7.453164556961106 0.1 0  7.464556962024485 0.1 0  7.475949367087783 0.1 0  7.487341772150897 0.1 0  7.498734177214275 0.1 0  7.510126582277597 0.1 0  7.521518987340695 0.1 0  7.532911392404065 0.1 0  7.544303797467411 0.1 0  7.55569620253051 0.1 0  7.567088607593855 0.1 0  7.578481012657234 0.1 0  7.589873417720614 0.1 0  7.601265822783993 0.1 0  7.612658227847371 0.1 0  7.62405063291075 0.1 0  7.635443037974129 0.1 0  7.646835443037508 0.1 0  7.658227848100887 0.1 0  7.669620253164266 0.1 0  7.681012658227645 0.1 0  7.692405063291024 0.1 0  7.703797468354402 0.1 0  7.715189873417781 0.1 0  7.72658227848116 0.1 0  7.73797468354454 0.1 0  7.749367088607919 0.1 0  7.760759493671297 0.1 0  7.772151898734676 0.1 0  7.783544303798018 0.1 0  7.794936708861115 0.1 0  7.806329113924466 0.1 0  7.817721518987832 0.1 0  7.82911392405093 0.1 0  7.840506329114256 0.1 0  7.851898734177635 0.1 0  7.863291139240744 0.1 0  7.874683544304045 0.1 0  7.886075949367425 0.1 0  7.897468354430558 0.1 0  7.908860759493836 0.1 0  7.920253164557215 0.1 0  7.931645569620372 0.1 0  7.943037974683626 0.1 0  7.954430379747005 0.1 0  7.965822784810186 0.1 0  7.977215189873416 0.1 0  7.988607594936794 0.1 0  8 0.1079999999999785 0  8 0.1159999999999675 0  8 0.1239999999999376 0  8 0.1319999999999082 0  8 0.1399999999998952 0  8 0.1479999999998634 0  8 0.155999999999838 0  8 0.1639999999998355 0  8 0.1719999999998709 0  8 0.1799999999998969 0  8 0.1879999999999114 0  8 0.1959999999999306 0  8 0.2039999999999588 0  8 0.2119999999999714 0  7.988607594936794 0.22 0  7.977215189873416 0.22 0  7.965822784810186 0.22 0  7.954430379747004 0.22 0  7.943037974683626 0.22 0  7.931645569620372 0.22 0  7.920253164557214 0.22 0  7.908860759493836 0.22 0  7.897468354430557 0.22 0  7.886075949367425 0.22 0  7.874683544304045 0.22 0  7.863291139240743 0.22 0  7.851898734177635 0.22 0  7.840506329114255 0.22 0  7.829113924050929 0.22 0  7.817721518987831 0.22 0  7.806329113924465 0.22 0  7.794936708861115 0.22 0  7.783544303798017 0.22 0  7.772151898734675 0.22 0  7.7607594936713 0.22 0  7.749367088608202 0.22 0  7.737974683544885 0.22 0  7.726582278481506 0.22 0  7.715189873418388 0.22 0  7.703797468355095 0.22 0  7.692405063291845 0.22 0  7.681012658228683 0.22 0  7.669620253165305 0.22 0  7.65822784810203 0.22 0  7.646835443038894 0.22 0  7.635443037975515 0.22 0  7.624050632912216 0.22 0  7.612658227849103 0.22 0  7.601265822785725 0.22 0  7.589873417722402 0.22 0  7.578481012659305 0.22 0  7.567088607595934 0.22 0  7.555696202532588 0.22 0  7.54430379746949 0.22 0  7.532911392406144 0.22 0  7.521518987342765 0.22 0  7.510126582279386 0.22 0  7.498734177216007 0.22 0  7.487341772152629 0.22 0  7.47594936708925 0.22 0  7.46455696202587 0.22 0  7.453164556962491 0.22 0  7.441772151899112 0.22 0  7.430379746835734 0.22 0  7.418987341772355 0.22 0  7.407594936708976 0.22 0  7.396202531645597 0.22 0  7.384810126582218 0.22 0  7.373417721518839 0.22 0  7.36202531645546 0.22 0  7.350632911392081 0.22 0  7.339240506328703 0.22 0  7.327848101265324 0.22 0  7.316455696201982 0.22 0  7.305063291138884 0.22 0  7.293670886075533 0.22 0  7.282278481012168 0.22 0  7.27088607594907 0.22 0  7.259493670885743 0.22 0  7.248101265822365 0.22 0  7.236708860759256 0.22 0  7.225316455695954 0.22 0  7.213924050632575 0.22 0  7.202531645569442 0.22 0  7.191139240506164 0.22 0  7.179746835442785 0.22 0  7.168354430379628 0.22 0  7.156962025316374 0.22 0  7.145569620252995 0.22 0  7.134177215189814 0.22 0  7.122784810126584 0.22 0  7.111392405063206 0.22 0  7.097435897435684 0.22 0  7.094871794871715 0.22 0  7.092307692307371 0.22 0  7.089743589743082 0.22 0  7.087179487179113 0.22 0  7.084615384614744 0.22 0  7.082051282050655 0.22 0  7.079487179486859 0.22 0  7.076923076922809 0.22 0  7.074358974358748 0.22 0  7.071794871794951 0.22 0  7.069230769230876 0.22 0  7.06666666666684 0.22 0  7.064102564103035 0.22 0  7.061538461538942 0.22 0  7.058974358974585 0.22 0  7.056410256410616 0.22 0  7.053846153846314 0.22 0  7.051282051281984 0.22 0  7.048717948718015 0.22 0  7.046153846153686 0.22 0  7.043589743589383 0.22 0  7.041025641025414 0.22 0  7.038461538461058 0.22 0  7.035897435896964 0.22 0  7.03333333333316 0.22 0  7.030769230769124 0.22 0  7.028205128205048 0.22 0  7.025641025641252 0.22 0  7.023076923077189 0.22 0  7.02051282051314 0.22 0  7.017948717949345 0.22 0  7.015384615385256 0.22 0  7.012820512820887 0.22 0  7.010256410256917 0.22 0  7.007692307692628 0.22 0  7.005128205128285 0.22 0  7.002564102564316 0.22 0  6.991735537190083 0.22 0  6.983471074380165 0.22 0  6.975206611570248 0.22 0  6.966942148760331 0.22 0  6.958677685950414 0.22 0  6.950413223140496 0.22 0  6.942148760330578 0.22 0  6.933884297520661 0.22 0  6.925619834710743 0.22 0  6.917355371900826 0.22 0  6.909090909090909 0.22 0  6.900826446280992 0.22 0  6.892561983471074 0.22 0  6.884297520661157 0.22 0  6.87603305785124 0.22 0  6.867768595041323 0.22 0  6.859504132231405 0.22 0  6.851239669421488 0.22 0  6.842975206611571 0.22 0  6.834710743801653 0.22 0  6.826446280991735 0.22 0  6.818181818181818 0.22 0  6.809917355371901 0.22 0  6.801652892561983 0.22 0  6.793388429752066 0.22 0  6.785123966942149 0.22 0  6.776859504132231 0.22 0  6.768595041322314 0.22 0  6.760330578512397 0.22 0  6.75206611570248 0.22 0  6.743801652892562 0.22 0  6.735537190082645 0.22 0  6.727272727272728 0.22 0  6.71900826446281 0.22 0  6.710743801652892 0.22 0  6.702479338842975 0.22 0  6.694214876033058 0.22 0  6.68595041322314 0.22 0  6.677685950413223 0.22 0  6.669421487603306 0.22 0  6.661157024793388 0.22 0  6.652892561983471 0.22 0  6.644628099173554 0.22 0  6.636363636363637 0.22 0  6.628099173553719 0.22 0  6.619834710743802 0.22 0  6.611570247933884 0.22 0  6.603305785123966 0.
[...]
<PointData  Scalars="pressure"> 
<DataArray  type="Float64"  Name="pressure"  format="ascii">1.9620000000429511e+04  3.0411020175013567e+04  3.9240020704380280e+04  3.9240020704380382e+04  3.0411014447921279e+04  2.9429971201513425e+04  1.9620000000400123e+04  1.9703651291113609e+04  1.9787302582878172e+04  1.9870953872945985e+04  1.9954605165806559e+04  2.0038256456164418e+04  2.0121907747758691e+04  2.0205559038896874e+04  2.0289210331056845e+04  2.0372861620122800e+04  2.0456512913928316e+04  2.0540164204039316e+04  2.0623815496539086e+04  2.0707466786281326e+04  2.0791118077555784e+04  2.0874769370308259e+04  2.0958420658849023e+04  2.1042071953332987e+04  2.1125723243477987e+04  2.1209374535036535e+04  2.1293025824860546e+04  2.1376677117539835e+04  2.1460328408240475e+04  2.1543979699687756e+04  2.1627630991228165e+04  2.1711282281848027e+04  2.1794933572044734e+04  2.1878584866485147e+04  2.1962236155982948e+04  2.2045887447156598e+04  2.2129538738101055e+04  2.2213190029431178e+04  2.2296841322508702e+04  2.2380492611712849e+04  2.2464143902938184e+04  2.2547795195869006e+04  2.2631446486363235e+04  2.2715097778332365e+04  2.2798749067612618e+04  2.2882400360161417e+04  2.2966051652560069e+04  2.3049702942104577e+04  2.3133354234578255e+04  2.3217005524862227e+04  2.3300656816000504e+04  2.3384308108789166e+04  2.3467959398786345e+04  2.3551610689305664e+04  2.3635261982955595e+04  2.3718913272875125e+04  2.3802564564322958e+04  2.3886215855694714e+04  2.3969867147578265e+04  2.4053518437810631e+04  2.4137169728398283e+04  2.4220821021366592e+04  2.4304472313299513e+04  2.4388123602615335e+04  2.4471774894927319e+04  2.4555426185774901e+04  2.4639077478787993e+04  2.4722728769012152e+04  2.4806380061053562e+04  2.4890031351744576e+04  2.4973682642696283e+04  2.5057333935704424e+04  2.5140985225792439e+04  2.5224636518468364e+04  2.5308287809241272e+04  2.5391939101340206e+04  2.5475590393330964e+04  2.5559241685762339e+04  2.5642892976064843e+04  2.5726544270236565e+04  2.5810195560607601e+04  2.5893846853087438e+04  2.5977498147136062e+04  2.6061149438021825e+04  2.6144800732326697e+04  2.6228452025304225e+04  2.6312103318951125e+04  2.6395754612563593e+04  2.6479405908006418e+04  2.6563057201954754e+04  2.6646708498745647e+04  2.6730359795055527e+04  2.6814011091004508e+04  2.6897662390746471e+04  2.6981313690451039e+04  2.7064964991628385e+04  2.7148616293208634e+04  2.7232267597761707e+04  2.7315918905416685e+04  2.7399570214947340e+04  2.7483221525955290e+04  2.7566872841803652e+04  2.7650524160850149e+04  2.7734175486312080e+04  2.7817826815521294e+04  2.7901478149399307e+04  2.7985129494872243e+04  2.8068780842261462e+04  2.8152432202549295e+04  2.8236083568765978e+04  2.8319734950291451e+04  2.8403386339947236e+04  2.8487037744105801e+04  2.8570689162259110e+04  2.8654340595667538e+04  2.8737992041108446e+04  2.8821643503221971e+04  2.8905294977082660e+04  2.8988946461981988e+04  2.9072597958079645e+04  2.9156249459349121e+04  2.9239900962728814e+04  2.9323552464629585e+04  2.9407203956608239e+04  2.9490855438050537e+04  2.9574506899061274e+04  2.9658158338892412e+04  2.9741809753960446e+04  2.9825461134027031e+04  2.9909112489443884e+04  2.9992763807387037e+04  3.0076415106821249e+04  3.0160066383424757e+04  3.0243717650267932e+04  3.0327368913027211e+04  3.0522779800796139e+04  3.0634539421078054e+04  3.0746299024779106e+04  3.0858058606441729e+04  3.0969818158950893e+04  3.1081577687838057e+04  3.1193337198489455e+04  3.1305096696148998e+04  3.1416856186287856e+04  3.1528615675424538e+04  3.1640375162047229e+04  3.1752134649113581e+04  3.1863894137812804e+04  3.1975653627194537e+04  3.2087413117690430e+04  3.2199172608889188e+04  3.2310932100823087e+04  3.2422691593204690e+04  3.2534451085985322e+04  3.2646210579038627e+04  3.2757970072279240e+04  3.2869729565660855e+04  3.2981489059132386e+04  3.3093248552678335e+04  3.3205008046262112e+04  3.3316767539881068e+04  3.3428527033519691e+04  3.3540286527170378e+04  3.3652046020830618e+04  3.3763805514496045e+04  3.3875565008162550e+04  3.3987324501833667e+04  3.4099083995505047e+04  3.4210843489174833e+04  3.4322602982847377e+04  3.4434362476519622e+04  3.4546121970189357e+04  3.4657881463861842e+04  3.4769640957534044e+04  3.4881400451203372e+04  3.4993159944875129e+04  3.5104919438547178e+04  3.5216678932219169e+04  3.5328438425891021e+04  3.5440197919563027e+04  3.5551957413234704e+04  3.5663716906906600e+04  3.5775476400578293e+04  3.5887235894250087e+04  3.5998995387921808e+04  3.6110754881593777e+04  3.6222514375265302e+04  3.6334273868937096e+04  3.6446033362608738e+04  3.6557792856280481e+04  3.6669552349952159e+04  3.6781311843624047e+04  3.6893071337295551e+04  3.7004830830967199e+04  3.7116590324638819e+04  3.7228349818307724e+04  3.7340109311979446e+04  3.7451868805650840e+04  3.7563628299319746e+04  3.7675387792991016e+04  3.7787147286662774e+04  3.7898906780331999e+04  3.8010666274003022e+04  3.8122425767674773e+04  3.8234185261344159e+04  3.8345944755014840e+04  3.8457704248686729e+04  3.8569463742356740e+04  3.8681223236027203e+04  3.8792982729698502e+04  3.8904742223368121e+04  3.9016501717038438e+04  3.9128261210710400e+04  3.9240020704380295e+04  3.9240020704380026e+04  3.9240020704380033e+04  3.9240020704380207e+04  3.9240020704380026e+04  3.9240020704380222e+04  3.9240020704380346e+04  3.9240020704380346e+04  3.9240020704380280e+04  3.9240020704380040e+04  3.9240020704380200e+04  3.9240020704380069e+04  3.9240020704380084e+04  3.9240020704380513e+04  3.9128261210710254e+04  3.9016501717038533e+04  3.8904742223368128e+04  3.8792982729698429e+04  3.8681223236027094e+04  3.8569463742356318e+04  3.8457704248686416e+04  3.8345944755014534e+04  3.8234185261343839e+04  3.8122425767674562e+04  3.8010666274002826e+04  3.7898906780331803e+04  3.7787147286662737e+04  3.7675387792991089e+04  3.7563628299319986e+04  3.7451868805650854e+04  3.7340109311979300e+04  3.7228349818307775e+04  3.7116590324638761e+04  3.7004830830967570e+04  3.6893071337295813e+04  3.6781311843627060e+04  3.6669552349955738e+04  3.6557792856283966e+04  3.6446033362614806e+04  3.6334273868943761e+04  3.6222514375273451e+04  3.6110754881604102e+04  3.5998995387932264e+04  3.5887235894261510e+04  3.5775476400592226e+04  3.5663716906920534e+04  3.5551957413249846e+04  3.5440197919580605e+04  3.5328438425908986e+04  3.5216678932237977e+04  3.5104919438569217e+04  3.4993159944897779e+04  3.4881400451226946e+04  3.4769640957558237e+04  3.4657881463887381e+04  3.4546121970216358e+04  3.4434362476545408e+04  3.4322602982874516e+04  3.4210843489203849e+04  3.4099083995532688e+04  3.3987324501861280e+04  3.3875565008188845e+04  3.3763805514514257e+04  3.3652046020837006e+04  3.3540286527154261e+04  3.3428527033463055e+04  3.3316767539759596e+04  3.3205008046036055e+04  3.3093248552279234e+04  3.2981489058481915e+04  3.2869729564612302e+04  3.2757970070653424e+04  3.2646210576549631e+04  3.2534451082262553e+04  3.2422691587715923e+04  3.2310932092774219e+04  3.2199172597369838e+04  3.2087413101200753e+04  3.1975653604272644e+04  3.1863894106135249e+04  3.1752134606857479e+04  3.1640375104890238e+04  3.1528615601700425e+04  3.1416856096897089e+04  3.1305096588433855e+04  3.1193337080270823e+04  3.1081577582106467e+04  3.0969818096689858e+04  3.0858058662203624e+04  3.0746299526768296e+04  3.0634539727205472e+04  3.0522785853388541e+04  3.0385852041225393e+04  3.0360704602214886e+04  3.0335551269443120e+04  3.0310398012897847e+04  3.0285244695627880e+04  3.0260091026760503e+04  3.0234937606597123e+04  3.0209783886103294e+04  3.0184630187740353e+04  3.0159476818870342e+04  3.0134322988214775e+04  3.0109169157445140e+04  3.0084015700773791e+04  3.0058862102704428e+04  3.0033708108019073e+04  3.0008554277704297e+04  2.9983400600161262e+04  2.9958246544181078e+04  2.9933092781015799e+04  2.9907938579198009e+04  2.9882784726065678e+04  2.9857630530049555e+04  2.9832476261024185e+04  2.9807321994493304e+04  2.9782167709816571e+04  2.9757013037427936e+04  2.9731858288586420e+04  2.9706703864605388e+04  2.9681548702543842e+04  2.9656393743510143e+04  2.9631238217228707e+04  2.9606082773653397e+04  2.9580926763166262e+04  2.9555770430072076e+04  2.9530613163204755e+04  2.9505455369555104e+04  2.9480296244087371e+04  2.9455129721800273e+04  2.9348928433176934e+04  2.9267855641171664e+04  2.9186784235470979e+04  2.9105711554820300e+04  2.9024638246434351e+04  2.8943564597874883e+04  2.8862490748245898e+04  2.8781416760880642e+04  2.8700342652598105e+04  2.8619268468093440e+04  2.8538194231492056e+04  2.8457119929923887e+04  2.8376045595259689e+04  2.8294971239609251e+04  2.8213896850366524e+04  2.8132822445731515e+04  2.8051748023644388e+04  2.7970673589904771e+04  2.7889599141556286e+04  2.7808524687593221e+04  2.7727450224460976e+04  2.7646375756912781e+04  2.7565301283341578e+04  2.7484226803073168e+04  2.7403152320327787e+04  2.7322077834035888e+04  2.7241003346692738e+04  2.7159928856779057e+04  2.7078854360663310e+04  2.6997779868134690e+04  2.6916705371837608e+04  2.6835630873836286e+04  2.6754556375698572e+04  2.6673481877115857e+04  2.6592407376140727e+04  2.6511332875796776e+04  2.6430258373274253e+04  2.6349183872831698e+04  2.6268109371825456e+04  2.6187034866329261e+04  2.6105960365335792e+04  2.6024885861112394e+04  2.5943811360178599e+04  2.5862736853657094e+04  2.5781662350551345e+04  2.5700587848749550e+04  2.5619513342309292e+04  2.5538438840324674e+04  2.5457364335021055e+04  2.5376289829749399e+04  2.5295215327439761e+04  2.5214140821744426e+04  2.5133066318189678e+04  2.5051991812517976e+04  2.4970917309969504e+04  2.4889842805040615e+04  2.4808768298672181e+04  2.4727693795987267e+04  2.4646619290031053e+04  2.4565544786115846e+04  2.4484470282016562e+04  2.4403395775809291e+04  2.4322321273208880e+04  2.4241246768225003e+04  2.4160172261807013e+04  2.4079097759006498e+04  2.3998023252795127e+04  2.3916948749814761e+04  2.3835874243181363e+04  2.3754799740367649e+04  2.3673725234542930e+04  2.3592650730685775e+04  2.3511576225580822e+04  2.3430501719795899e+04  2.3349427217046006e+04  2.3268352711070460e+04  2.3187278206570838e+04  2.3106203702854953e+04  2.3025129196673672e+04  2.2944054693900282e+04  2.2862980187759891e+04  2.2781905682142442e+04  2.2700831179564473e+04  2.2619756673522072e+04  2.2538682169033469e+04  2.2457607665302712e+04  2.2376533159177325e+04  2.2295458656360435e+04  2.2214384149585192e+04  2.2133309645123267e+04  2.2052235141612120e+04  2.1971160636415898e+04  2.1890086132635079e+04  2.1809011625774707e+04  2.1727937122968007e+04  2.1646862618257612e+04  2.1565788110553865e+04  2.1484713609727220e+04  2.1403639103242698e+04  2.1322564598978806e+04  2.1241490093321587e+04  2.1160415590577824e+04  2.1079341084577594e+04  2.0998266579251303e+04  2.0917192077024436e+04  2.0836117570677598e+04  2.0755043064547088e+04  2.0673968562388814e+04  2.0592894055966553e+04  2.0511819551003227e+04  2.0430745047868597e+04  2.0349670542743926e+04  2.0268596036478804e+04  2.0187521533816409e+04  2.0106447026700382e+04  2.0025372524258946e+04  1.9944298019034850e+04  1.9863223513914621e+04  1.9782149009482946e+04  1.9701074504239677e+04  1.9620000000024087e+04  1.9619999999889878e+04  1.9620000000026754e+04  1.9620000000000855e+04  1.9619999999999647e+04  1.9620000000045802e+04  1.9619999999957919e+04  1.9620000000019507e+04  1.9619999999970943e+04  1.9620000000015407e+04  1.9619999999969194e+04  1.9620000000002976e+04  1.9620000000005850e+04  1.9619999999989959e+04  1.9619999999997624e+04  1.9619999999997977e+04  1.9619999999992760e+04  1.9619999999994143e+04  1.9619999999994438e+04  1.9619999999994092e+04  1.9619999999992306e+04  1.9619999999995882e+04  1.9619999999987402e+04  1.9619999999999025e+04  1.9619999999985215e+04  1.9620000000006057e+04  1.9619999999979605e+04  1.9620000000008902e+04  1.9619999999975174e+04  1.9620000000016826e+04  1.9619999999975455e+04  1.9620000000017157e+04  1.9619999999958167e+04  1.9620000000021613e+04  1.9619999999961707e+04  1.9620000000074942e+04  1.9619999999898158e+04  1.9620000000158565e+04  2.9623467417274103e+04  3.0197736226376790e+04  2.0200438398535676e+04  2.9899028138209578e+04  3.0390413354057313e+04  2.9619872868201903e+04  3.0129704713441475e+04  2.9029365199384367e+04  1.9963563113349064e+04  1.9963563113702261e+04  2.0801545740211921e+04  2.2263410658134257e+04  2.7533254298416963e+04  2.4840810743412392e+04  2.5499208734102594e+04  2.6871772779682484e+04  2.1603522513420266e+04  2.2904822631681101e+04  2.8179569804831597e+04  2.4199406139893981e+04  2.6153091614826688e+04  2.3547741454248386e+04  2.9445687382245753e+04  3.8653780524823691e+04  2.9788098169721088e+04  1.9882001000179487e+04  2.9910659567733401e+04  3.0926088118571901e+04  2.8603310593628426e+04  2.9945670634480193e+04  2.1200952841823448e+04  3.1513987311317102e+04  3.7504979285586945e+04  3.2146000192954991e+04  3.4829977838328865e+04  3.2797894792665997e+04  3.6843157916029224e+04  3.4155505595389921e+04  3.5480122640841073e+04  3.3481472324855757e+04  3.6167176481477174e+04  3.8090863262852297e+04  3.0271474581847520e+04  2.9324053279497784e+04  2.6485790289607074e+04  2.9667568510796988e+04  2.9325070528466196e+04  2.5175519227770434e+04  2.7201049121709260e+04  2.1922624959322970e+04  2.2581135221012337e+04  2.7846149454430386e+04  2.4523091494842782e+04  2.5821663627361126e+04  2.3229734737919836e+04  2.3874492125888417e+04  3.0118149821973453e+04  3.0494160987298230e+04  2.6555042760133118e+04  2.5176661906165165e+04  2.7197493318226145e+04  2.1928255110159615e+04  2.2573465454777172e+04  2.7849236144363989e+04  2.4530773477776336e+04  2.5814466243655625e+04  2.3221809038052492e+04  2.3868249788138146e+04  2.9701556680240381e+04  2.1113768595541798e+04  1.9812665699821144e+04  2.8705980693618028e+04  1.9802980108127082e+04  2.0500935882883306e+04  2.0489041344224206e+04  3.0071440574925728e+04  1.9792145687774624e+04  1.9787672458958408e+04  2.9737999914040276e+04  2.8388636369931115e+04  3.0407181460416956e+04  3.0070911745176101e+04  2.9089861403657178e+04  2.1423067188147557e+04  2.9566830108758197e+04  2.8324576038186180e+04  3.8900574922545951e+04  3.8905176522709771e+04  2.1479207036949610e+04  2.0919584680716049e+04  2.9033461391017365e+04  2.6795093625856509e+04  2.6227572119133889e+04  2.6254209641814108e+04  2.0224371604439479e+04  2.9845907594754812e+04  2.2252197184593537e+04  2.7522039478816951e+04  2.4852031626847889e+04  2.5497901587300054e+04  2.2903517440374275e+04  2.4200709515336865e+04  2.3552113478114796e+04  2.0229352455539996e+04  2.3589827654482160e+04  2.0832876254103288e+04  2.6809648722542890e+04  2.4154231911653871e+04  2.2951828178640742e+04  2.5546265451241212e+04  2.4795134958132014e+04  2.7578959163046064e+04  2.2309116563354637e+04  3.0172056046616624e+04  1.9746421084724479e+04  2.9513730699904885e+04  3.5160799185393764e+04  3.5159300897632318e+04  3.2474518561428955e+04  3.2484727520447199e+04  3.7179115620021468e+04  3.7185439739005502e+04  3.4490242223359164e+04  3.3149128299440235e+04  3.6501913109448935e+04  3.3819685261337851e+04  3.5831356147425620e+04  3.4494294997955461e+04  3.6501913109449604e+04  3.3821887062184098e+04  3.3151534233645165e+04  3.5830358111186470e+04  2.8814200410933478e+04  2.8120263065512390e+04  3.1839626948495777e+04  3.1819972271445800e+04  3.0435184399443031e+04  3.0701151699223359e+04  3.1218338131787976e+04  3.1220468686336560e+04  3.7796886045675070e+04  3.8358783158880986e+04  2.9743836877696252e+04  3.8365572650173403e+04  2.9917693381005476e+04  3.7774395549885689e+04  2.1688780785140756e+04  2.9743480927999364e+04  2.8069029999303148e+04  2.9853861397288787e+04  2.9526752395075160e+04  1.9737022172919977e+04  1.9744155111356355e+04  2.1723262411058124e+04  1.9730159794276267e+04  3.0787620200665438e+04  2.9995214374952138e+04  2.1373843487039794e+04  2.9999875708900683e+04  1.9745750342309846e+04  2.8410945917100722e+04  2.6016097590283673e+04  3.9000807012672965e+04  2.6386135935148697e+04  3.0229751175495356e+04  3.0077453030733643e+04  3.0250865869244182e+04  2.0705196651325623e+04  2.9449721737282394e+04  3.0321323404843541e+04  2.9744912108330358e+04  2.7012797908689248e+04  2.6009870278701939e+04  2.8793924343062121e+04  2.8551219936324203e+04  2.9888960218156190e+04  2.1026499418505573e+04  2.0565079862319944e+04  2.9460671705374669e+04  2.9288769586091559e+04  2.9923498448754399e+04  2.9469123115140945e+04  1.9720072745959264e+04  2.5075622605553617e+04  2.7304644004218135e+04  2.2034802298587856e+04  2.2485903588779780e+04  2.7752447098915753e+04  2.4618341766356316e+04  2.5725323371842711e+04  2.3134218990983765e+04  2.3970016506841734e+04  2.6648990319991561e+04  2.1275540482732493e+04  3.0587134577365025e+04  3.0243981327370821e+04  2.7039988162156442e+04  2.2085012780288365e+04  2.7355258588649238e+04  2.5020108741673524e+04  2.5331419262165717e+04  2.2736943286762533e+04  2.4367181240337213e+04  3.0680103705478010e+04  1.9712574057617643e+04  2.3378469902683737e+04  1.9707480911254388e+04  3.4827022180960324e+04  3.2163529216481715e+04  3.7507748552486235e+04  3.2163974475475403e+04  3.4824874962521724e+04  3.6827809181150529e+04  3.2795049876321820e+04  3.4154166579583922e+04  3.5477277723810716e+04  3.3465492763259077e+04  3.6165404505037717e+04  3.5504036830678902e+04  3.4138119578239151e+04  3.2795722467847358e+04  3.6836418575042655e+04  3.6156075363054384e+04  3.3484984052847023e+04  3.7455006045649723e+04  2.0049239998502380e+04  2.9704974912741134e+04  3.1505996687170809e+04  3.1500670813193894e+04  3.0951509660646982e+04  3.0324045491467987e+04  2.9219856219954807e+04  2.9994799706752845e+04  3.8619206151681727e+04  2.8561089235379026e+04  2.6422567271377698e+04  2.9583751571054101e+04  2.9643815646055136e+04  2.5038557000604462e+04  2.7332393464734167e+04  2.2056744195309180e+04  2.2451471499692030e+04  2.7721314440355538e+04  2.4652753350593823e+04  2.5308304111314526e+04  2.2713919028077955e+04  2.4390308130965819e+04  2.5696496226009353e+04  2.3100113571085647e+04  2.4004110982271126e+04  2.3362514367239542e+04  2.3760557847316901e+04  3.8091209331249040e+04  1.9985152771940440e+04  2.3758477157027985e+04  2.3341531875960012e+04  2.5925448022610610e+04  2.4411181882367120e+04  2.7958930042848671e+04  2.2693053289440730e+04  2.1826403423829448e+04  2.7095656625317362e+04  2.5278410780163373e+04  3.8066810590277666e+04  2.1243063079838928e+04  3.8635405517213672e+04  2.9748991631376804e+04  2.6439826335648475e+04  2.8847402453702718e+04  2.0019956642324476e+04  2.9218716306915750e+04  2.0056468975655389e+04  2.9490510108416482e+04  2.0635388594086045e+04  2.5377307076992558e+04  2.2781613295371302e+04  2.3433050846768940e+04  2.4322628014008751e+04  2.6997443277851224e+04  2.9616177287004979e+04  2.3776975429853945e+04  2.6639555083475436e+04  2.1016735354189947e+04  2.3127734183430039e+04  2.5712755824279051e+04  2.2486345952782380e+04  2.7758487900313634e+04  2.4617720280686666e+04  1.9711919179667406e+04  2.6617208033284674e+04  2.0410955620857774e+04  2.2134451968169284e+04  2.7408053512332095e+04  2.4965987280180707e+04  2.3972106925811331e+04  2.0424998731702206e+04  2.1083364261878865e+04  2.6018332170610331e+04  2.8591742118932249e+04  1.9705273723106955e+04  2.8907903454419407e+04  2.8946967474592468e+04  2.0336893178129241e+04  2.0688540712276172e+04  2.1870878804081076e+04  2.0334201837558085e+04  2.0698287940128881e+04  2.6962977585026503e+04  2.6061922253507033e+04  3.0012943186038774e+04  2.7942314727474728e+04  2.9818817226869938e+04  2.4972572855683764e+04  2.7384791049600590e+04  2.2115191918700020e+04  2.2379868906043190e+04  2.7652038581427336e+04  2.4724355135983162e+04  2.5637126101668408e+04  2.3026759603486829e+04  2.4077466916750196e+04  3.0097221499580202e+04  2.9139601682404213e+04  2.8250049907470799e+04  2.1733798630612950e+04  1.9697592929458686e+04  2.7906121616782828e+04  1.9842423109175201e+04  2.996233258