<?xml version="1.0"?>
<VTKFile type="UnstructuredGrid"  version="0.1"  >
<UnstructuredGrid>
<Piece  NumberOfPoints="4408" NumberOfCells="8313">
<Points>
<DataArray  type="Float64"  NumberOfComponents="3"  format="ascii">6 0.1 0  7.1 0.1 0  8 0.1 0  8 0.22 0  7.1 0.22 0  7 0.22 0  6 0.22 0  6.008527131783115 0.1 0  6.01705426356606 0.1 0  6.025581395348834 0.1 0  6.034108527131772 0.1 0  6.042635658914882 0.1 0  6.051162790697997 0.1 0  6.059689922480948 0.1 0  6.068217054263728 0.1 0  6.07674418604666 0.1 0  6.085271317829764 0.1 0  6.093798449612879 0.1 0  6.102325581395837 0.1 0  6.110852713178624 0.1 0  6.11937984496155 0.1 0  6.127906976744646 0.1 0  6.136434108527761 0.1 0  6.144961240310725 0.1 0  6.15348837209352 0.1 0  6.162015503876439 0.1 0  6.170542635659528 0.1 0  6.179069767442498 0.1 0  6.187596899225297 0.1 0  6.196124031008068 0.1 0  6.20465116279098 0.1 0  6.213178294574063 0.1 0  6.221705426357039 0.1 0  6.230232558139845 0.1 0  6.238759689922617 0.1 0  6.247286821705522 0.1 0  6.255813953488598 0.1 0  6.264341085271582 0.1 0  6.272868217054394 0.1 0  6.281395348837165 0.1 0  6.289922480620064 0.1 0  6.298449612403133 0.1 0  6.306976744186123 0.1 0  6.315503875968942 0.1 0  6.324031007751714 0.1 0  6.332558139534606 0.1 0  6.341085271317668 0.1 0  6.349612403100665 0.1 0  6.358139534883491 0.1 0  6.366666666666262 0.1 0  6.375193798449147 0.1 0  6.383720930232204 0.1 0  6.392248062015207 0.1 0  6.400775193798039 0.1 0  6.409302325580811 0.1 0  6.417829457363689 0.1 0  6.426356589146739 0.1 0  6.434883720929749 0.1 0  6.443410852712588 0.1 0  6.451937984495359 0.1 0  6.460465116278231 0.1 0  6.468992248061274 0.1 0  6.47751937984429 0.1 0  6.486046511627137 0.1 0  6.494573643409908 0.1 0  6.503100775192773 0.1 0  6.511627906975716 0.1 0  6.520155038758567 0.1 0  6.528682170541338 0.1 0  6.53720930232411 0.1 0  6.545736434106968 0.1 0  6.554263565889997 0.1 0  6.562790697673027 0.1 0  6.571317829455887 0.1 0  6.57984496123874 0.1 0  6.588372093021763 0.1 0  6.596899224804878 0.1 0  6.605426356587916 0.1 0  6.613953488370782 0.1 0  6.622480620153628 0.1 0  6.631007751936646 0.1 0  6.639534883719688 0.1 0  6.64806201550256 0.1 0  6.656589147285331 0.1 0  6.66511627906817 0.1 0  6.673643410851181 0.1 0  6.682170542634229 0.1 0  6.690697674417108 0.1 0  6.699224806199942 0.1 0  6.707751937982947 0.1 0  6.716279069766062 0.1 0  6.724806201549118 0.1 0  6.733333333332004 0.1 0  6.741860465114831 0.1 0  6.750387596897829 0.1 0  6.758914728680944 0.1 0  6.767441860464007 0.1 0  6.775968992246899 0.1 0  6.78449612402972 0.1 0  6.793023255812711 0.1 0  6.801550387595826 0.1 0  6.810077519378895 0.1 0  6.818604651161794 0.1 0  6.827131782944608 0.1 0  6.835658914727593 0.1 0  6.844186046510708 0.1 0  6.852713178293785 0.1 0  6.86124031007669 0.1 0  6.869767441859497 0.1 0  6.878294573642475 0.1 0  6.88682170542559 0.1 0  6.895348837208672 0.1 0  6.903875968991585 0.1 0  6.912403100774386 0.1 0  6.920930232557357 0.1 0  6.929457364340472 0.1 0  6.937984496123562 0.1 0  6.946511627906481 0.1 0  6.955038759689274 0.1 0  6.963565891472238 0.1 0  6.972093023255354 0.1 0  6.980620155038451 0.1 0  6.989147286821376 0.1 0  6.997674418604163 0.1 0  7.006201550387121 0.1 0  7.014728682170236 0.1 0  7.023255813953339 0.1 0  7.031782945736271 0.1 0  7.040310077519051 0.1 0  7.048837209302002 0.1 0  7.057364341085117 0.1 0  7.065891472868227 0.1 0  7.074418604651166 0.1 0  7.08294573643394 0.1 0  7.091472868216885 0.1 0  7.111392405063206 0.1 0  7.122784810126584 0.1 0  7.134177215189814 0.1 0  7.145569620252996 0.1 0  7.156962025316374 0.1 0  7.168354430379628 0.1 0  7.179746835442786 0.1 0  7.191139240506164 0.1 0  7.202531645569443 0.1 0  7.213924050632575 0.1 0  7.225316455695954 0.1 0  7.236708860759257 0.1 0  7.248101265822365 0.1 0  7.259493670885744 0.1 0  7.270886075949071 0.1 0  7.282278481012169 0.1 0  7.293670886075534 0.1 0  7.305063291138885 0.1 0  7.316455696201983 0.1 0  7.327848101265324 0.1 0  7.339240506328699 0.1 0  7.350632911391798 0.1 0  7.362025316455115 0.1 0  7.373417721518494 0.1 0  7.384810126581612 0.1 0  7.396202531644905 0.1 0  7.407594936708154 0.1 0  7.418987341771317 0.1 0  7.430379746834695 0.1 0  7.441772151897969 0.1 0  7.453164556961106 0.1 0  7.464556962024485 0.1 0  7.475949367087783 0.1 0  7.487341772150897 0.1 0  7.498734177214275 0.1 0  7.510126582277597 0.1 0  7.521518987340695 0.1 0  7.532911392404065 0.1 0  7.544303797467411 0.1 0  7.55569620253051 0.1 0  7.567088607593855 0.1 0  7.578481012657234 0.1 0  7.589873417720614 0.1 0  7.601265822783993 0.1 0  7.612658227847371 0.1 0  7.62405063291075 0.1 0  7.635443037974129 0.1 0  7.646835443037508 0.1 0  7.658227848100887 0.1 0  7.669620253164266 0.1 0  7.681012658227645 0.1 0  7.692405063291024 0.1 0  7.703797468354402 0.1 0  7.715189873417781 0.1 0  7.72658227848116 0.1 0  7.73797468354454 0.1 0  7.749367088607919 0.1 0  7.760759493671297 0.1 0  7.772151898734676 0.1 0  7.783544303798018 0.1 0  7.794936708861115 0.1 0  7.806329113924466 0.1 0  7.817721518987832 0.1 0  7.82911392405093 0.1 0  7.840506329114256 0.1 0  7.851898734177635 0.1 0  7.863291139240744 0.1 0  7.874683544304045 0.1 0  7.886075949367425 0.1 0  7.897468354430558 0.1 0  7.908860759493836 0.1 0  7.920253164557215 0.1 0  7.931645569620372 0.1 0  7.943037974683626 0.1 0  7.954430379747005 0.1 0  7.965822784810186 0.1 0  7.977215189873416 0.1 0  7.988607594936794 0.1 0  8 0.1079999999999785 0  8 0.1159999999999675 0  8 0.1239999999999376 0  8 0.1319999999999082 0  8 0.1399999999998952 0  8 0.1479999999998634 0  8 0.155999999999838 0  8 0.1639999999998355 0  8 0.1719999999998709 0  8 0.1799999999998969 0  8 0.1879999999999114 0  8 0.1959999999999306 0  8 0.2039999999999588 0  8 0.2119999999999714 0  7.988607594936794 0.22 0  7.977215189873416 0.22 0  7.965822784810186 0.22 0  7.954430379747004 0.22 0  7.943037974683626 0.22 0  7.931645569620372 0.22 0  7.920253164557214 0.22 0  7.908860759493836 0.22 0  7.897468354430557 0.22 0  7.886075949367425 0.22 0  7.874683544304045 0.22 0  7.863291139240743 0.22 0  7.851898734177635 0.22 0  7.840506329114255 0.22 0  7.829113924050929 0.22 0  7.817721518987831 0.22 0  7.806329113924465 0.22 0  7.794936708861115 0.22 0  7.783544303798017 0.22 0  7.772151898734675 0.22 0  7.7607594936713 0.22 0  7.749367088608202 0.22 0  7.737974683544885 0.22 0  7.726582278481506 0.22 0  7.715189873418388 0.22 0  7.703797468355095 0.22 0  7.692405063291845 0.22 0  7.681012658228683 0.22 0  7.669620253165305 0.22 0  7.65822784810203 0.22 0  7.646835443038894 0.22 0  7.635443037975515 0.22 0  7.624050632912216 0.22 0  7.612658227849103 0.22 0  7.601265822785725 0.22 0  7.589873417722402 0.22 0  7.578481012659305 0.22 0  7.567088607595934 0.22 0  7.555696202532588 0.22 0  7.54430379746949 0.22 0  7.532911392406144 0.22 0  7.521518987342765 0.22 0  7.510126582279386 0.22 0  7.498734177216007 0.22 0  7.487341772152629 0.22 0  7.47594936708925 0.22 0  7.46455696202587 0.22 0  7.453164556962491 0.22 0  7.441772151899112 0.22 0  7.430379746835734 0.22 0  7.418987341772355 0.22 0  7.407594936708976 0.22 0  7.396202531645597 0.22 0  7.384810126582218 0.22 0  7.373417721518839 0.22 0  7.36202531645546 0.22 0  7.350632911392081 0.22 0  7.339240506328703 0.22 0  7.327848101265324 0.22 0  7.316455696201982 0.22 0  7.305063291138884 0.22 0  7.293670886075533 0.22 0  7.282278481012168 0.22 0  7.27088607594907 0.22 0  7.259493670885743 0.22 0  7.248101265822365 0.22 0  7.236708860759256 0.22 0  7.225316455695954 0.22 0  7.213924050632575 0.22 0  7.202531645569442 0.22 0  7.191139240506164 0.22 0  7.179746835442785 0.22 0  7.168354430379628 0.22 0  7.156962025316374 0.22 0  7.145569620252995 0.22 0  7.134177215189814 0.22 0  7.122784810126584 0.22 0  7.111392405063206 0.22 0  7.097435897435684 0.22 0  7.094871794871715 0.22 0  7.092307692307371 0.22 0  7.089743589743082 0.22 0  7.087179487179113 0.22 0  7.084615384614744 0.22 0  7.082051282050655 0.22 0  7.079487179486859 0.22 0  7.076923076922809 0.22 0  7.074358974358748 0.22 0  7.071794871794951 0.22 0  7.069230769230876 0.22 0  7.06666666666684 0.22 0  7.064102564103035 0.22 0  7.061538461538942 0.22 0  7.058974358974585 0.22 0  7.056410256410616 0.22 0  7.053846153846314 0.22 0  7.051282051281984 0.22 0  7.048717948718015 0.22 0  7.046153846153686 0.22 0  7.043589743589383 0.22 0  7.041025641025414 0.22 0  7.038461538461058 0.22 0  7.035897435896964 0.22 0  7.03333333333316 0.22 0  7.030769230769124 0.22 0  7.028205128205048 0.22 0  7.025641025641252 0.22 0  7.023076923077189 0.22 0  7.02051282051314 0.22 0  7.017948717949345 0.22 0  7.015384615385256 0.22 0  7.012820512820887 0.22 0  7.010256410256917 0.22 0  7.007692307692628 0.22 0  7.005128205128285 0.22 0  7.002564102564316 0.22 0  6.991735537190083 0.22 0  6.983471074380165 0.22 0  6.975206611570248 0.22 0  6.966942148760331 0.22 0  6.958677685950414 0.22 0  6.950413223140496 0.22 0  6.942148760330578 0.22 0  6.933884297520661 0.22 0  6.925619834710743 0.22 0  6.917355371900826 0.22 0  6.909090909090909 0.22 0  6.900826446280992 0.22 0  6.892561983471074 0.22 0  6.884297520661157 0.22 0  6.87603305785124 0.22 0  6.867768595041323 0.22 0  6.859504132231405 0.22 0  6.851239669421488 0.22 0  6.842975206611571 0.22 0  6.834710743801653 0.22 0  6.826446280991735 0.22 0  6.818181818181818 0.22 0  6.809917355371901 0.22 0  6.801652892561983 0.22 0  6.793388429752066 0.22 0  6.785123966942149 0.22 0  6.776859504132231 0.22 0  6.768595041322314 0.22 0  6.760330578512397 0.22 0  6.75206611570248 0.22 0  6.743801652892562 0.22 0  6.735537190082645 0.22 0  6.727272727272728 0.22 0  6.71900826446281 0.22 0  6.710743801652892 0.22 0  6.702479338842975 0.22 0  6.694214876033058 0.22 0  6.68595041322314 0.22 0  6.677685950413223 0.22 0  6.669421487603306 0.22 0  6.661157024793388 0.22 0  6.652892561983471 0.22 0  6.644628099173554 0.22 0  6.636363636363637 0.22 0  6.628099173553719 0.22 0  6.619834710743802 0.22 0  6.611570247933884 0.22 0  6.603305785123966 0.
[...]
<PointData  Scalars="pressure"> 
<DataArray  type="Float64"  Name="pressure"  format="ascii">1.9619999999999862e+04  3.0411006142899761e+04  3.9240006616926956e+04  3.9240006616927058e+04  3.0411061967125232e+04  2.9429922960853743e+04  1.9619999999999825e+04  1.9703651162792281e+04  1.9787302325582892e+04  1.9870953488371855e+04  1.9954604651162383e+04  2.0038255813954715e+04  2.0121906976747097e+04  2.0205558139537909e+04  2.0289209302326959e+04  2.0372860465117454e+04  2.0456511627909749e+04  2.0540162790702048e+04  2.0623813953492900e+04  2.0707465116281994e+04  2.0791116279072554e+04  2.0874767441864689e+04  2.0958418604657050e+04  2.1042069767447963e+04  2.1125720930237043e+04  2.1209372093027407e+04  2.1293023255819582e+04  2.1376674418610528e+04  2.1460325581399808e+04  2.1543976744188738e+04  2.1627627906979160e+04  2.1711279069771233e+04  2.1794930232562216e+04  2.1878581395351608e+04  2.1962232558140484e+04  2.2045883720930749e+04  2.2129534883722743e+04  2.2213186046513776e+04  2.2296837209303252e+04  2.2380488372092172e+04  2.2464139534882597e+04  2.2547790697674482e+04  2.2631441860465478e+04  2.2715093023254998e+04  2.2798744186043943e+04  2.2882395348834121e+04  2.2966046511625969e+04  2.3049697674417104e+04  2.3133348837206584e+04  2.3216999999995420e+04  2.3300651162785660e+04  2.3384302325577497e+04  2.3467953488368639e+04  2.3551604651158410e+04  2.3635255813947337e+04  2.3718906976737602e+04  2.3802558139529159e+04  2.3886209302320312e+04  2.3969860465110007e+04  2.4053511627898937e+04  2.4137162790689068e+04  2.4220813953480749e+04  2.4304465116272120e+04  2.4388116279061869e+04  2.4471767441850792e+04  2.4555418604640821e+04  2.4639069767431476e+04  2.4722720930221054e+04  2.4806372093009857e+04  2.4890023255799075e+04  2.4973674418588787e+04  2.5057325581380050e+04  2.5140976744171428e+04  2.5224627906960992e+04  2.5308279069750275e+04  2.5391930232541315e+04  2.5475581395333065e+04  2.5559232558124044e+04  2.5642883720913276e+04  2.5726534883702327e+04  2.5810186046493374e+04  2.5893837209285262e+04  2.5977488372076117e+04  2.6061139534867387e+04  2.6144790697661036e+04  2.6228441860459465e+04  2.6312093023262318e+04  2.6395744186070067e+04  2.6479395348884878e+04  2.6563046511711000e+04  2.6646697674554202e+04  2.6730348837409758e+04  2.6814000000287200e+04  2.6897651163184746e+04  2.6981302326114899e+04  2.7064953489067932e+04  2.7148604652036902e+04  2.7232255815012930e+04  2.7315906977986659e+04  2.7399558140918220e+04  2.7483209303759490e+04  2.7566860466297618e+04  2.7650511628670243e+04  2.7734162790341863e+04  2.7817813951502671e+04  2.7901465111171758e+04  2.7985116269671194e+04  2.8068767425888393e+04  2.8152418579337686e+04  2.8236069729763585e+04  2.8319720874918938e+04  2.8403372016054254e+04  2.8487023151600963e+04  2.8570674281980973e+04  2.8654325406665488e+04  2.8737976530618173e+04  2.8821627651568160e+04  2.8905278785618997e+04  2.8988929929470691e+04  2.9072581102079504e+04  2.9156232310795069e+04  2.9239883576395347e+04  2.9323534889157359e+04  2.9407186292744213e+04  2.9490837758356261e+04  2.9574489308143962e+04  2.9658140924960808e+04  2.9741792597335650e+04  2.9825444323309388e+04  2.9909096074077479e+04  2.9992747834819638e+04  3.0076399591187510e+04  3.0160051312278018e+04  3.0243702990871123e+04  3.0327354598901635e+04  3.0522766016718331e+04  3.0634525750170666e+04  3.0746285361393300e+04  3.0858044893638016e+04  3.0969804367229692e+04  3.1081563814313558e+04  3.1193323255550396e+04  3.1305082698685273e+04  3.1416842149969165e+04  3.1528601610857717e+04  3.1640361083475149e+04  3.1752120560588464e+04  3.1863880044819180e+04  3.1975639532527442e+04  3.2087399022984348e+04  3.2199158514935818e+04  3.2310918008050172e+04  3.2422677501570419e+04  3.2534436995360451e+04  3.2646196489278234e+04  3.2757955983220767e+04  3.2869715477112659e+04  3.2981474970965806e+04  3.3093234464772948e+04  3.3204993958537874e+04  3.3316753452273231e+04  3.3428512945986200e+04  3.3540272439681197e+04  3.3652031933368060e+04  3.3763791427046381e+04  3.3875550920719506e+04  3.3987310414392428e+04  3.4099069908063349e+04  3.4210829401731498e+04  3.4322588895402187e+04  3.4434348389072722e+04  3.4546107882740973e+04  3.4657867376412214e+04  3.4769626870083455e+04  3.4881386363752004e+04  3.4993145857423209e+04  3.5104905351094836e+04  3.5216664844766550e+04  3.5328424338438192e+04  3.5440183832110051e+04  3.5551943325781620e+04  3.5663702819453458e+04  3.5775462313125085e+04  3.5887221806796850e+04  3.5998981300468549e+04  3.6110740794140482e+04  3.6222500287812007e+04  3.6334259781483808e+04  3.6446019275155420e+04  3.6557778768827156e+04  3.6669538262498834e+04  3.6781297756170723e+04  3.6893057249842233e+04  3.7004816743513875e+04  3.7116576237185494e+04  3.7228335730854429e+04  3.7340095224526121e+04  3.7451854718197523e+04  3.7563614211866428e+04  3.7675373705537713e+04  3.7787133199209449e+04  3.7898892692878675e+04  3.8010652186549691e+04  3.8122411680221463e+04  3.8234171173890834e+04  3.8345930667561515e+04  3.8457690161233411e+04  3.8569449654903423e+04  3.8681209148573857e+04  3.8792968642245192e+04  3.8904728135914789e+04  3.9016487629585114e+04  3.9128247123257068e+04  3.9240006616926956e+04  3.9240006616926716e+04  3.9240006616926701e+04  3.9240006616926883e+04  3.9240006616926694e+04  3.9240006616926905e+04  3.9240006616927021e+04  3.9240006616927036e+04  3.9240006616926956e+04  3.9240006616926708e+04  3.9240006616926876e+04  3.9240006616926737e+04  3.9240006616926752e+04  3.9240006616927196e+04  3.9128247123256922e+04  3.9016487629585201e+04  3.8904728135914796e+04  3.8792968642245090e+04  3.8681209148573769e+04  3.8569449654902986e+04  3.8457690161233098e+04  3.8345930667561210e+04  3.8234171173890521e+04  3.8122411680221252e+04  3.8010652186549501e+04  3.7898892692878508e+04  3.7787133199209406e+04  3.7675373705537779e+04  3.7563614211866676e+04  3.7451854718197530e+04  3.7340095224525990e+04  3.7228335730854436e+04  3.7116576237185436e+04  3.7004816743514246e+04  3.6893057249842488e+04  3.6781297756173728e+04  3.6669538262502429e+04  3.6557778768830620e+04  3.6446019275161481e+04  3.6334259781490415e+04  3.6222500287820105e+04  3.6110740794150734e+04  3.5998981300478881e+04  3.5887221806808098e+04  3.5775462313138771e+04  3.5663702819467035e+04  3.5551943325796281e+04  3.5440183832126939e+04  3.5328424338455166e+04  3.5216664844783954e+04  3.5104905351114896e+04  3.4993145857443065e+04  3.4881386363771649e+04  3.4769626870102184e+04  3.4657867376430324e+04  3.4546107882758057e+04  3.4434348389085651e+04  3.4322588895412999e+04  3.4210829401740564e+04  3.4099069908067941e+04  3.3987310414395892e+04  3.3875550920725189e+04  3.3763791427057215e+04  3.3652031933392966e+04  3.3540272439736560e+04  3.3428512946090181e+04  3.3316753452460725e+04  3.3204993958853382e+04  3.3093234465277477e+04  3.2981474971740950e+04  3.2869715478252685e+04  3.2757955984800519e+04  3.2646196491399776e+04  3.2534436997999044e+04  3.2422677504461641e+04  3.2310918010652735e+04  3.2199158516439056e+04  3.2087399021094679e+04  3.1975639524344428e+04  3.1863880024651251e+04  3.1752120521253779e+04  3.1640361010063261e+04  3.1528601494006769e+04  3.1416841961488193e+04  3.1305082412828946e+04  3.1193322846078816e+04  3.1081563248954193e+04  3.0969803617344860e+04  3.0858043977247733e+04  3.0746284136135993e+04  3.0634525396941463e+04  3.0522760063515016e+04  3.0385838944736828e+04  3.0360698751266536e+04  3.0335543115267810e+04  3.0310389112526726e+04  3.0285235288844498e+04  3.0260081265043900e+04  3.0234927328609694e+04  3.0209773371225299e+04  3.0184619426603265e+04  3.0159465483201599e+04  3.0134311533084732e+04  3.0109157587569243e+04  3.0084003649061084e+04  3.0058849707441397e+04  3.0033695763572930e+04  3.0008541824838947e+04  2.9983387886591936e+04  2.9958233948803692e+04  2.9933080013241433e+04  2.9907926077910517e+04  2.9882772145384231e+04  2.9857618214468224e+04  2.9832464284855294e+04  2.9807310358436218e+04  2.9782156435316167e+04  2.9757002510016235e+04  2.9731848589960839e+04  2.9706694678851400e+04  2.9681540765867237e+04  2.9656386858909576e+04  2.9631232950215221e+04  2.9606079052816509e+04  2.9580925180297119e+04  2.9555771277629345e+04  2.9530617347833493e+04  2.9505463880433559e+04  2.9480305622532331e+04  2.9455173843687804e+04  2.9348934725712938e+04  2.9267850645664385e+04  2.9186777910734207e+04  2.9105703313045524e+04  2.9024628766895581e+04  2.8943554266460760e+04  2.8862479761222283e+04  2.8781405292063078e+04  2.8700330833611461e+04  2.8619256389601331e+04  2.8538181961452545e+04  2.8457107543260554e+04  2.8376033131803873e+04  2.8294958729554179e+04  2.8213884333052232e+04  2.8132809940358664e+04  2.8051735551674337e+04  2.7970661165499387e+04  2.7889586781300830e+04  2.7808512398437535e+04  2.7727438016647517e+04  2.7646363635510406e+04  2.7565289254909967e+04  2.7484214874613568e+04  2.7403140494475691e+04  2.7322066114430309e+04  2.7240991734431398e+04  2.7159917354450459e+04  2.7078842974475436e+04  2.6997768594464520e+04  2.6916694214435363e+04  2.6835619834383961e+04  2.6754545454309162e+04  2.6673471074212594e+04  2.6592396694100200e+04  2.6511322313973942e+04  2.6430247933836883e+04  2.6349173553691486e+04  2.6268099173539133e+04  2.6187024793382476e+04  2.6105950413222690e+04  2.6024876033060380e+04  2.5943801652896691e+04  2.5862727272731856e+04  2.5781652892566435e+04  2.5700578512400694e+04  2.5619504132234873e+04  2.5538429752069042e+04  2.5457355371903108e+04  2.5376280991737294e+04  2.5295206611571517e+04  2.5214132231405805e+04  2.5133057851240166e+04  2.5051983471074709e+04  2.4970909090909194e+04  2.4889834710743798e+04  2.4808760330578454e+04  2.4727685950413110e+04  2.4646611570247733e+04  2.4565537190082472e+04  2.4484462809917040e+04  2.4403388429751783e+04  2.4322314049586501e+04  2.4241239669421211e+04  2.4160165289255947e+04  2.4079090909090675e+04  2.3998016528925378e+04  2.3916942148760110e+04  2.3835867768594766e+04  2.3754793388429473e+04  2.3673719008264165e+04  2.3592644628099057e+04  2.3511570247933676e+04  2.3430495867768295e+04  2.3349421487602995e+04  2.3268347107437690e+04  2.3187272727272495e+04  2.3106198347107154e+04  2.3025123966941916e+04  2.2944049586776604e+04  2.2862975206611296e+04  2.2781900826446010e+04  2.2700826446280695e+04  2.2619752066115379e+04  2.2538677685950192e+04  2.2457603305784844e+04  2.2376528925619587e+04  2.2295454545454271e+04  2.2214380165288967e+04  2.2133305785123659e+04  2.2052231404958387e+04  2.1971157024793189e+04  2.1890082644628033e+04  2.1809008264462700e+04  2.1727933884297363e+04  2.1646859504131931e+04  2.1565785123966773e+04  2.1484710743801523e+04  2.1403636363636222e+04  2.1322561983471001e+04  2.1241487603305701e+04  2.1160413223140429e+04  2.1079338842975099e+04  2.0998264462809810e+04  2.0917190082644458e+04  2.0836115702479230e+04  2.0755041322313980e+04  2.0673966942148654e+04  2.0592892561983332e+04  2.0511818181817929e+04  2.0430743801652716e+04  2.0349669421487379e+04  2.0268595041322198e+04  2.0187520661156919e+04  2.0106446280991629e+04  2.0025371900826347e+04  1.9944297520661006e+04  1.9863223140495724e+04  1.9782148760330383e+04  1.9701074380165159e+04  1.9619999999999960e+04  1.9619999999999884e+04  1.9619999999999880e+04  1.9619999999999847e+04  1.9619999999999913e+04  1.9619999999999902e+04  1.9619999999999949e+04  1.9619999999999931e+04  1.9619999999999927e+04  1.9619999999999916e+04  1.9619999999999909e+04  1.9619999999999927e+04  1.9619999999999865e+04  1.9619999999999920e+04  1.9619999999999898e+04  1.9619999999999949e+04  1.9619999999999971e+04  1.9619999999999924e+04  1.9619999999999993e+04  1.9620000000000022e+04  1.9619999999999924e+04  1.9619999999999964e+04  1.9619999999999942e+04  1.9619999999999967e+04  1.9619999999999953e+04  1.9619999999999945e+04  1.9619999999999916e+04  1.9619999999999935e+04  1.9619999999999931e+04  1.9619999999999945e+04  1.9619999999999935e+04  1.9619999999999938e+04  1.9619999999999909e+04  1.9619999999999924e+04  1.9619999999999916e+04  1.9619999999999953e+04  1.9619999999999942e+04  1.9620000000000025e+04  2.9623450499620212e+04  3.0197721032470854e+04  2.0200437506824259e+04  2.9899012689451705e+04  3.0390400253876945e+04  2.9619860714894196e+04  3.0129690467176097e+04  2.9029350437873218e+04  1.9963562585599324e+04  1.9963562585599582e+04  2.0801543925222315e+04  2.2263406597662059e+04  2.7533242143143354e+04  2.4840802723953690e+04  2.5499199703440223e+04  2.6871761640135803e+04  2.1603519466610549e+04  2.2904817585998240e+04  2.8179556668855832e+04  2.4199399105680510e+04  2.6153081579356720e+04  2.3547735421049532e+04  2.9445680086306857e+04  3.8653766437370366e+04  2.9788085469896869e+04  1.9882000597702659e+04  2.9910642824091512e+04  3.0926074154727394e+04  2.8603297577624224e+04  2.9945657012875650e+04  2.1200950413221366e+04  3.1513973226250499e+04  3.7504965198133621e+04  3.2145986105463518e+04  3.4829963750875628e+04  3.2797880705289703e+04  3.6843143828575900e+04  3.4155491507936647e+04  3.5480108553387763e+04  3.3481458237397950e+04  3.6167162394023850e+04  3.8090849175398973e+04  3.0271462120422468e+04  2.9324036015392929e+04  2.6485779759565154e+04  2.9667559275985692e+04  2.9325056348294162e+04  2.5175510695838093e+04  2.7201037544685507e+04  2.1922621422227392e+04  2.2581130672533349e+04  2.7846137057643016e+04  2.4523083963917845e+04  2.5821654106248898e+04  2.3229729193214585e+04  2.3874485590920867e+04  3.0118134147208282e+04  3.0494146748763556e+04  2.6555032087884774e+04  2.5176653369551579e+04  2.7197481612813554e+04  2.1928251564798527e+04  2.2573460918179506e+04  2.7849223268480055e+04  2.4530765934066305e+04  2.5814456723660904e+04  2.3221803505592325e+04  2.3868243262465068e+04  2.9701539371867777e+04  2.1113766300721883e+04  1.9812665403794639e+04  2.8705965621807623e+04  1.9802979826984349e+04  2.0500934529537924e+04  2.0489040009322220e+04  3.0071427180352395e+04  1.9792145423312657e+04  1.9787672201391470e+04  2.9737984069322494e+04  2.8388622165598816e+04  3.0407172082995687e+04  3.0070896167809657e+04  2.9089850660184551e+04  2.1423064418386701e+04  2.9566825364586428e+04  2.8324563480325083e+04  3.8900560835092620e+04  3.8905162435256447e+04  2.1479204180901277e+04  2.0919582684545887e+04  2.9033444860186632e+04  2.6795082644469810e+04  2.6227561983447104e+04  2.6254199436632149e+04  2.0224370675940856e+04  2.9845895167504437e+04  2.2252193141265150e+04  2.7522027501199271e+04  2.4852023591033678e+04  2.5497892561983455e+04  2.2903512396695933e+04  2.4200702479338343e+04  2.3552107438018396e+04  2.0229351519762302e+04  2.3589821556378945e+04  2.0832874390932520e+04  2.6809637637082800e+04  2.4154224946831328e+04  2.2951823060804385e+04  2.5546256344547768e+04  2.4795127007887360e+04  2.7578946762284926e+04  2.2309112432666607e+04  3.0172043496777831e+04  1.9746420890490364e+04  2.9513716099852609e+04  3.5160785097940010e+04  3.5159286810179408e+04  3.2474504475045258e+04  3.2484713431883745e+04  3.7179101532568151e+04  3.7185425651552177e+04  3.4490228135907419e+04  3.3149114211767468e+04  3.6501899021995603e+04  3.3819671173873016e+04  3.5831342059972238e+04  3.4494280910500565e+04  3.6501899021996287e+04  3.3821872974741986e+04  3.3151520146410410e+04  3.5830344023733203e+04  2.8814188668999799e+04  2.8120249517504955e+04  3.1839612857189026e+04  3.1819958188254328e+04  3.0435170378758914e+04  3.0701138081818404e+04  3.1218323999856832e+04  3.1220454662895299e+04  3.7796871958221753e+04  3.8358769071427661e+04  2.9743826385907811e+04  3.8365558562720085e+04  2.9917676765499578e+04  3.7774381462432379e+04  2.1688777607242871e+04  2.9743466725006878e+04  2.8069017538041418e+04  2.9853844805311321e+04  2.9526734901797012e+04  1.9737021993137245e+04  1.9744154920601060e+04  2.1723259180739249e+04  1.9730159625083976e+04  3.0787606259996697e+04  2.9995199526845659e+04  2.1373840792969415e+04  2.9999862561826769e+04  1.9745750149171970e+04  2.8410932406753393e+04  2.6016087755744298e+04  3.9000792925219648e+04  2.6386125540041357e+04  3.0229736714113435e+04  3.0077437075114343e+04  3.0250850799172022e+04  2.0705194984258771e+04  2.9449705253774842e+04  3.0321308665186465e+04  2.9744894846739611e+04  2.7012786618083992e+04  2.6009860472800472e+04  2.8793910239152799e+04  2.8551207686134603e+04  2.9888945892866879e+04  2.1026497257911597e+04  2.0565078410574770e+04  2.9460654174937095e+04  2.9288759419511527e+04  2.9923485562099468e+04  2.9469121312236570e+04  1.9720072592227345e+04  2.5075614225497698e+04  2.7304632202946916e+04  2.2034798589303122e+04  2.2485899186553845e+04  2.7752434607395848e+04  2.4618334088638185e+04  2.5725313993718635e+04  2.3134213592919692e+04  2.3970009825013611e+04  2.6648979523128630e+04  2.1275537939497823e+04  3.0587121555207661e+04  3.0243969974349850e+04  2.7039976696803682e+04  2.2085008993757157e+04  2.7355246583873406e+04  2.5020100445269560e+04  2.5331410486271569e+04  2.2736938498800901e+04  2.4367173947792915e+04  3.0680089840218388e+04  1.9712573915374527e+04  2.3378464129449399e+04  1.9707480776958339e+04  3.4827008093505596e+04  3.2163515130648848e+04  3.7507734465032918e+04  3.2163960386406921e+04  3.4824860875069797e+04  3.6827795093697205e+04  3.2795035787987326e+04  3.4154152492132314e+04  3.5477263636357158e+04  3.3465478675718259e+04  3.6165390417584364e+04  3.5504022743225796e+04  3.4138105490784445e+04  3.2795708381274148e+04  3.6836404487589338e+04  3.6156061275601089e+04  3.3484969965474564e+04  3.7454991958196391e+04  2.0049239339109903e+04  2.9704962869833584e+04  3.1505982628428177e+04  3.1500656695801081e+04  3.0951495515591803e+04  3.0324036590665666e+04  2.9219840081939681e+04  2.9994783466362907e+04  3.8619192064228402e+04  2.8561074360926224e+04  2.6422556843832997e+04  2.9583742654306508e+04  2.9643808793373992e+04  2.5038548678973642e+04  2.7332381739874687e+04  2.2056740452353490e+04  2.2451467150534932e+04  2.7721302257984014e+04  2.4652745620512087e+04  2.5308295376476959e+04  2.2713914275622177e+04  2.4390300804015387e+04  2.5696486897641651e+04  2.3100108225613498e+04  2.4004104247901796e+04  2.3362508618587915e+04  2.3760551487266264e+04  3.8091195243795722e+04  1.9985152210704753e+04  2.3758470800134935e+04  2.3341526159484423e+04  2.5925438337651678e+04  2.4411174522942005e+04  2.7958917283599105e+04  2.2693048569026232e+04  2.1826400034633465e+04  2.7095645145922161e+04  2.5278402088727893e+04  3.8066796502824342e+04  2.1243060586613290e+04  3.8635391429760355e+04  2.9748974737982535e+04  2.6439815837844802e+04  2.8847386520448599e+04  2.0019956027836706e+04  2.9218699111451049e+04  2.0056468305111201e+04  2.9490498628890306e+04  2.0635387034154239e+04  2.5377298231579654e+04  2.2781608438974319e+04  2.3433044989539554e+04  2.4322620790058023e+04  2.6997431906095866e+04  2.9616162493755150e+04  2.3776969044377009e+04  2.6639544269198301e+04  2.1016733208840589e+04  2.3127728795669598e+04  2.5712746459954629e+04  2.2486341550067187e+04  2.7758475134342822e+04  2.4617712602698452e+04  1.9711919038426782e+04  2.6617197316684378e+04  2.0410954406355733e+04  2.2134448105736126e+04  2.7408041460665965e+04  2.4965979067598761e+04  2.3972100240591401e+04  2.0424997495134478e+04  2.1083362014084316e+04  2.6018322336664485e+04  2.8591727997679365e+04  1.9705273592109548e+04  2.8907887875159955e+04  2.8946954726704771e+04  2.0336892076859433e+04  2.0688539070866758e+04  2.1870875346739111e+04  2.0334200740283206e+04  2.0698286283762558e+04  2.6962966344938344e+04  2.6061912365650252e+04  3.0012927155055630e+04  2.7942301566727798e+04  2.9818800380227731e+04  2.4972564634606282e+04  2.7384779205690524e+04  2.2115188085990834e+04  2.2379864666464673e+04  2.7652026388857113e+04  2.4724347296176584e+04  2.5637116862126608e+04  2.3026754370496725e+04  2.4077460070093719e+04  3.0097208865187691e+04  2.9139588223868279e+04  2.8250035982463873e+04  2.1733795383617373e+04  1.9697592810280123e+04  2.7906109273769031e+04  1.9842422767517779e+04  2.996231655