<?xml version="1.0"?>
<VTKFile type="UnstructuredGrid"  version="0.1"  >
<UnstructuredGrid>
<Piece  NumberOfPoints="4408" NumberOfCells="8313">
<Points>
<DataArray  type="Float64"  NumberOfComponents="3"  format="ascii">6 0.1 0  7.1 0.1 0  8 0.1 0  8 0.22 0  7.1 0.22 0  7 0.22 0  6 0.22 0  6.008527131783115 0.1 0  6.01705426356606 0.1 0  6.025581395348834 0.1 0  6.034108527131772 0.1 0  6.042635658914882 0.1 0  6.051162790697997 0.1 0  6.059689922480948 0.1 0  6.068217054263728 0.1 0  6.07674418604666 0.1 0  6.085271317829764 0.1 0  6.093798449612879 0.1 0  6.102325581395837 0.1 0  6.110852713178624 0.1 0  6.11937984496155 0.1 0  6.127906976744646 0.1 0  6.136434108527761 0.1 0  6.144961240310725 0.1 0  6.15348837209352 0.1 0  6.162015503876439 0.1 0  6.170542635659528 0.1 0  6.179069767442498 0.1 0  6.187596899225297 0.1 0  6.196124031008068 0.1 0  6.20465116279098 0.1 0  6.213178294574063 0.1 0  6.221705426357039 0.1 0  6.230232558139845 0.1 0  6.238759689922617 0.1 0  6.247286821705522 0.1 0  6.255813953488598 0.1 0  6.264341085271582 0.1 0  6.272868217054394 0.1 0  6.281395348837165 0.1 0  6.289922480620064 0.1 0  6.298449612403133 0.1 0  6.306976744186123 0.1 0  6.315503875968942 0.1 0  6.324031007751714 0.1 0  6.332558139534606 0.1 0  6.341085271317668 0.1 0  6.349612403100665 0.1 0  6.358139534883491 0.1 0  6.366666666666262 0.1 0  6.375193798449147 0.1 0  6.383720930232204 0.1 0  6.392248062015207 0.1 0  6.400775193798039 0.1 0  6.409302325580811 0.1 0  6.417829457363689 0.1 0  6.426356589146739 0.1 0  6.434883720929749 0.1 0  6.443410852712588 0.1 0  6.451937984495359 0.1 0  6.460465116278231 0.1 0  6.468992248061274 0.1 0  6.47751937984429 0.1 0  6.486046511627137 0.1 0  6.494573643409908 0.1 0  6.503100775192773 0.1 0  6.511627906975716 0.1 0  6.520155038758567 0.1 0  6.528682170541338 0.1 0  6.53720930232411 0.1 0  6.545736434106968 0.1 0  6.554263565889997 0.1 0  6.562790697673027 0.1 0  6.571317829455887 0.1 0  6.57984496123874 0.1 0  6.588372093021763 0.1 0  6.596899224804878 0.1 0  6.605426356587916 0.1 0  6.613953488370782 0.1 0  6.622480620153628 0.1 0  6.631007751936646 0.1 0  6.639534883719688 0.1 0  6.64806201550256 0.1 0  6.656589147285331 0.1 0  6.66511627906817 0.1 0  6.673643410851181 0.1 0  6.682170542634229 0.1 0  6.690697674417108 0.1 0  6.699224806199942 0.1 0  6.707751937982947 0.1 0  6.716279069766062 0.1 0  6.724806201549118 0.1 0  6.733333333332004 0.1 0  6.741860465114831 0.1 0  6.750387596897829 0.1 0  6.758914728680944 0.1 0  6.767441860464007 0.1 0  6.775968992246899 0.1 0  6.78449612402972 0.1 0  6.793023255812711 0.1 0  6.801550387595826 0.1 0  6.810077519378895 0.1 0  6.818604651161794 0.1 0  6.827131782944608 0.1 0  6.835658914727593 0.1 0  6.844186046510708 0.1 0  6.852713178293785 0.1 0  6.86124031007669 0.1 0  6.869767441859497 0.1 0  6.878294573642475 0.1 0  6.88682170542559 0.1 0  6.895348837208672 0.1 0  6.903875968991585 0.1 0  6.912403100774386 0.1 0  6.920930232557357 0.1 0  6.929457364340472 0.1 0  6.937984496123562 0.1 0  6.946511627906481 0.1 0  6.955038759689274 0.1 0  6.963565891472238 0.1 0  6.972093023255354 0.1 0  6.980620155038451 0.1 0  6.989147286821376 0.1 0  6.997674418604163 0.1 0  7.006201550387121 0.1 0  7.014728682170236 0.1 0  7.023255813953339 0.1 0  7.031782945736271 0.1 0  7.040310077519051 0.1 0  7.048837209302002 0.1 0  7.057364341085117 0.1 0  7.065891472868227 0.1 0  7.074418604651166 0.1 0  7.08294573643394 0.1 0  7.091472868216885 0.1 0  7.111392405063206 0.1 0  7.122784810126584 0.1 0  7.134177215189814 0.1 0  7.145569620252996 0.1 0  7.156962025316374 0.1 0  7.168354430379628 0.1 0  7.179746835442786 0.1 0  7.191139240506164 0.1 0  7.202531645569443 0.1 0  7.213924050632575 0.1 0  7.225316455695954 0.1 0  7.236708860759257 0.1 0  7.248101265822365 0.1 0  7.259493670885744 0.1 0  7.270886075949071 0.1 0  7.282278481012169 0.1 0  7.293670886075534 0.1 0  7.305063291138885 0.1 0  7.316455696201983 0.1 0  7.327848101265324 0.1 0  7.339240506328699 0.1 0  7.350632911391798 0.1 0  7.362025316455115 0.1 0  7.373417721518494 0.1 0  7.384810126581612 0.1 0  7.396202531644905 0.1 0  7.407594936708154 0.1 0  7.418987341771317 0.1 0  7.430379746834695 0.1 0  7.441772151897969 0.1 0  7.453164556961106 0.1 0  7.464556962024485 0.1 0  7.475949367087783 0.1 0  7.487341772150897 0.1 0  7.498734177214275 0.1 0  7.510126582277597 0.1 0  7.521518987340695 0.1 0  7.532911392404065 0.1 0  7.544303797467411 0.1 0  7.55569620253051 0.1 0  7.567088607593855 0.1 0  7.578481012657234 0.1 0  7.589873417720614 0.1 0  7.601265822783993 0.1 0  7.612658227847371 0.1 0  7.62405063291075 0.1 0  7.635443037974129 0.1 0  7.646835443037508 0.1 0  7.658227848100887 0.1 0  7.669620253164266 0.1 0  7.681012658227645 0.1 0  7.692405063291024 0.1 0  7.703797468354402 0.1 0  7.715189873417781 0.1 0  7.72658227848116 0.1 0  7.73797468354454 0.1 0  7.749367088607919 0.1 0  7.760759493671297 0.1 0  7.772151898734676 0.1 0  7.783544303798018 0.1 0  7.794936708861115 0.1 0  7.806329113924466 0.1 0  7.817721518987832 0.1 0  7.82911392405093 0.1 0  7.840506329114256 0.1 0  7.851898734177635 0.1 0  7.863291139240744 0.1 0  7.874683544304045 0.1 0  7.886075949367425 0.1 0  7.897468354430558 0.1 0  7.908860759493836 0.1 0  7.920253164557215 0.1 0  7.931645569620372 0.1 0  7.943037974683626 0.1 0  7.954430379747005 0.1 0  7.965822784810186 0.1 0  7.977215189873416 0.1 0  7.988607594936794 0.1 0  8 0.1079999999999785 0  8 0.1159999999999675 0  8 0.1239999999999376 0  8 0.1319999999999082 0  8 0.1399999999998952 0  8 0.1479999999998634 0  8 0.155999999999838 0  8 0.1639999999998355 0  8 0.1719999999998709 0  8 0.1799999999998969 0  8 0.1879999999999114 0  8 0.1959999999999306 0  8 0.2039999999999588 0  8 0.2119999999999714 0  7.988607594936794 0.22 0  7.977215189873416 0.22 0  7.965822784810186 0.22 0  7.954430379747004 0.22 0  7.943037974683626 0.22 0  7.931645569620372 0.22 0  7.920253164557214 0.22 0  7.908860759493836 0.22 0  7.897468354430557 0.22 0  7.886075949367425 0.22 0  7.874683544304045 0.22 0  7.863291139240743 0.22 0  7.851898734177635 0.22 0  7.840506329114255 0.22 0  7.829113924050929 0.22 0  7.817721518987831 0.22 0  7.806329113924465 0.22 0  7.794936708861115 0.22 0  7.783544303798017 0.22 0  7.772151898734675 0.22 0  7.7607594936713 0.22 0  7.749367088608202 0.22 0  7.737974683544885 0.22 0  7.726582278481506 0.22 0  7.715189873418388 0.22 0  7.703797468355095 0.22 0  7.692405063291845 0.22 0  7.681012658228683 0.22 0  7.669620253165305 0.22 0  7.65822784810203 0.22 0  7.646835443038894 0.22 0  7.635443037975515 0.22 0  7.624050632912216 0.22 0  7.612658227849103 0.22 0  7.601265822785725 0.22 0  7.589873417722402 0.22 0  7.578481012659305 0.22 0  7.567088607595934 0.22 0  7.555696202532588 0.22 0  7.54430379746949 0.22 0  7.532911392406144 0.22 0  7.521518987342765 0.22 0  7.510126582279386 0.22 0  7.498734177216007 0.22 0  7.487341772152629 0.22 0  7.47594936708925 0.22 0  7.46455696202587 0.22 0  7.453164556962491 0.22 0  7.441772151899112 0.22 0  7.430379746835734 0.22 0  7.418987341772355 0.22 0  7.407594936708976 0.22 0  7.396202531645597 0.22 0  7.384810126582218 0.22 0  7.373417721518839 0.22 0  7.36202531645546 0.22 0  7.350632911392081 0.22 0  7.339240506328703 0.22 0  7.327848101265324 0.22 0  7.316455696201982 0.22 0  7.305063291138884 0.22 0  7.293670886075533 0.22 0  7.282278481012168 0.22 0  7.27088607594907 0.22 0  7.259493670885743 0.22 0  7.248101265822365 0.22 0  7.236708860759256 0.22 0  7.225316455695954 0.22 0  7.213924050632575 0.22 0  7.202531645569442 0.22 0  7.191139240506164 0.22 0  7.179746835442785 0.22 0  7.168354430379628 0.22 0  7.156962025316374 0.22 0  7.145569620252995 0.22 0  7.134177215189814 0.22 0  7.122784810126584 0.22 0  7.111392405063206 0.22 0  7.097435897435684 0.22 0  7.094871794871715 0.22 0  7.092307692307371 0.22 0  7.089743589743082 0.22 0  7.087179487179113 0.22 0  7.084615384614744 0.22 0  7.082051282050655 0.22 0  7.079487179486859 0.22 0  7.076923076922809 0.22 0  7.074358974358748 0.22 0  7.071794871794951 0.22 0  7.069230769230876 0.22 0  7.06666666666684 0.22 0  7.064102564103035 0.22 0  7.061538461538942 0.22 0  7.058974358974585 0.22 0  7.056410256410616 0.22 0  7.053846153846314 0.22 0  7.051282051281984 0.22 0  7.048717948718015 0.22 0  7.046153846153686 0.22 0  7.043589743589383 0.22 0  7.041025641025414 0.22 0  7.038461538461058 0.22 0  7.035897435896964 0.22 0  7.03333333333316 0.22 0  7.030769230769124 0.22 0  7.028205128205048 0.22 0  7.025641025641252 0.22 0  7.023076923077189 0.22 0  7.02051282051314 0.22 0  7.017948717949345 0.22 0  7.015384615385256 0.22 0  7.012820512820887 0.22 0  7.010256410256917 0.22 0  7.007692307692628 0.22 0  7.005128205128285 0.22 0  7.002564102564316 0.22 0  6.991735537190083 0.22 0  6.983471074380165 0.22 0  6.975206611570248 0.22 0  6.966942148760331 0.22 0  6.958677685950414 0.22 0  6.950413223140496 0.22 0  6.942148760330578 0.22 0  6.933884297520661 0.22 0  6.925619834710743 0.22 0  6.917355371900826 0.22 0  6.909090909090909 0.22 0  6.900826446280992 0.22 0  6.892561983471074 0.22 0  6.884297520661157 0.22 0  6.87603305785124 0.22 0  6.867768595041323 0.22 0  6.859504132231405 0.22 0  6.851239669421488 0.22 0  6.842975206611571 0.22 0  6.834710743801653 0.22 0  6.826446280991735 0.22 0  6.818181818181818 0.22 0  6.809917355371901 0.22 0  6.801652892561983 0.22 0  6.793388429752066 0.22 0  6.785123966942149 0.22 0  6.776859504132231 0.22 0  6.768595041322314 0.22 0  6.760330578512397 0.22 0  6.75206611570248 0.22 0  6.743801652892562 0.22 0  6.735537190082645 0.22 0  6.727272727272728 0.22 0  6.71900826446281 0.22 0  6.710743801652892 0.22 0  6.702479338842975 0.22 0  6.694214876033058 0.22 0  6.68595041322314 0.22 0  6.677685950413223 0.22 0  6.669421487603306 0.22 0  6.661157024793388 0.22 0  6.652892561983471 0.22 0  6.644628099173554 0.22 0  6.636363636363637 0.22 0  6.628099173553719 0.22 0  6.619834710743802 0.22 0  6.611570247933884 0.22 0  6.603305785123966 0.
[...]
<PointData  Vectors="velocity"> 
<DataArray  type="Float64"  Name="velocity"  NumberOfComponents="3" format="ascii">0.0000000000000000e+00 0.0000000000000000e+00 0.0000000000000000e+00  0.0000000000000000e+00 0.0000000000000000e+00 0.0000000000000000e+00  0.0000000000000000e+00 0.0000000000000000e+00 0.0000000000000000e+00  0.0000000000000000e+00 0.0000000000000000e+00 0.0000000000000000e+00  1.4546922425748869e-03 0.0000000000000000e+00 0.0000000000000000e+00  1.4546922425748869e-03 0.0000000000000000e+00 0.0000000000000000e+00  0.0000000000000000e+00 0.0000000000000000e+00 0.0000000000000000e+00  0.0000000000000000e+00 0.0000000000000000e+00 0.0000000000000000e+00  0.0000000000000000e+00 0.0000000000000000e+00 0.0000000000000000e+00  0.0000000000000000e+00 0.0000000000000000e+00 0.0000000000000000e+00  0.0000000000000000e+00 0.0000000000000000e+00 0.0000000000000000e+00  0.0000000000000000e+00 0.0000000000000000e+00 0.0000000000000000e+00  0.0000000000000000e+00 0.0000000000000000e+00 0.0000000000000000e+00  0.0000000000000000e+00 0.0000000000000000e+00 0.0000000000000000e+00  0.0000000000000000e+00 0.0000000000000000e+00 0.0000000000000000e+00  0.0000000000000000e+00 0.0000000000000000e+00 0.0000000000000000e+00  0.0000000000000000e+00 0.0000000000000000e+00 0.0000000000000000e+00  0.0000000000000000e+00 0.0000000000000000e+00 0.0000000000000000e+00  0.0000000000000000e+00 0.0000000000000000e+00 0.0000000000000000e+00  0.0000000000000000e+00 0.0000000000000000e+00 0.0000000000000000e+00  0.0000000000000000e+00 0.0000000000000000e+00 0.0000000000000000e+00  0.0000000000000000e+00 0.0000000000000000e+00 0.0000000000000000e+00  0.0000000000000000e+00 0.0000000000000000e+00 0.0000000000000000e+00  0.0000000000000000e+00 0.0000000000000000e+00 0.0000000000000000e+00  0.0000000000000000e+00 0.0000000000000000e+00 0.0000000000000000e+00  0.0000000000000000e+00 0.0000000000000000e+00 0.0000000000000000e+00  0.0000000000000000e+00 0.0000000000000000e+00 0.0000000000000000e+00  0.0000000000000000e+00 0.0000000000000000e+00 0.0000000000000000e+00  0.0000000000000000e+00 0.0000000000000000e+00 0.0000000000000000e+00  0.0000000000000000e+00 0.0000000000000000e+00 0.0000000000000000e+00  0.0000000000000000e+00 0.0000000000000000e+00 0.0000000000000000e+00  0.0000000000000000e+00 0.0000000000000000e+00 0.0000000000000000e+00  0.0000000000000000e+00 0.0000000000000000e+00 0.0000000000000000e+00  0.0000000000000000e+00 0.0000000000000000e+00 0.0000000000000000e+00  0.0000000000000000e+00 0.0000000000000000e+00 0.0000000000000000e+00  0.0000000000000000e+00 0.0000000000000000e+00 0.0000000000000000e+00  0.0000000000000000e+00 0.0000000000000000e+00 0.0000000000000000e+00  0.0000000000000000e+00 0.0000000000000000e+00 0.0000000000000000e+00  0.0000000000000000e+00 0.0000000000000000e+00 0.0000000000000000e+00  0.0000000000000000e+00 0.0000000000000000e+00 0.0000000000000000e+00  0.0000000000000000e+00 0.0000000000000000e+00 0.0000000000000000e+00  0.0000000000000000e+00 0.0000000000000000e+00 0.0000000000000000e+00  0.0000000000000000e+00 0.0000000000000000e+00 0.0000000000000000e+00  0.0000000000000000e+00 0.0000000000000000e+00 0.0000000000000000e+00  0.0000000000000000e+00 0.0000000000000000e+00 0.0000000000000000e+00  0.0000000000000000e+00 0.0000000000000000e+00 0.0000000000000000e+00  0.0000000000000000e+00 0.0000000000000000e+00 0.0000000000000000e+00  0.0000000000000000e+00 0.0000000000000000e+00 0.0000000000000000e+00  0.0000000000000000e+00 0.0000000000000000e+00 0.0000000000000000e+00  0.0000000000000000e+00 0.0000000000000000e+00 0.0000000000000000e+00  0.0000000000000000e+00 0.0000000000000000e+00 0.0000000000000000e+00  0.0000000000000000e+00 0.0000000000000000e+00 0.0000000000000000e+00  0.0000000000000000e+00 0.0000000000000000e+00 0.0000000000000000e+00  0.0000000000000000e+00 0.0000000000000000e+00 0.0000000000000000e+00  0.0000000000000000e+00 0.0000000000000000e+00 0.0000000000000000e+00  0.0000000000000000e+00 0.0000000000000000e+00 0.0000000000000000e+00  0.0000000000000000e+00 0.0000000000000000e+00 0.0000000000000000e+00  0.0000000000000000e+00 0.0000000000000000e+00 0.0000000000000000e+00  0.0000000000000000e+00 0.0000000000000000e+00 0.0000000000000000e+00  0.0000000000000000e+00 0.0000000000000000e+00 0.0000000000000000e+00  0.0000000000000000e+00 0.0000000000000000e+00 0.0000000000000000e+00  0.0000000000000000e+00 0.0000000000000000e+00 0.0000000000000000e+00  0.0000000000000000e+00 0.0000000000000000e+00 0.0000000000000000e+00  0.0000000000000000e+00 0.0000000000000000e+00 0.0000000000000000e+00  0.0000000000000000e+00 0.0000000000000000e+00 0.0000000000000000e+00  0.0000000000000000e+00 0.0000000000000000e+00 0.0000000000000000e+00  0.0000000000000000e+00 0.0000000000000000e+00 0.0000000000000000e+00  0.0000000000000000e+00 0.0000000000000000e+00 0.0000000000000000e+00  0.0000000000000000e+00 0.0000000000000000e+00 0.0000000000000000e+00  0.0000000000000000e+00 0.0000000000000000e+00 0.0000000000000000e+00  0.0000000000000000e+00 0.0000000000000000e+00 0.0000000000000000e+00  0.0000000000000000e+00 0.0000000000000000e+00 0.0000000000000000e+00  0.0000000000000000e+00 0.0000000000000000e+00 0.0000000000000000e+00  0.0000000000000000e+00 0.0000000000000000e+00 0.0000000000000000e+00  0.0000000000000000e+00 0.0000000000000000e+00 0.0000000000000000e+00  0.0000000000000000e+00 0.0000000000000000e+00 0.0000000000000000e+00  0.0000000000000000e+00 0.0000000000000000e+00 0.0000000000000000e+00  0.0000000000000000e+00 0.0000000000000000e+00 0.0000000000000000e+00  0.0000000000000000e+00 0.0000000000000000e+00 0.0000000000000000e+00  0.0000000000000000e+00 0.0000000000000000e+00 0.0000000000000000e+00  0.0000000000000000e+00 0.0000000000000000e+00 0.0000000000000000e+00  0.0000000000000000e+00 0.0000000000000000e+00 0.0000000000000000e+00  0.0000000000000000e+00 0.0000000000000000e+00 0.0000000000000000e+00  0.0000000000000000e+00 0.0000000000000000e+00 0.0000000000000000e+00  0.0000000000000000e+00 0.0000000000000000e+00 0.0000000000000000e+00  0.0000000000000000e+00 0.0000000000000000e+00 0.0000000000000000e+00  0.0000000000000000e+00 0.0000000000000000e+00 0.0000000000000000e+00  0.0000000000000000e+00 0.0000000000000000e+00 0.0000000000000000e+00  0.0000000000000000e+00 0.0000000000000000e+00 0.0000000000000000e+00  0.0000000000000000e+00 0.0000000000000000e+00 0.0000000000000000e+00  0.0000000000000000e+00 0.0000000000000000e+00 0.0000000000000000e+00  0.0000000000000000e+00 0.0000000000000000e+00 0.0000000000000000e+00  0.0000000000000000e+00 0.0000000000000000e+00 0.0000000000000000e+00  0.0000000000000000e+00 0.0000000000000000e+00 0.0000000000000000e+00  0.0000000000000000e+00 0.0000000000000000e+00 0.0000000000000000e+00  0.0000000000000000e+00 0.0000000000000000e+00 0.0000000000000000e+00  0.0000000000000000e+00 0.0000000000000000e+00 0.0000000000000000e+00  0.0000000000000000e+00 0.0000000000000000e+00 0.0000000000000000e+00  0.0000000000000000e+00 0.0000000000000000e+00 0.0000000000000000e+00  0.0000000000000000e+00 0.0000000000000000e+00 0.0000000000000000e+00  0.0000000000000000e+00 0.0000000000000000e+00 0.0000000000000000e+00  0.0000000000000000e+00 0.0000000000000000e+00 0.0000000000000000e+00  0.0000000000000000e+00 0.0000000000000000e+00 0.0000000000000000e+00  0.0000000000000000e+00 0.0000000000000000e+00 0.0000000000000000e+00  0.0000000000000000e+00 0.0000000000000000e+00 0.0000000000000000e+00  0.0000000000000000e+00 0.0000000000000000e+00 0.0000000000000000e+00  0.0000000000000000e+00 0.0000000000000000e+00 0.0000000000000000e+00  0.0000000000000000e+00 0.0000000000000000e+00 0.0000000000000000e+00  0.0000000000000000e+00 0.0000000000000000e+00 0.0000000000000000e+00  0.0000000000000000e+00 0.0000000000000000e+00 0.0000000000000000e+00  0.0000000000000000e+00 0.0000000000000000e+00 0.0000000000000000e+00  0.0000000000000000e+00 0.0000000000000000e+00 0.0000000000000000e+00  0.0000000000000000e+00 0.0000000000000000e+00 0.0000000000000000e+00  0.0000000000000000e+00 0.0000000000000000e+00 0.0000000000000000e+00  0.0000000000000000e+00 0.0000000000000000e+00 0.0000000000000000e+00  0.0000000000000000e+00 0.0000000000000000e+00 0.0000000000000000e+00  0.0000000000000000e+00 0.0000000000000000e+00 0.0000000000000000e+00  0.0000000000000000e+00 0.0000000000000000e+00 0.0000000000000000e+00  0.0000000000000000e+00 0.0000000000000000e+00 0.0000000000000000e+00  0.0000000000000000e+00 0.0000000000000000e+00 0.0000000000000000e+00  0.0000000000000000e+00 0.0000000000000000e+00 0.0000000000000000e+00  0.0000000000000000e+00 0.0000000000000000e+00 0.0000000000000000e+00  0.0000000000000000e+00 0.0000000000000000e+00 0.0000000000000000e+00  0.0000000000000000e+00 0.0000000000000000e+00 0.0000000000000000e+00  0.0000000000000000e+00 0.0000000000000000e+00 0.0000000000000000e+00  0.0000000000000000e+00 0.0000000000000000e+00 0.0000000000000000e+00  0.0000000000000000e+00 0.0000000000000000e+00 0.0000000000000000e+00  0.0000000000000000e+00 0.0000000000000000e+00 0.0000000000000000e+00  0.0000000000000000e+00 0.0000000000000000e+00 0.0000000000000000e+00  0.0000000000000000e+00 0.0000000000000000e+00 0.0000000000000000e+00  0.0000000000000000e+00 0.0000000000000000e+00 0.0000000000000000e+00  0.0000000000000000e+00 0.0000000000000000e+00 0.0000000000000000e+00  0.0000000000000000e+00 0.0000000000000000e+00 0.0000000000000000e+00  0.0000000000000000e+00 0.0000000000000000e+00 0.0000000000000000e+00  0.0000000000000000e+00 0.0000000000000000e+00 0.0000000000000000e+00  0.0000000000000000e+00 0.0000000000000000e+00 0.0000000000000000e+00  0.0000000000000000e+00 0.0000000000000000e+00 0.0000000000000000e+00  0.0000000000000000e+00 0.0000000000000000e+00 0.0000000000000000e+00  0.0000000000000000e+00 0.0000000000000000e+00 0.0000000000000000e+00  0.0000000000000000e+00 0.0000000000000000e+00 0.0000000000000000e+00  0.0000000000000000e+00 0.0000000000000000e+00 0.0000000000000000e+00  0.0000000000000000e+00 0.0000000000000000e+00 0.0000000000000000e+00  0.0000000000000000e+00 0.0000000000000000e+00 0.0000000000000000e+00  0.0000000000000000e+00 0.0000000000000000e+00 0.0000000000000000e+00  0.0000000000000000e+00 0.0000000000000000e+00 0.0000000000000000e+00  0.0000000000000000e+00 0.0000000000000000e+00 0.0000000000000000e+00  0.0000000000000000e+00 0.0000000000000000e+00 0.0000000000000000e+00  0.0000000000000000e+00 0.0000000000000000e+00 0.0000000000000000e+00  0.0000000000000000e+00 0.0000000000000000e+00 0.0000000000000000e+00  0.0000000000000000e+00 0.0000000000000000e+00 0.0000000000000000e+00  0.0000000000000000e+00 0.0000000000000000e+00 0.0000000000000000e+00  0.0000000000000000e+00 0.0000000000000000e+00 0.0000000000000000e+00  0.0000000000000000e+00 0.0000000000000000e+00 0.0000000000000000e+00  0.0000000000000000e+00 0.0000000000000000e+00 0.0000000000000000e+00  0.0000000000000000e+00 0.0000000000000000e+00 0.0000000000000000e+00  0.0000000000000000e+00 0.0000000000000000e+00 0.0000000000000000e+00  0.0000000000000000e+00 0.0000000000000000e+00 0.0000000000000000e+00  0.0000000000000000e+00 0.0000000000000000e+00 0.0000000000000000e+00  0.0000000000000000e+00 0.0000000000000000e+00 0.0000000000000000e+00  0.0000000000000000e+00 0.0000000000000000e+00 0.0000000000000000e+00  0.0000000000000000e+00 0.0000000000000000e+00 0.0000000000000000e+00  0.0000000000000000e+00 0.0000000000000000e+00 0.0000000000000000e+00  0.0000000000000000e+00 0.0000000000000000e+00 0.0000000000000000e+00  0.0000000000000000e+00 0.0000000000000000e+00 0.0000000000000000e+00  0.0000000000000000e+00 0.0000000000000000e+00 0.0000000000000000e+00  0.0000000000000000e+00 0.0000000000000000e+00 0.0000000000000000e+00  0.0000000000000000e+00 0.0000000000000000e+00 0.0000000000000000e+00  0.0000000000000000e+00 0.0000000000000000e+00 0.0000000000000000e+00  0.0000000000000000e+00 0.0000000000000000e+00 0.0000000000000000e+00  0.0000000000000000e+00 0.0000000000000000e+00 0.0000000000000000e+00  0.0000000000000000e+00 0.0000000000000000e+00 0.0000000000000000e+00  0.0000000000000000e+00 0.0000000000000000e+00 0.0000000000000000e+00  0.0000000000000000e+00 0.0000000000000000e+00 0.0000000000000000e+00  0.0000000000000000e+00 0.0000000000000000e+00 0.0000000000000000e+00  0.0000000000000000e+00 0.0000000000000000e+00 0.0000000000000000e+00  0.0000000000000000e+00 0.0000000000000000e+00 0.0000000000000000e+00  0.0000000000000000e+00 0.0000000000000000e+00 0.0000000000000000e+00  0.0000000000000000e+00 0.0000000000000000e+00 0.0000000000000000e+00  0.0000000000000000e+00 0.0000000000000000e+00 0.0000000000000000e+00  0.0000000000000000e+00 0.0000000000000000e+00 0.0000000000000000e+00  0.0000000000000000e+00 0.0000000000000000e+00 0.0000000000000000e+00  0.0000000000000000e+00 0.0000000000000000e+00 0.0000000000000000e+00  0.0000000000000000e+00 0.0000000000000000e+00 0.0000000000000000e+00  0.0000000000000000e+00 0.0000000000000000e+00 0.0000000000000000e+00  0.0000000000000000e+00 0.0000000000000000e+00 0.0000000000000000e+00  0.0000000000000000e+00 0.0000000000000000e+00 0.0000000000000000e+00  0.0000000000000000e+00 0.0000000000000000e+00 0.0000000000000000e+00  0.0000000000000000e+00 0.0000000000000000e+00 0.0000000000000000e+00  0.0000000000000000e+00 0.0000000000000000e+00 0.0000000000000000e+00  0.0000000000000000e+00 0.0000000000000000e+00 0.0000000000000000e+00  0.0000000000000000e+00 0.0000000000000000e+00 0.0000000000000000e+00  0.0000000000000000e+00 0.0000000000000000e+00 0.0000000000000000e+00  0.0000000000000000e+00 0.0000000000000000e+00 0.0000000000000000e+00  0.0000000000000000e+00 0.0000000000000000e+00 0.0000000000000000e+00  0.0000000000000000e+00 0.0000000000000000e+00 0.0000000000000000e+00  0.0000000000000000e+00 0.0000000000000000e+00 0.0000000000000000e+00  0.0000000000000000e+00 0.0000000000000000e+00 0.0000000000000000e+00  0.0000000000000000e+00 0.0000000000000000e+00 0.0000000000000000e+00  0.0000000000000000e+00 0.0000000000000000e+00 0.0000000000000000e+00  0.0000000000000000e+00 0.0000000000000000e+00 0.0000000000000000e+00  0.0000000000000000e+00 0.0000000000000000e+00 0.0000000000000000e+00  0.0000000000000000e+00 0.0000000000000000e+00 0.0000000000000000e+00  0.0000000000000000e+00 0.0000000000000000e+00 0.0000000000000000e+00  0.0000000000000000e+00 0.0000000000000000e+00 0.0000000000000000e+00  0.0000000000000000e+00 0.0000000000000000e+00 0.0000000000000000e+00  0.0000000000000000e+00 0.0000000000000000e+00 0.0000000000000000e+00  0.0000000000000000e+00 0.0000000000000000e+00 0.0000000000000000e+00  0.0000000000000000e+00 0.0000000000000000e+00 0.0000000000000000e+00  0.0000000000000000e+00 0.0000000000000000e+00 0.0000000000000000e+00  0.0000000000000000e+00 0.0000000000000000e+00 0.0000000000000000e+00  0.0000000000000000e+00 0.0000000000000000e+00 0.0000000000000000e+00  0.0000000000000000e+00 0.0000000000000000e+00 0.0000000000000000e+00  0.0000000000000000e+00 0.0000000000000000e+00 0.0000000000000000e+00  0.0000000000000000e+00 0.0000000000000000e+00 0.0000000000000000e+00  0.0000000000000000e+00 0.0000000000000000e+00 0.0000000000000000e+00  0.0000000000000000e+00 0.0000000000000000e+00 0.0000000000000000e+00  0.0000000000000000e+00 0.0000000000000000e+00 0.0000000000000000e+00  0.0000000000000000e+00 0.0000000000000000e+00 0.0000000000000000e+00  0.0000000000000000e+00 0.0000000000000000e+00 0.0000000000000000e+00  0.0000000000000000e+00 0.0000000000000000e+00 0.0000000000000000e+00  0.0000000000000000e+00 0.0000000000000000e+00 0.0000000000000000e+00  0.0000000000000000e+00 0.0000000000000000e+00 0.0000000000000000e+00  0.0000000000000000e+00 0.0000000000000000e+00 0.0000000000000000e+00  0.0000000000000000e+00 0.0000000000000000e+00 0.0000000000000000e+00  0.0000000000000000e+00 0.0000000000000000e+00 0.0000000000000000e+00  0.0000000000000000e+00 0.0000000000000000e+00 0.0000000000000000e+00  0.0000000000000000e+00 0.0000000000000000e+00 0.0000000000000000e+00  0.0000000000000000e+00 0.0000000000000000e+00 0.0000000000000000e+00  0.0000000000000000e+00 0.0000000000000000e+00 0.0000000000000000e+00  0.0000000000000000e+00 0.0000000000000000e+00 0.0000000000000000e+00  0.0000000000000000e+00 0.0000000000000000e+00 0.0000000000000000e+00  0.0000000000000000e+00 0.0000000000000000e+00 0.0000000000000000e+00  0.0000000000000000e+00 0.0000000000000000e+00 0.0000000000000000e+00  0.0000000000000000e+00 0.0000000000000000e+00 0.0000000000000000e+00  0.0000000000000000e+00 0.0000000000000000e+00 0.0000000000000000e+00  0.0000000000000000e+00 0.0000000000000000e+00 0.0000000000000000e+00  0.0000000000000000e+00 0.0000000000000000e+00 0.0000000000000000e+00  0.0000000000000000e+00 0.0000000000000000e+00 0.0000000000000000e+00  0.0000000000000000e+00 0.0000000000000000e+00 0.0000000000000000e+00  0.0000000000000000e+00 0.0000000000000000e+00 0.0000000000000000e+00  0.0000000000000000e+00 0.0000000000000000e+00 0.0000000000000000e+00  0.0000000000000000e+00 0.0000000000000000e+00 0.0000000000000000e+00  0.0000000000000000e+00 0.0000000000000000e+00 0.0000000000000000e+00  0.0000000000000000e+00 0.0000000000000000e+00 0.0000000000000000e+00  0.0000000000000000e+00 0.0000000000000000e+00 0.0000000000000000e+00  0.0000000000000000e+00 0.0000000000000000e+00 0.0000000000000000e+00  0.0000000000000000e+00 0.0000000000000000e+00 0.0000000000000000e+00  0.0000000000000000e+00 0.0000000000000000e+00 0.0000000000000000e+00  0.0000000000000000e+00 0.0000000000000000e+00 0.0000000000000000e+00  0.0000000000000000e+00 0.0000000000000000e+00 0.0000000000000000e+00  0.0000000000000000e+00 0.0000000000000000e+00 0.0000000000000000e+00  0.0000000000000000e+00 0.0000000000000000e+00 0.0000000000000000e+00  0.0000000000000000e+00 0.0000000000000000e+00 0.0000000000000000e+00  0.0000000000000000e+00 0.0000000000000000e+00 0.0000000000000000e+00  0.0000000000000000e+00 0.0000000000000000e+00 0.0000000000000000e+00  0.0000000000000000e+00 0.0000000000000000e+00 0.0000000000000000e+00  0.0000000000000000e+00 0.0000000000000000e+00 0.0000000000000000e+00  0.0000000000000000e+00 0.0000000000000000e+00 0.0000000000000000e+00  0.0000000000000000e+00 0.0000000000000000e+00 0.0000000000000000e+00  0.0000000000000000e+00 0.0000000000000000e+00 0.0000000000000000e+00  0.0000000000000000e+00 0.0000000000000000e+00 0.0000000000000000e+00  0.0000000000000000e+00 0.0000000000000000e+00 0.0000000000000000e+00  0.0000000000000000e+00 0.0000000000000000e+00 0.0000000000000000e+00  0.0000000000000000e+00 0.0000000000000000e+00 0.0000000000000000e+00  0.0000000000000000e+00 0.0000000000000000e+00 0.0000000000000000e+00  0.0000000000000000e+00 0.0000000000000000e+00 0.0000000000000000e+00  0.0000000000000000e+00 0.0000000000000000e+00 0.0000000000000000e+00  0.0000000000000000e+00 0.0000000000000000e+00 0.0000000000000000e+00  0.0000000000000000e+00 0.0000000000000000e+00 0.0000000000000000e+00  0.0000000000000000e+00 0.0000000000000000e+00 0.0000000000000000e+00  0.0000000000000000e+00 0.0000000000000000e+00 0.0000000000000000e+00  0.0000000000000000e+00 0.0000000000000000e+00 0.0000000000000000e+00  0.0000000000000000e+00 0.0000000000000000e+00 0.0000000000000000e+00  0.0000000000000000e+00 0.0000000000000000e+00 0.0000000000000000e+00  0.0000000000000000e+00 0.0000000000000000e+00 0.0000000000000000e+00  0.0000000000000000e+00 0.0000000000000000e+00 0.0000000000000000e+00  0.0000000000000000e+00 0.0000000000000000e+00 0.0000000000000000e+00  0.0000000000000000e+00 0.0000000000000000e+00 0.0000000000000000e+00  0.0000000000000000e+00 0.0000000000000000e+00 0.0000000000000000e+00  0.0000000000000000e+00 0.0000000000000000e+00 0.0000000000000000e+00  0.0000000000000000e+00 0.0000000000000000e+00 0.0000000000000000e+00  0.0000000000000000e+00 0.0000000000000000e+00 0.0000000000000000e+00  0.0000000000000000e+00 0.0000000000000000e+00 0.0000000000000000e+00  0.0000000000000000e+00 0.0000000000000000e+00 0.0000000000000000e+00  0.00