<?xml version="1.0"?>
<VTKFile type="UnstructuredGrid"  version="0.1"  >
<UnstructuredGrid>
<Piece  NumberOfPoints="8545" NumberOfCells="16538">
<Points>
<DataArray  type="Float64"  NumberOfComponents="3"  format="ascii">0 0 0  2 0 0  2 0.2 0  0 0.2 0  0.007999999999984813 0 0  0.01599999999996964 0 0  0.02399999999995461 0 0  0.03199999999993959 0 0  0.03999999999992457 0 0  0.04799999999990945 0 0  0.05599999999989373 0 0  0.06399999999987775 0 0  0.07199999999986065 0 0  0.07999999999984338 0 0  0.08799999999982558 0 0  0.09599999999980778 0 0  0.10399999999979 0 0  0.1119999999997726 0 0  0.1199999999997562 0 0  0.1279999999997408 0 0  0.1359999999997272 0 0  0.1439999999997141 0 0  0.1519999999997019 0 0  0.1599999999996896 0 0  0.1679999999996774 0 0  0.1759999999996651 0 0  0.1839999999996529 0 0  0.1919999999996407 0 0  0.1999999999996284 0 0  0.2079999999996162 0 0  0.2159999999996039 0 0  0.2239999999995916 0 0  0.2319999999995794 0 0  0.2399999999995652 0 0  0.2479999999995501 0 0  0.2559999999995309 0 0  0.2639999999995103 0 0  0.2719999999994875 0 0  0.2799999999994642 0 0  0.2879999999994408 0 0  0.2959999999994175 0 0  0.3039999999993941 0 0  0.3119999999993708 0 0  0.3199999999993474 0 0  0.3279999999993241 0 0  0.3359999999993007 0 0  0.3439999999992774 0 0  0.351999999999254 0 0  0.3599999999992307 0 0  0.3679999999992074 0 0  0.375999999999184 0 0  0.3839999999991606 0 0  0.3919999999991373 0 0  0.3999999999991139 0 0  0.4079999999990906 0 0  0.4159999999990672 0 0  0.4239999999990439 0 0  0.4319999999990204 0 0  0.4399999999989971 0 0  0.4479999999989738 0 0  0.4559999999989504 0 0  0.463999999998927 0 0  0.4719999999989037 0 0  0.4799999999988804 0 0  0.487999999998857 0 0  0.4959999999988337 0 0  0.5039999999988103 0 0  0.511999999998787 0 0  0.5199999999987636 0 0  0.5279999999987403 0 0  0.5359999999987169 0 0  0.5439999999986936 0 0  0.5519999999986703 0 0  0.559999999998647 0 0  0.5679999999986237 0 0  0.5759999999986004 0 0  0.583999999998577 0 0  0.5919999999985537 0 0  0.5999999999985304 0 0  0.6079999999985071 0 0  0.6159999999984838 0 0  0.6239999999984605 0 0  0.6319999999984371 0 0  0.6399999999984138 0 0  0.6479999999983904 0 0  0.6559999999983671 0 0  0.6639999999983438 0 0  0.6719999999983205 0 0  0.6799999999982972 0 0  0.6879999999982739 0 0  0.6959999999982506 0 0  0.7039999999982272 0 0  0.7119999999982038 0 0  0.7199999999981805 0 0  0.7279999999981572 0 0  0.7359999999981339 0 0  0.7439999999981106 0 0  0.7519999999980873 0 0  0.759999999998064 0 0  0.7679999999980406 0 0  0.7759999999980173 0 0  0.783999999997994 0 0  0.7919999999979707 0 0  0.7999999999979474 0 0  0.807999999997924 0 0  0.8159999999979007 0 0  0.8239999999978773 0 0  0.831999999997854 0 0  0.8399999999978307 0 0  0.8479999999978074 0 0  0.855999999997784 0 0  0.8639999999977607 0 0  0.8719999999977374 0 0  0.8799999999977141 0 0  0.8879999999976906 0 0  0.8959999999976673 0 0  0.903999999997644 0 0  0.9119999999976207 0 0  0.9199999999975974 0 0  0.9279999999975741 0 0  0.9359999999975508 0 0  0.9439999999975274 0 0  0.9519999999975041 0 0  0.9599999999974808 0 0  0.9679999999974574 0 0  0.9759999999974341 0 0  0.9839999999974108 0 0  0.9919999999973981 0 0  0.9999999999973858 0 0  1.007999999997396 0 0  1.015999999997406 0 0  1.023999999997427 0 0  1.031999999997449 0 0  1.039999999997469 0 0  1.04799999999749 0 0  1.055999999997512 0 0  1.063999999997533 0 0  1.071999999997554 0 0  1.079999999997575 0 0  1.087999999997596 0 0  1.095999999997617 0 0  1.103999999997638 0 0  1.111999999997659 0 0  1.11999999999768 0 0  1.127999999997702 0 0  1.135999999997722 0 0  1.143999999997744 0 0  1.151999999997765 0 0  1.159999999997786 0 0  1.167999999997807 0 0  1.175999999997828 0 0  1.183999999997849 0 0  1.19199999999787 0 0  1.199999999997891 0 0  1.207999999997912 0 0  1.215999999997933 0 0  1.223999999997955 0 0  1.231999999997976 0 0  1.239999999997997 0 0  1.247999999998018 0 0  1.255999999998039 0 0  1.26399999999806 0 0  1.271999999998081 0 0  1.279999999998102 0 0  1.287999999998123 0 0  1.295999999998144 0 0  1.303999999998166 0 0  1.311999999998186 0 0  1.319999999998208 0 0  1.327999999998229 0 0  1.33599999999825 0 0  1.343999999998271 0 0  1.351999999998292 0 0  1.359999999998313 0 0  1.367999999998334 0 0  1.375999999998355 0 0  1.383999999998376 0 0  1.391999999998397 0 0  1.399999999998418 0 0  1.40799999999844 0 0  1.41599999999846 0 0  1.423999999998482 0 0  1.431999999998503 0 0  1.439999999998524 0 0  1.447999999998545 0 0  1.455999999998566 0 0  1.463999999998587 0 0  1.471999999998608 0 0  1.479999999998629 0 0  1.48799999999865 0 0  1.495999999998672 0 0  1.503999999998693 0 0  1.511999999998714 0 0  1.519999999998735 0 0  1.527999999998756 0 0  1.535999999998777 0 0  1.543999999998798 0 0  1.551999999998819 0 0  1.55999999999884 0 0  1.567999999998861 0 0  1.575999999998882 0 0  1.583999999998904 0 0  1.591999999998924 0 0  1.599999999998946 0 0  1.607999999998967 0 0  1.615999999998988 0 0  1.623999999999009 0 0  1.63199999999903 0 0  1.639999999999051 0 0  1.647999999999072 0 0  1.655999999999093 0 0  1.663999999999114 0 0  1.671999999999136 0 0  1.679999999999157 0 0  1.687999999999177 0 0  1.695999999999199 0 0  1.70399999999922 0 0  1.711999999999241 0 0  1.719999999999262 0 0  1.727999999999283 0 0  1.735999999999304 0 0  1.743999999999325 0 0  1.751999999999346 0 0  1.759999999999367 0 0  1.767999999999389 0 0  1.775999999999409 0 0  1.783999999999431 0 0  1.791999999999452 0 0  1.799999999999473 0 0  1.807999999999494 0 0  1.815999999999515 0 0  1.823999999999536 0 0  1.831999999999557 0 0  1.839999999999578 0 0  1.847999999999599 0 0  1.85599999999962 0 0  1.863999999999641 0 0  1.871999999999663 0 0  1.879999999999684 0 0  1.887999999999705 0 0  1.895999999999726 0 0  1.903999999999747 0 0  1.911999999999768 0 0  1.919999999999789 0 0  1.92799999999981 0 0  1.935999999999831 0 0  1.943999999999853 0 0  1.951999999999873 0 0  1.959999999999895 0 0  1.967999999999916 0 0  1.975999999999937 0 0  1.983999999999958 0 0  1.991999999999979 0 0  2 0.007999999999985056 0  2 0.01599999999997076 0  2 0.02399999999995914 0  2 0.03199999999993772 0  2 0.03999999999991205 0  2 0.04799999999988908 0  2 0.05599999999986612 0  2 0.06399999999984315 0  2 0.07199999999982019 0  2 0.07999999999979179 0  2 0.08799999999976883 0  2 0.09599999999974587 0  2 0.1039999999997452 0  2 0.1119999999997669 0  2 0.1199999999997886 0  2 0.1279999999998103 0  2 0.135999999999832 0  2 0.1439999999998537 0  2 0.1519999999998738 0  2 0.1599999999998949 0  2 0.1679999999999159 0  2 0.175999999999937 0  2 0.183999999999958 0  2 0.191999999999979 0  1.991999999999967 0.2 0  1.983999999999933 0.2 0  1.9759999999999 0.2 0  1.967999999999867 0.2 0  1.959999999999834 0.2 0  1.9519999999998 0.2 0  1.943999999999767 0.2 0  1.935999999999734 0.2 0  1.9279999999997 0.2 0  1.919999999999667 0.2 0  1.911999999999634 0.2 0  1.9039999999996 0.2 0  1.895999999999567 0.2 0  1.887999999999534 0.2 0  1.879999999999501 0.2 0  1.871999999999467 0.2 0  1.863999999999434 0.2 0  1.855999999999401 0.2 0  1.847999999999367 0.2 0  1.839999999999334 0.2 0  1.831999999999301 0.2 0  1.823999999999268 0.2 0  1.815999999999234 0.2 0  1.807999999999201 0.2 0  1.799999999999168 0.2 0  1.791999999999135 0.2 0  1.783999999999101 0.2 0  1.775999999999068 0.2 0  1.767999999999035 0.2 0  1.759999999999017 0.2 0  1.751999999999006 0.2 0  1.743999999999028 0.2 0  1.735999999999061 0.2 0  1.727999999999112 0.2 0  1.719999999999168 0.2 0  1.711999999999223 0.2 0  1.703999999999279 0.2 0  1.695999999999334 0.2 0  1.68799999999939 0.2 0  1.679999999999446 0.2 0  1.671999999999501 0.2 0  1.663999999999557 0.2 0  1.655999999999612 0.2 0  1.647999999999668 0.2 0  1.639999999999723 0.2 0  1.631999999999779 0.2 0  1.623999999999834 0.2 0  1.61599999999989 0.2 0  1.607999999999945 0.2 0  1.600000000000001 0.2 0  1.592000000000056 0.2 0  1.584000000000112 0.2 0  1.576000000000167 0.2 0  1.568000000000223 0.2 0  1.560000000000279 0.2 0  1.552000000000334 0.2 0  1.54400000000039 0.2 0  1.536000000000445 0.2 0  1.528000000000501 0.2 0  1.520000000000556 0.2 0  1.512000000000612 0.2 0  1.504000000000667 0.2 0  1.496000000000723 0.2 0  1.488000000000778 0.2 0  1.480000000000834 0.2 0  1.472000000000889 0.2 0  1.464000000000945 0.2 0  1.456000000001 0.2 0  1.448000000001056 0.2 0  1.440000000001112 0.2 0  1.432000000001167 0.2 0  1.424000000001223 0.2 0  1.416000000001278 0.2 0  1.408000000001334 0.2 0  1.400000000001389 0.2 0  1.392000000001445 0.2 0  1.3840000000015 0.2 0  1.376000000001556 0.2 0  1.368000000001611 0.2 0  1.360000000001667 0.2 0  1.352000000001722 0.2 0  1.344000000001778 0.2 0  1.336000000001833 0.2 0  1.328000000001889 0.2 0  1.320000000001944 0.2 0  1.312000000002 0.2 0  1.304000000002055 0.2 0  1.296000000002111 0.2 0  1.288000000002166 0.2 0  1.280000000002222 0.2 0  1.272000000002277 0.2 0  1.264000000002333 0.2 0  1.256000000002388 0.2 0  1.248000000002444 0.2 0  1.240000000002499 0.2 0  1.232000000002555 0.2 0  1.22400000000261 0.2 0  1.216000000002666 0.2 0  1.208000000002721 0.2 0  1.200000000002777 0.2 0  1.192000000002832 0.2 0  1.184000000002888 0.2 0  1.176000000002943 0.2 0  1.168000000002999 0.2 0  1.160000000003054 0.2 0  1.15200000000311 0.2 0  1.144000000003165 0.2 0  1.136000000003221 0.2 0  1.128000000003276 0.2 0  1.120000000003332 0.2 0  1.112000000003387 0.2 0  1.104000000003443 0.2 0  1.096000000003498 0.2 0  1.088000000003554 0.2 0  1.080000000003609 0.2 0  1.072000000003665 0.2 0  1.06400000000372 0.2 0  1.056000000003776 0.2 0  1.048000000003831 0.2 0  1.040000000003887 0.2 0  1.032000000003942 0.2 0  1.024000000003998 0.2 0  1.016000000004053 0.2 0  1.008000000004088 0.2 0  1.000000000004121 0.2 0  0.99200000000411 0.2 0  0.984000000004098 0.2 0  0.9760000000040647 0.2 0  0.9680000000040314 0.2 0  0.9600000000039981 0.2 0  0.9520000000039648 0.2 0  0.9440000000039312 0.2 0  0.9360000000038982 0.2 0  0.928000000003864
[...]
<PointData  Scalars="pressure"> 
<DataArray  type="Float64"  Name="pressure"  format="ascii">3.1645152525669511e-02  4.5117011817301531e-07  4.4182068363979237e-07  3.1645225473272441e-02  3.1519012653569212e-02  3.1392533394181028e-02  3.1265708215293619e-02  3.1139537182470940e-02  3.1012502091696832e-02  3.0885987797467800e-02  3.0759424626003919e-02  3.0633171474070853e-02  3.0506352434049009e-02  3.0379703473688586e-02  3.0253187465034352e-02  3.0126491087417027e-02  3.0000106079624653e-02  2.9873255496690735e-02  2.9746905411441350e-02  2.9620245951828373e-02  2.9493647610741341e-02  2.9367081537458248e-02  2.9240682159716199e-02  2.9113876715826291e-02  2.8987101023754961e-02  2.8860962862313978e-02  2.8734084420675897e-02  2.8607717115831963e-02  2.8480958415626260e-02  2.8354378603472487e-02  2.8227713965194551e-02  2.8101495747045003e-02  2.7974647132783959e-02  2.7847994333495357e-02  2.7721611806134513e-02  2.7594865288752476e-02  2.7468451015557699e-02  2.7342119080190314e-02  2.7214701523730060e-02  2.7088729975941798e-02  2.6961861985657514e-02  2.6835882333177293e-02  2.6708729613938578e-02  2.6582150496817475e-02  2.6455695447892353e-02  2.6329285408999859e-02  2.6202549859828259e-02  2.6076121933486900e-02  2.5949108693245827e-02  2.5822876886542011e-02  2.5696101688599409e-02  2.5569648573509060e-02  2.5443159385892321e-02  2.5316310644878333e-02  2.5189910868947049e-02  2.5063262968339578e-02  2.4936791442776666e-02  2.4809979940940821e-02  2.4683646232798923e-02  2.4556837590054677e-02  2.4430515102497895e-02  2.4303910023879837e-02  2.4177348047367955e-02  2.4050272732404933e-02  2.3924260871617736e-02  2.3797553943652006e-02  2.3670749945510196e-02  2.3544340978825743e-02  2.3417693929251804e-02  2.3291221314884900e-02  2.3164409866375104e-02  2.3038112077973610e-02  2.2911225881188602e-02  2.2784953450406955e-02  2.2658306399274221e-02  2.2531844086440964e-02  2.2404693767524943e-02  2.2278696355875333e-02  2.2151981539546863e-02  2.2025179440581605e-02  2.1898770799708114e-02  2.1772123475732701e-02  2.1645651919010283e-02  2.1518840486949874e-02  2.1392506808070130e-02  2.1265698193235240e-02  2.1139375725438430e-02  2.1012770661406218e-02  2.0886208696203237e-02  2.0759133389930746e-02  2.0633121535350255e-02  2.0506414608646509e-02  2.0379610604024351e-02  2.0253201671354248e-02  2.0126554123797272e-02  2.0000082467407899e-02  1.9873270969318683e-02  1.9746937544149294e-02  1.9620127753116327e-02  1.9493812054287928e-02  1.9367181241536472e-02  1.9240661370508488e-02  1.9113568240988268e-02  1.8987536643555045e-02  1.8860850281699915e-02  1.8734086589128594e-02  1.8607714877565507e-02  1.8480843147485850e-02  1.8354492245045744e-02  1.8227861147847291e-02  1.8101041066876961e-02  1.7974830442671227e-02  1.7848132243260730e-02  1.7721649964282611e-02  1.7594670311995412e-02  1.7468576159051459e-02  1.7341874477318487e-02  1.7214860448770571e-02  1.7089031206956363e-02  1.6961735604073418e-02  1.6835357849524658e-02  1.6709198609423409e-02  1.6582232283333866e-02  1.6455616062275025e-02  1.6329425312648620e-02  1.6202294704431117e-02  1.6076060750055316e-02  1.5949372189725624e-02  1.5822728514404683e-02  1.5696182319238312e-02  1.5569768331571535e-02  1.5442960228617457e-02  1.5316515780580416e-02  1.5189704886059599e-02  1.5063483491880197e-02  1.4936593176216059e-02  1.4810294162545720e-02  1.4683416545306029e-02  1.4556851403736389e-02  1.4430642207954375e-02  1.4303669556202794e-02  1.4177183432896643e-02  1.4050502136481390e-02  1.3924282838261845e-02  1.3797436507970429e-02  1.3670733436648036e-02  1.3544745596341440e-02  1.3417460198706026e-02  1.3291189693489226e-02  1.3164472577179804e-02  1.3037792333931141e-02  1.2911732863653507e-02  1.2784644623341326e-02  1.2658159150437522e-02  1.2531455150135866e-02  1.2405288512054769e-02  1.2278305355792636e-02  1.2151972243539569e-02  1.2025306199501231e-02  1.1898773337002818e-02  1.1772111266506582e-02  1.1645707081407481e-02  1.1518899194367637e-02  1.1392207034777295e-02  1.1266171289539571e-02  1.1139067666433531e-02  1.1012591082955436e-02  1.0885884743846410e-02  1.0759717181201193e-02  1.0632735352477116e-02  1.0506388632823552e-02  1.0379731241336560e-02  1.0253212210233851e-02  1.0126542761411519e-02  1.0000179074402803e-02  9.8733208000277677e-03  9.7466397424964962e-03  9.6205914536653270e-03  9.4934979130307639e-03  9.3670254558989516e-03  9.2403135466636067e-03  9.1141484772050817e-03  8.9871658952675095e-03  8.8608142841925773e-03  8.7341607824970684e-03  8.6076430953875276e-03  8.4809726863006585e-03  8.3546093546877573e-03  8.2277507564599162e-03  8.1010699504529392e-03  7.9750231551053812e-03  7.8479265317506139e-03  7.7214571195474624e-03  7.5947417080914929e-03  7.4685774311214377e-03  7.3415990475544047e-03  7.2152597188547066e-03  7.0885963116157757e-03  6.9620634135538579e-03  6.8354018950554200e-03  6.7089978013613249e-03  6.5821901874946586e-03  6.4554963598221302e-03  6.3294644438923828e-03  6.2023527981979621e-03  6.0758852927681895e-03  5.9491585442439359e-03  5.8229379446400791e-03  5.6963864312252026e-03  5.5694505292082338e-03  5.4430618298722620e-03  5.3162050611639195e-03  5.1900891460655478e-03  5.0633572080852817e-03  4.9367582195328158e-03  4.8098961076105942e-03  4.6834946017017317e-03  4.5570963730567652e-03  4.4303771719545262e-03  4.3039214943947635e-03  4.1770464387730450e-03  4.0508645606299612e-03  3.9239461254920510e-03  3.7975522436987162e-03  3.6707733266039076e-03  3.5443137867078780e-03  3.4178479956724051e-03  3.2911812211486990e-03  3.1645737254397243e-03  3.0378335162940247e-03  2.9112631704563737e-03  2.7850260877476741e-03  2.6581736910437489e-03  2.5315431420504025e-03  2.4054511244237338e-03  2.2782001394778717e-03  2.1523047087058287e-03  2.0249480074049529e-03  1.8986283551039710e-03  1.7723959555828038e-03  1.6455853771073204e-03  1.5192389047321406e-03  1.3919784986757536e-03  1.2660978861819615e-03  1.1391788024243408e-03  1.0123699406933352e-03  8.8625138037694870e-04  7.5956497909599786e-04  6.3311000111660311e-04  5.0595342553942766e-04  3.8000767295375936e-04  2.5288130508194164e-04  1.2657904766274605e-04  1.3746143273588820e-08  7.3393273362151331e-08  -1.3380576850766609e-08  5.5743109254567512e-09  -2.4948262675519857e-08  -8.2973415276437485e-09  -5.9618457731269677e-09  -8.3482086989049866e-09  -1.3829981947441423e-09  -1.4578741113176823e-09  -6.2684497061094411e-10  -1.3949180696643267e-10  -1.9579727602675365e-10  1.6544563571589786e-10  -2.0974069898202228e-10  -1.8899236283308073e-11  -2.4893104557991173e-09  -4.1060790369318947e-09  -2.0481666686372959e-08  -2.7771095205240369e-08  7.3626173951085303e-09  -2.7404807765587862e-08  6.9996430262373112e-08  1.3828173537358577e-08  1.2658485913064635e-04  2.5300499053636640e-04  3.7990280771310820e-04  5.0600494592314472e-04  6.3308224550040297e-04  7.5955867995297556e-04  8.8625944863417617e-04  1.0123676989397703e-03  1.1391818722741543e-03  1.2660976158382809e-03  1.3919368934012654e-03  1.5191989054099038e-03  1.6456374368346021e-03  1.7723872085421860e-03  1.8986288678060632e-03  2.0248989106639611e-03  2.1523274869809797e-03  2.2782145359556342e-03  2.4054530082130324e-03  2.5313807750688049e-03  2.6582238533594338e-03  2.7850825855263669e-03  2.9112371890943202e-03  3.0378452450976613e-03  3.1645524016204497e-03  3.2911902938051220e-03  3.4178422171399652e-03  3.5443088282298570e-03  3.6707709034214816e-03  3.7975514804300271e-03  3.9239341368009660e-03  4.0508634682588605e-03  4.1770444197437731e-03  4.3039235063612388e-03  4.4303996700968511e-03  4.5570781109679952e-03  4.6834637962575639e-03  4.8099354567360956e-03  4.9367539844960076e-03  5.0633510600822853e-03  5.1900813918069914e-03  5.3162543935707952e-03  5.4430265672620274e-03  5.5694541519733095e-03  5.6963821232163224e-03  5.8229517642035830e-03  5.9491447286215589e-03  6.0758877976710840e-03  6.2024002455856111e-03  6.3294478721119627e-03  6.4555055034959622e-03  6.5821840489040150e-03  6.7089919580903302e-03  6.8354082304383917e-03  6.9620552060011363e-03  7.0885252694978052e-03  7.2153404000774900e-03  7.3416734533178450e-03  7.4685058328030169e-03  7.5947725640077551e-03  7.7214539781150591e-03  7.8479146018230021e-03  7.9750262884412341e-03  8.1010650109983023e-03  8.2277595042479189e-03  8.3545794834913208e-03  8.4809786076623876e-03  8.6076175970794012e-03  8.7340973879283176e-03  8.8609117732683425e-03  8.9872427201254986e-03  9.1140733406180636e-03  9.2403363130267591e-03  9.3670187818679345e-03  9.4934945083195044e-03  9.6205924204890714e-03  9.7466358922833965e-03  9.8733283457755824e-03  1.0000149453827014e-02  1.0126548162334228e-02  1.0253187486476665e-02  1.0379666207087168e-02  1.0506481214092027e-02  1.0632814633815772e-02  1.0759641525107291e-02  1.0885916080979000e-02  1.1012591005351922e-02  1.1139077275554434e-02  1.1266167694735480e-02  1.1392212776961798e-02  1.1518894927081745e-02  1.1645700966816264e-02  1.1772117560261215e-02  1.1898764561961787e-02  1.2025234646089497e-02  1.2152049630881569e-02  1.2278382610269842e-02  1.2405215228268703e-02  1.2531482181133197e-02  1.2658163276652049e-02  1.2784624482081869e-02  1.2911737987906900e-02  1.3037767397318092e-02  1.3164471565637463e-02  1.3291282582941455e-02  1.3417683922329090e-02  1.3544328776785035e-02  1.3670807233414170e-02  1.3797620762066799e-02  1.3923951274222761e-02  1.4050782735248336e-02  1.4177042595560765e-02  1.4303730165401414e-02  1.4430359731984074e-02  1.4557046321022097e-02  1.4683358842257325e-02  1.4810460705459525e-02  1.4936411369942140e-02  1.5063542097359149e-02  1.5189972547631964e-02  1.5316065346300971e-02  1.5443317962217392e-02  1.5569353696676568e-02  1.5696214769790801e-02  1.5822967391350841e-02  1.5949454119247929e-02  1.6075865220581999e-02  1.6202375807861723e-02  1.6329106531165465e-02  1.6455785187389282e-02  1.6582393381615990e-02  1.6708660027568024e-02  1.6835414663869751e-02  1.6961883075996512e-02  1.7088863649828676e-02  1.7214884419665781e-02  1.7341946412658446e-02  1.7468265339127712e-02  1.7594927917430902e-02  1.7721573375425150e-02  1.7848292316323813e-02  1.7974543094003478e-02  1.8101370899647719e-02  1.8227699779095784e-02  1.8354508980920458e-02  1.8480992429999663e-02  1.8607630026456490e-02  1.8734036807497453e-02  1.8860838695787252e-02  1.8987564727613274e-02  1.9113577108589009e-02  1.9240650676083854e-02  1.9367147860502563e-02  1.9493852383729214e-02  1.9620033268690541e-02  1.9747014127281363e-02  1.9873353941652121e-02  2.0000013007021176e-02  2.0126543003477243e-02  2.0253205834333481e-02  2.0379608930222216e-02  2.0506407753336363e-02  2.0633135177321769e-02  2.0759149366529124e-02  2.0886212480436987e-02  2.1012712844690886e-02  2.1139432839637155e-02  2.1265600214556646e-02  2.1392584020168675e-02  2.1518923956991506e-02  2.1645582779817620e-02  2.1772112426315542e-02  2.1898777214900127e-02  2.2025168266197850e-02  2.2151981777708090e-02  2.2278698206158156e-02  2.2404716694110843e-02  2.2531804383829540e-02  2.2658284215815984e-02  2.2784992011607968e-02  2.2911245376195547e-02  2.3038080935096846e-02  2.3164410777522484e-02  2.3291219042326363e-02  2.3417695660266299e-02  2.3544340691573868e-02  2.3670748887428303e-02  2.3797553880329989e-02  2.3924263575863025e-02  2.4050288326172942e-02  2.4177358232936947e-02  2.4303859623103167e-02  2.4430561552259873e-02  2.4556744374622384e-02  2.4683723543088038e-02  2.4810063233667131e-02  2.4936723303085103e-02  2.5063241437178890e-02  2.5189919508121657e-02  2.5316316015155882e-02  2.5443116356261689e-02  2.5569841871257441e-02  2.5695859282553867e-02  2.5822921653601463e-02  2.5949422235017720e-02  2.6076157679611058e-02  2.6202394322896731e-02  2.6328926350086226e-02  2.6455852214313909e-02  2.6582281858046265e-02  2.6709071060491370e-02  2.6835253991719248e-02  2.6961961734917158e-02  2.7088624479867263e-02  2.7215300641432117e-02  2.7341591466992096e-02  2.7468678587882402e-02  2.7594723225352395e-02  2.7721612492245147e-02  2.7848067842335768e-02  2.7974658912049984e-02  2.8101092719696977e-02  2.8227990369702312e-02  2.8354649562469119e-02  2.8480947021758397e-02  2.8607506078621534e-02  2.8734206787890369e-02  2.8860921167657507e-02  2.8987132477535930e-02  2.9114088329951920e-02  2.9240419834931648e-02  2.9367170660012848e-02  2.9493271353948303e-02  2.9620492157032878e-02  2.9746843557912534e-02  2.9873392656127540e-02  3.0000276446838180e-02  3.0126415960974932e-02  3.0253245981042117e-02  3.0379355134581443e-02  3.0506628310998495e-02  3.0632985176278018e-02  3.0759445751409740e-02  3.0885869254442908e-02  3.1012897987534226e-02  3.1139185677154329e-02  3.1265932946338296e-02  3.1392535109573259e-02  3.1518883008623384e-02  3.1645532654286386e-02  3.1645516471711141e-02  3.1645608065045815e-02  3.1645567132705651e-02  3.1645595542731629e-02  3.1645592625323099e-02  3.1645570372705691e-02  3.1645565153637673e-02  3.1645568888521096e-02  3.1645570521963783e-02  3.1645569470035426e-02  3.1645570435472704e-02  3.1645569382459784e-02  3.1645568841702637e-02  3.1645571712498821e-02  3.1645572660021541e-02  3.1645579952557915e-02  3.1645583025385955e-02  3.1645577693868263e-02  3.1645580047385401e-02  3.1645568333576846e-02  3.1645594693392010e-02  3.1645513940731188e-02  3.1645547643470953e-02  4.7496718116992586e-03  6.3924056630620786e-03  8.0573418015167948e-03  9.6803922753099757e-03  1.1329114925432064e-02  1.2974684828354890e-02  1.4612599126871418e-02  2.7283458431677413e-02  2.5631236368816285e-02  2.9936710133807120e-02  2.3985666642790126e-02  2.2342936266919418e-02  2.0694527544016149e-02  1.9059206102202252e-02  1.7405065057681541e-02  1.5905236898795464e-03  3.1645573768670902e-03  1.6018137231640323e-02  2.8605282665658677e-02  5.5653270121308910e-03  7.2142297261380411e-03  8.8598135849296995e-03  1.0506320616084006e-02  1.2153548350628530e-02  1.3797467902753453e-02  2.6462461528656275e-02  2.4789763962290805e-02  2.3144194346676989e-02  2.1498624415618194e-02  1.9853054372766014e-02  1.8236065349765015e-02  1.3784648847961708e-02  1.2169057274850912e-02  1.0508210154030475e-02  1.8227845268004011e-02  1.9867657019176348e-02  8.8627820630745088e-03  7.2353597798598436e-03  2.1514651023831148e-02  2.3164559088323395e-02  2.4811462524486752e-02  5.5716430157413885e-03  2.6476362647796056e-02  2.3873203841139378e-03  2.3653814176492543e-03  3.9304948387284310e-03  3.9788163822394359e-03  2.9165262308714270e-02  2.8057244177886628e-02  1.5397145342944701e-02  1.6620194218427857e-02  3.0678558093577415e-02  3.0680382087614019e-02  9.0317508156739106e-04  9.2653750628158996e-04  1.6782110004946414e-02  1.5241500698345900e-02  2.9373345555347832e-02  2.7820487797618101e-02  4.7467960494540296e-03  6.3924195886288426e-03  8.0421983070549392e-03  9.6964957228829907e-03  1.1329128919326636e-02  1.2974713956267564e-02  1.4620274560185326e-02  2.5602645864375204e-02  2.3957075783549036e-02  2.2311504736442170e-02  2.0665936463769206e-02  1.9050652449317265e-02  1.2947439120741564e-02  1.1302348124003341e-02  9.6626591430432635e-03  8.0107299879706197e-03  6.3656382889102567e-03  4.7517897626177296e-03  1.7387315256327432e-02  1.9050614881717647e-02  2.0719193530774123e-02  2.2364765972516184e-02  2.3987355891018830e-02  2.5655908794350563e-02  2.7269840976860554e-02  3.1276523569677360e-03  3.1295120199265358e-03  2.9920292256175908e-02  1.7526810208895228e-02  1.4515056420617872e-02  1.6587759100455566e-03  1.6587653321830942e-03  2.7135422141073950e-02  1.5896532953785042e-02  6.9316462549059423e-04  3.0030179026461035e-02  1.6015074289560487e-02  3.0970005948925888e-02  2.8750639495646775e-02  2.9291512164568032e-02  2.7936065251850835e-02  1.6658976428142916e-02  1.5269206350960567e-02  2.8612832084985249e-02  4.1285209538752280e-03  2.1984759949215645e-03  5.7785438186293246e-03  1.4008467727178614e-02  9.0696833806166392e-03  1.1942977149546497e-02  1.0715253118775287e-02  7.0043206355092759e-03  1.8021785390217610e-02  2.6665274303218134e-02  2.5008748538112895e-02  2.3354278929344635e-02  2.1722002928192399e-02  2.0078656606767706e-02  2.8619750848382502e-02  3.1083808528289358e-02  3.1081348601658565e-02  1.7912082845736196e-02  1.9568671888522345e-02  1.2455238034890952e-02  2.1215239247070260e-02  2.2859810969737392e-02  1.0827417309019181e-02  2.4506370983113073e-02  9.1826728246278463e-03  2.6151943818504522e-02  7.5453858777354832e-03  5.8775241267369511e-03  7.5181769174649579e-03  5.8897365850109915e-03  6.9138247582623512e-03  5.2365490315644334e-03  9.1808635020047703e-03  1.0826458274672079e-02  8.5292718272900834e-03  1.0174840339271072e-02  1.2452295802495177e-02  1.1850534148825018e-02  1.4117583399806634e-02  1.3465972588065893e-02  2.6123457862995192e-02  2.4474359154673948e-02  2.5111486710320586e-02  2.2828780282560007e-02  2.3465917166604539e-02  2.1183219805181563e-02  1.9537652867316464e-02  2.1820347395708112e-02  2.0174777840315232e-02  1.8548884675639820e-02  5.2617790402621481e-03  6.9070720002785821e-03  2.6776771424744814e-02  8.5413269022817130e-03  2.5118250688518261e-02  2.3465918207015792e-02  1.0186896879615782e-02  2.1836912015645152e-02  1.1833969244326266e-02  2.0181531245832874e-02  1.3476424317403399e-02  1.8556655690509034e-02  1.5924640104208059e-02  3.6308207254435940e-03  3.6318409599131588e-03  5.4231065875979373e-04  5.5036824507581541e-04  4.2639129709740927e-03  4.2639094849629576e-03  2.7764815338348094e-02  1.5103846769612145e-02  1.6927149422651437e-02  2.9436651861412824e-02  2.6602563798963064e-03  2.6695606713815667e-03  1.9563969766528338e-02  1.8555421178759680e-02  2.1212058535440489e-02  2.2857628202768720e-02  2.4484152241869280e-02  2.6129722438186970e-02  7.5386321496526132e-03  1.0184025289781141e-02  5.2480312248940576e-03  8.5502585068402727e-03  1.2475341154472398e-02  1.3496319227878126e-02  3.0443584328420373e-02  3.0375328961146818e-02  1.6416918843850770e-02  1.7991364962217156e-02  1.4021874365873150e-02  2.8243243439416723e-02  2.1219906299824870e-03  2.1250565721072853e-03  2.6659212540016550e-02  1.2628892164206578e-02  7.6921812065660960e-03  2.5962299818164246e-02  2.4316729602865881e-02  2.2677680558879025e-02  2.1025590315834092e-02  1.9361375254895976e-02  1.8714723590510619e-02  5.0936098717265961e-03  8.3837666614177131e-03  1.0028136006387710e-02  1.3320478073217085e-02  2.6825787829169814e-03  3.6303674203559287e-03  3.4784071365263239e-03  2.7595287989530936e-02  1.2135194566181826e-03  1.2153129743271358e-03  1.4928865103539562e-02  1.7073924392086562e-02  2.8356754989945750e-03  2.9609587544917729e-02  1.7079690644189918e-02  1.4945703072151671e-02  3.0228127138428103e-02  1.7735496491514312e-02  1.0989448723638584e-02  9.3436603267540545e-03  6.0527350854284161e-03  1.4276980079361306e-02  1.0956197701890309e-02  9.3114130037252607e-03  1.1658903483824777e-02  6.0194892262400400e-03  6.7337300859126974e-03  2.0352938675994556e-02  2.1998499010039002e-02  2.3644077862392435e-02  2.5289647660598335e-02  6.7204452192084138e-03  2.6911030131054836e-02  2.5289172222791558e-02  2.3635275707622565e-02  2.1998252844667165e-02  1.1669501658406533e-02  2.0350584411403982e-02  4.4376938695064767e-03  4.4244264345412489e-03  3.0499646804983998e-02  1.8549471668883957e-03  1.8879341681033517e-03  3.1131216231774242e-02  3.1156586019099947e-02  2.6946238628791613e-02  1.1372213873837339e-03  2.7547132886441103e-02  1.6291319918770794e-02  1.4364451484491296e-02  1.7726083740243724e-02  1.3930051040265932e-03  4.7540776742863188e-04  5.0314005554508785e-04  1.5469219055515545e-02  1.4821591512253618e-02  1.7217883525622341e-02  1.5578033326768624e-02  1.6449753475013387e-02  2.9625383411129209e-02  2.7433949185641505e-02  2.8277680092104962e-02  2.9131581937517942e-02  2.9748009651732812e-02  1.5592246920656524e-02  2.8962254330173645e-02  2.8220086902811744e-02  1.9434716184003709e-02  2.1084302814134929e-02  2.2729871500720235e-02  2.4374130522753619e-02  2.6018802370044194