<?xml version="1.0"?>
<VTKFile type="UnstructuredGrid"  version="0.1"  >
<UnstructuredGrid>
<Piece  NumberOfPoints="8545" NumberOfCells="16538">
<Points>
<DataArray  type="Float64"  NumberOfComponents="3"  format="ascii">0 0 0  2 0 0  2 0.2 0  0 0.2 0  0.007999999999984813 0 0  0.01599999999996964 0 0  0.02399999999995461 0 0  0.03199999999993959 0 0  0.03999999999992457 0 0  0.04799999999990945 0 0  0.05599999999989373 0 0  0.06399999999987775 0 0  0.07199999999986065 0 0  0.07999999999984338 0 0  0.08799999999982558 0 0  0.09599999999980778 0 0  0.10399999999979 0 0  0.1119999999997726 0 0  0.1199999999997562 0 0  0.1279999999997408 0 0  0.1359999999997272 0 0  0.1439999999997141 0 0  0.1519999999997019 0 0  0.1599999999996896 0 0  0.1679999999996774 0 0  0.1759999999996651 0 0  0.1839999999996529 0 0  0.1919999999996407 0 0  0.1999999999996284 0 0  0.2079999999996162 0 0  0.2159999999996039 0 0  0.2239999999995916 0 0  0.2319999999995794 0 0  0.2399999999995652 0 0  0.2479999999995501 0 0  0.2559999999995309 0 0  0.2639999999995103 0 0  0.2719999999994875 0 0  0.2799999999994642 0 0  0.2879999999994408 0 0  0.2959999999994175 0 0  0.3039999999993941 0 0  0.3119999999993708 0 0  0.3199999999993474 0 0  0.3279999999993241 0 0  0.3359999999993007 0 0  0.3439999999992774 0 0  0.351999999999254 0 0  0.3599999999992307 0 0  0.3679999999992074 0 0  0.375999999999184 0 0  0.3839999999991606 0 0  0.3919999999991373 0 0  0.3999999999991139 0 0  0.4079999999990906 0 0  0.4159999999990672 0 0  0.4239999999990439 0 0  0.4319999999990204 0 0  0.4399999999989971 0 0  0.4479999999989738 0 0  0.4559999999989504 0 0  0.463999999998927 0 0  0.4719999999989037 0 0  0.4799999999988804 0 0  0.487999999998857 0 0  0.4959999999988337 0 0  0.5039999999988103 0 0  0.511999999998787 0 0  0.5199999999987636 0 0  0.5279999999987403 0 0  0.5359999999987169 0 0  0.5439999999986936 0 0  0.5519999999986703 0 0  0.559999999998647 0 0  0.5679999999986237 0 0  0.5759999999986004 0 0  0.583999999998577 0 0  0.5919999999985537 0 0  0.5999999999985304 0 0  0.6079999999985071 0 0  0.6159999999984838 0 0  0.6239999999984605 0 0  0.6319999999984371 0 0  0.6399999999984138 0 0  0.6479999999983904 0 0  0.6559999999983671 0 0  0.6639999999983438 0 0  0.6719999999983205 0 0  0.6799999999982972 0 0  0.6879999999982739 0 0  0.6959999999982506 0 0  0.7039999999982272 0 0  0.7119999999982038 0 0  0.7199999999981805 0 0  0.7279999999981572 0 0  0.7359999999981339 0 0  0.7439999999981106 0 0  0.7519999999980873 0 0  0.759999999998064 0 0  0.7679999999980406 0 0  0.7759999999980173 0 0  0.783999999997994 0 0  0.7919999999979707 0 0  0.7999999999979474 0 0  0.807999999997924 0 0  0.8159999999979007 0 0  0.8239999999978773 0 0  0.831999999997854 0 0  0.8399999999978307 0 0  0.8479999999978074 0 0  0.855999999997784 0 0  0.8639999999977607 0 0  0.8719999999977374 0 0  0.8799999999977141 0 0  0.8879999999976906 0 0  0.8959999999976673 0 0  0.903999999997644 0 0  0.9119999999976207 0 0  0.9199999999975974 0 0  0.9279999999975741 0 0  0.9359999999975508 0 0  0.9439999999975274 0 0  0.9519999999975041 0 0  0.9599999999974808 0 0  0.9679999999974574 0 0  0.9759999999974341 0 0  0.9839999999974108 0 0  0.9919999999973981 0 0  0.9999999999973858 0 0  1.007999999997396 0 0  1.015999999997406 0 0  1.023999999997427 0 0  1.031999999997449 0 0  1.039999999997469 0 0  1.04799999999749 0 0  1.055999999997512 0 0  1.063999999997533 0 0  1.071999999997554 0 0  1.079999999997575 0 0  1.087999999997596 0 0  1.095999999997617 0 0  1.103999999997638 0 0  1.111999999997659 0 0  1.11999999999768 0 0  1.127999999997702 0 0  1.135999999997722 0 0  1.143999999997744 0 0  1.151999999997765 0 0  1.159999999997786 0 0  1.167999999997807 0 0  1.175999999997828 0 0  1.183999999997849 0 0  1.19199999999787 0 0  1.199999999997891 0 0  1.207999999997912 0 0  1.215999999997933 0 0  1.223999999997955 0 0  1.231999999997976 0 0  1.239999999997997 0 0  1.247999999998018 0 0  1.255999999998039 0 0  1.26399999999806 0 0  1.271999999998081 0 0  1.279999999998102 0 0  1.287999999998123 0 0  1.295999999998144 0 0  1.303999999998166 0 0  1.311999999998186 0 0  1.319999999998208 0 0  1.327999999998229 0 0  1.33599999999825 0 0  1.343999999998271 0 0  1.351999999998292 0 0  1.359999999998313 0 0  1.367999999998334 0 0  1.375999999998355 0 0  1.383999999998376 0 0  1.391999999998397 0 0  1.399999999998418 0 0  1.40799999999844 0 0  1.41599999999846 0 0  1.423999999998482 0 0  1.431999999998503 0 0  1.439999999998524 0 0  1.447999999998545 0 0  1.455999999998566 0 0  1.463999999998587 0 0  1.471999999998608 0 0  1.479999999998629 0 0  1.48799999999865 0 0  1.495999999998672 0 0  1.503999999998693 0 0  1.511999999998714 0 0  1.519999999998735 0 0  1.527999999998756 0 0  1.535999999998777 0 0  1.543999999998798 0 0  1.551999999998819 0 0  1.55999999999884 0 0  1.567999999998861 0 0  1.575999999998882 0 0  1.583999999998904 0 0  1.591999999998924 0 0  1.599999999998946 0 0  1.607999999998967 0 0  1.615999999998988 0 0  1.623999999999009 0 0  1.63199999999903 0 0  1.639999999999051 0 0  1.647999999999072 0 0  1.655999999999093 0 0  1.663999999999114 0 0  1.671999999999136 0 0  1.679999999999157 0 0  1.687999999999177 0 0  1.695999999999199 0 0  1.70399999999922 0 0  1.711999999999241 0 0  1.719999999999262 0 0  1.727999999999283 0 0  1.735999999999304 0 0  1.743999999999325 0 0  1.751999999999346 0 0  1.759999999999367 0 0  1.767999999999389 0 0  1.775999999999409 0 0  1.783999999999431 0 0  1.791999999999452 0 0  1.799999999999473 0 0  1.807999999999494 0 0  1.815999999999515 0 0  1.823999999999536 0 0  1.831999999999557 0 0  1.839999999999578 0 0  1.847999999999599 0 0  1.85599999999962 0 0  1.863999999999641 0 0  1.871999999999663 0 0  1.879999999999684 0 0  1.887999999999705 0 0  1.895999999999726 0 0  1.903999999999747 0 0  1.911999999999768 0 0  1.919999999999789 0 0  1.92799999999981 0 0  1.935999999999831 0 0  1.943999999999853 0 0  1.951999999999873 0 0  1.959999999999895 0 0  1.967999999999916 0 0  1.975999999999937 0 0  1.983999999999958 0 0  1.991999999999979 0 0  2 0.007999999999985056 0  2 0.01599999999997076 0  2 0.02399999999995914 0  2 0.03199999999993772 0  2 0.03999999999991205 0  2 0.04799999999988908 0  2 0.05599999999986612 0  2 0.06399999999984315 0  2 0.07199999999982019 0  2 0.07999999999979179 0  2 0.08799999999976883 0  2 0.09599999999974587 0  2 0.1039999999997452 0  2 0.1119999999997669 0  2 0.1199999999997886 0  2 0.1279999999998103 0  2 0.135999999999832 0  2 0.1439999999998537 0  2 0.1519999999998738 0  2 0.1599999999998949 0  2 0.1679999999999159 0  2 0.175999999999937 0  2 0.183999999999958 0  2 0.191999999999979 0  1.991999999999967 0.2 0  1.983999999999933 0.2 0  1.9759999999999 0.2 0  1.967999999999867 0.2 0  1.959999999999834 0.2 0  1.9519999999998 0.2 0  1.943999999999767 0.2 0  1.935999999999734 0.2 0  1.9279999999997 0.2 0  1.919999999999667 0.2 0  1.911999999999634 0.2 0  1.9039999999996 0.2 0  1.895999999999567 0.2 0  1.887999999999534 0.2 0  1.879999999999501 0.2 0  1.871999999999467 0.2 0  1.863999999999434 0.2 0  1.855999999999401 0.2 0  1.847999999999367 0.2 0  1.839999999999334 0.2 0  1.831999999999301 0.2 0  1.823999999999268 0.2 0  1.815999999999234 0.2 0  1.807999999999201 0.2 0  1.799999999999168 0.2 0  1.791999999999135 0.2 0  1.783999999999101 0.2 0  1.775999999999068 0.2 0  1.767999999999035 0.2 0  1.759999999999017 0.2 0  1.751999999999006 0.2 0  1.743999999999028 0.2 0  1.735999999999061 0.2 0  1.727999999999112 0.2 0  1.719999999999168 0.2 0  1.711999999999223 0.2 0  1.703999999999279 0.2 0  1.695999999999334 0.2 0  1.68799999999939 0.2 0  1.679999999999446 0.2 0  1.671999999999501 0.2 0  1.663999999999557 0.2 0  1.655999999999612 0.2 0  1.647999999999668 0.2 0  1.639999999999723 0.2 0  1.631999999999779 0.2 0  1.623999999999834 0.2 0  1.61599999999989 0.2 0  1.607999999999945 0.2 0  1.600000000000001 0.2 0  1.592000000000056 0.2 0  1.584000000000112 0.2 0  1.576000000000167 0.2 0  1.568000000000223 0.2 0  1.560000000000279 0.2 0  1.552000000000334 0.2 0  1.54400000000039 0.2 0  1.536000000000445 0.2 0  1.528000000000501 0.2 0  1.520000000000556 0.2 0  1.512000000000612 0.2 0  1.504000000000667 0.2 0  1.496000000000723 0.2 0  1.488000000000778 0.2 0  1.480000000000834 0.2 0  1.472000000000889 0.2 0  1.464000000000945 0.2 0  1.456000000001 0.2 0  1.448000000001056 0.2 0  1.440000000001112 0.2 0  1.432000000001167 0.2 0  1.424000000001223 0.2 0  1.416000000001278 0.2 0  1.408000000001334 0.2 0  1.400000000001389 0.2 0  1.392000000001445 0.2 0  1.3840000000015 0.2 0  1.376000000001556 0.2 0  1.368000000001611 0.2 0  1.360000000001667 0.2 0  1.352000000001722 0.2 0  1.344000000001778 0.2 0  1.336000000001833 0.2 0  1.328000000001889 0.2 0  1.320000000001944 0.2 0  1.312000000002 0.2 0  1.304000000002055 0.2 0  1.296000000002111 0.2 0  1.288000000002166 0.2 0  1.280000000002222 0.2 0  1.272000000002277 0.2 0  1.264000000002333 0.2 0  1.256000000002388 0.2 0  1.248000000002444 0.2 0  1.240000000002499 0.2 0  1.232000000002555 0.2 0  1.22400000000261 0.2 0  1.216000000002666 0.2 0  1.208000000002721 0.2 0  1.200000000002777 0.2 0  1.192000000002832 0.2 0  1.184000000002888 0.2 0  1.176000000002943 0.2 0  1.168000000002999 0.2 0  1.160000000003054 0.2 0  1.15200000000311 0.2 0  1.144000000003165 0.2 0  1.136000000003221 0.2 0  1.128000000003276 0.2 0  1.120000000003332 0.2 0  1.112000000003387 0.2 0  1.104000000003443 0.2 0  1.096000000003498 0.2 0  1.088000000003554 0.2 0  1.080000000003609 0.2 0  1.072000000003665 0.2 0  1.06400000000372 0.2 0  1.056000000003776 0.2 0  1.048000000003831 0.2 0  1.040000000003887 0.2 0  1.032000000003942 0.2 0  1.024000000003998 0.2 0  1.016000000004053 0.2 0  1.008000000004088 0.2 0  1.000000000004121 0.2 0  0.99200000000411 0.2 0  0.984000000004098 0.2 0  0.9760000000040647 0.2 0  0.9680000000040314 0.2 0  0.9600000000039981 0.2 0  0.9520000000039648 0.2 0  0.9440000000039312 0.2 0  0.9360000000038982 0.2 0  0.928000000003864
[...]
<PointData  Scalars="pressure"> 
<DataArray  type="Float64"  Name="pressure"  format="ascii">3.1645207365203973e-02  3.9414753927029201e-07  3.8577712606740138e-07  3.1645270475123069e-02  3.1519012332299402e-02  3.1392518937601498e-02  3.1265725493931619e-02  3.1139500136776972e-02  3.1012522625556281e-02  3.0886000144675629e-02  3.0759435182224005e-02  3.0633139339825113e-02  3.0506348595736137e-02  3.0379708745027847e-02  3.0253183353175353e-02  3.0126503687556563e-02  3.0000092496225844e-02  2.9873277229322877e-02  2.9746897467079370e-02  2.9620246424184229e-02  2.9493651404251042e-02  2.9367083025146425e-02  2.9240659829637444e-02  2.9113881691901888e-02  2.8987132774997100e-02  2.8860937587037418e-02  2.8734097231331752e-02  2.8607701461137960e-02  2.8480965408641635e-02  2.8354385110539757e-02  2.8227732255871447e-02  2.8101466941165151e-02  2.7974651475811740e-02  2.7848008887833151e-02  2.7721600556153320e-02  2.7594875070465388e-02  2.7468440020466139e-02  2.7342072812242591e-02  2.7214763143744634e-02  2.7088714374857440e-02  2.6961885210266753e-02  2.6835826244948482e-02  2.6708744795242552e-02  2.6582166367648027e-02  2.6455697444344371e-02  2.6329264631001003e-02  2.6202548426799248e-02  2.6076099323882163e-02  2.5949141723150066e-02  2.5822865747554807e-02  2.5696114742744733e-02  2.5569645292579612e-02  2.5443143995276914e-02  2.5316329724218371e-02  2.5189906001072633e-02  2.5063266565486568e-02  2.4936780810990287e-02  2.4809999812225918e-02  2.4683633555118309e-02  2.4556855181607513e-02  2.4430498891487878e-02  2.4303895992757316e-02  2.4177328906732423e-02  2.4050318955031645e-02  2.3924235298097753e-02  2.3797542944368037e-02  2.3670768018866067e-02  2.3544336176111364e-02  2.3417697472797917e-02  2.3291210723042504e-02  2.3164429788103125e-02  2.3038094681931288e-02  2.2911248610364206e-02  2.2784936349844055e-02  2.2658296893831423e-02  2.2531816836815141e-02  2.2404741177952027e-02  2.2278670140810052e-02  2.2151970813129630e-02  2.2025197570903328e-02  2.1898766055346026e-02  2.1772127146974830e-02  2.1645641373471910e-02  2.1518860439450990e-02  2.1392494207356349e-02  2.1265715855880194e-02  2.1139359580993299e-02  2.1012756693775753e-02  2.0886189617243114e-02  2.0759179673457070e-02  2.0633096022776170e-02  2.0506403672049006e-02  2.0379628743220642e-02  2.0253196936098054e-02  2.0126557808809970e-02  2.0000071934189057e-02  1.9873290934507938e-02  1.9746924916049922e-02  1.9620145544152832e-02  1.9493795122276544e-02  1.9367169803992730e-02  1.9240639693749118e-02  1.9113614238393833e-02  1.8987513443524867e-02  1.8860838444673809e-02  1.8734099253710054e-02  1.8607698554515467e-02  1.8480865953166021e-02  1.8354485031924404e-02  1.8227859423742571e-02  1.8101070439575023e-02  1.7974812880841226e-02  1.7848128487162791e-02  1.7721631681987194e-02  1.7594705853432802e-02  1.7468549357536941e-02  1.7341860993193119e-02  1.7214903024677319e-02  1.7088976793816931e-02  1.6961772592217074e-02  1.6835370571438947e-02  1.6709156372329330e-02  1.6582237835401969e-02  1.6455626092050504e-02  1.6329385246711556e-02  1.6202325963441629e-02  1.6076046829046699e-02  1.5949371971947107e-02  1.5822735529197315e-02  1.5696186165565475e-02  1.5569749549864335e-02  1.5442970423049056e-02  1.5316508440203921e-02  1.5189727276727936e-02  1.5063458889659861e-02  1.4936609248332091e-02  1.4810272313592658e-02  1.4683432518793893e-02  1.4556867662420815e-02  1.4430609415308401e-02  1.4303686202433127e-02  1.4177187520740960e-02  1.4050519483163623e-02  1.3924253215101219e-02  1.3797439687146456e-02  1.3670755205033273e-02  1.3544689377231585e-02  1.3417493621779835e-02  1.3291182741718704e-02  1.3164483352322266e-02  1.3037817280448647e-02  1.2911689495750483e-02  1.2784664824302846e-02  1.2658166939505716e-02  1.2531480093326074e-02  1.2405260115650492e-02  1.2278328479026341e-02  1.2151963537499809e-02  1.2025308474527216e-02  1.1898768805730275e-02  1.1772116709506555e-02  1.1645688400656178e-02  1.1518910176076227e-02  1.1392234283354683e-02  1.1266127084661433e-02  1.1139088892278867e-02  1.1012598794508055e-02  1.0885909792008971e-02  1.0759688879243921e-02  1.0632758587063562e-02  1.0506381673634737e-02  1.0379733899364014e-02  1.0253206848975141e-02  1.0126548617440768e-02  1.0000155382604422e-02  9.8733329357115641e-03  9.7466662310251896e-03  9.6205483258230036e-03  9.4935188184785500e-03  9.3670326561534241e-03  9.2403384128106128e-03  9.1141200335102014e-03  8.9871891761576349e-03  8.8608078161644260e-03  8.7341634853614538e-03  8.6076376682133974e-03  8.4809786214726270e-03  8.3545857352497078e-03  8.2277629947287746e-03  8.1010965395054233e-03  7.9749799469680718e-03  7.8479477299371048e-03  7.7214642556020143e-03  7.5947666728389471e-03  7.4685490941048642e-03  7.3416219800814626e-03  7.2152512240436766e-03  7.0885986382511687e-03  6.9620589868963391e-03  6.8354074487599926e-03  6.7089792480189156e-03  6.5822012478227521e-03  6.4555238360892477e-03  6.3294200721941878e-03  6.2023748134502560e-03  6.0758929530889362e-03  5.9491856355454471e-03  5.8229202359530250e-03  5.6963627687211145e-03  5.5694720603418121e-03  5.4430584809253271e-03  5.3162384317159009e-03  5.1900626315786371e-03  5.0633485261132949e-03  4.9367499747827665e-03  4.8099250495747467e-03  4.6835027214021082e-03  4.5570803946261102e-03  4.4303783898610285e-03  4.3039051444034252e-03  4.1770689703828469e-03  4.0508351176854257e-03  3.9239590657564605e-03  3.7975413447339772e-03  3.6707884934258708e-03  3.5443139141548034e-03  3.4178326318766187e-03  3.2911753527847089e-03  3.1645713945112146e-03  3.0378512334853411e-03  2.9112811170981501e-03  2.7849993234400437e-03  2.6581808772915458e-03  2.5315577718531702e-03  2.4054016604043221e-03  2.2782364589435384e-03  2.1522521976460266e-03  2.0249940105860199e-03  1.8986438428661276e-03  1.7723657967228621e-03  1.6455845471604863e-03  1.5192047008681688e-03  1.3920330175730231e-03  1.2660618159869201e-03  1.1391858492938106e-03  1.0124077735985809e-03  8.8622987084108532e-04  7.5955766920233873e-04  6.3308332380978475e-04  5.0600192746477269e-04  3.7997441754165836e-04  2.5291886718114057e-04  1.2658275385984353e-04  1.2945051679694954e-08  6.8217881338929038e-08  -1.0177500317682865e-08  7.9022723221616635e-09  -2.4893457223178759e-08  -6.7842133150053647e-09  -6.2071053677450485e-09  -1.0981987700940446e-08  -1.7958122552589713e-09  -2.4611190473687802e-09  -1.3452614756608332e-09  -5.6677053923136250e-10  -6.4253017937342974e-10  -1.2736117080208809e-11  -1.3343317958512242e-10  3.2597520216996825e-10  -2.9685730981361267e-09  -5.5150930004159709e-09  -2.2144508679759246e-08  -2.7994721049575602e-08  9.3806537517710278e-09  -2.3372595385357381e-08  6.4962343746455232e-08  1.3095865281350087e-08  1.2658795036677220e-04  2.5302709153493796e-04  3.7988336050128493e-04  5.0604695858486167e-04  6.3305905568276227e-04  7.5955181421684512e-04  8.8623679433811654e-04  1.0124060723453901e-03  1.1391884754130388e-03  1.2660615486820028e-03  1.3919962192461633e-03  1.5191695419979928e-03  1.6456300613405200e-03  1.7723584992172300e-03  1.8986446271840726e-03  2.0249508843134018e-03  2.1522709261806243e-03  2.2782493241753758e-03  2.4054028268623746e-03  2.5314159858864272e-03  2.6582236286458614e-03  2.7850492110123651e-03  2.9112589851188701e-03  3.0378615106517693e-03  3.1645529972216201e-03  3.2911832264934178e-03  3.4178274834854301e-03  3.5443093974100114e-03  3.6707861585472809e-03  3.7975406234767410e-03  3.9239482370964484e-03  4.0508342418290903e-03  4.1770674143959850e-03  4.3039073240621131e-03  4.4303985049209864e-03  4.5570641573540798e-03  4.6834756636746303e-03  4.8099598950802720e-03  4.9367460492247923e-03  5.0633429072084474e-03  5.1900557939995205e-03  5.3162814681408568e-03  5.4430274997860767e-03  5.5694754621941015e-03  5.6963589030215528e-03  5.8229325878081800e-03  5.9491736946515605e-03  6.0758945896627822e-03  6.2024162839438143e-03  6.3294057378064780e-03  6.4555321271953185e-03  6.5821955764420684e-03  6.7089742621410315e-03  6.8354133148006719e-03  6.9620520593284725e-03  7.0885364642047583e-03  7.2153214008816640e-03  7.3416871399749261e-03  7.4684870981142530e-03  7.5947940738048591e-03  7.7214617552339247e-03  7.8479373968433491e-03  7.9749826526764930e-03  8.1010921694989746e-03  8.2277705543477159e-03  8.3545595754542165e-03  8.4809835535039329e-03  8.6076152690698678e-03  8.7341081869592458e-03  8.8608925410849308e-03  8.9872565436604941e-03  9.1140548176502582e-03  9.2403584581003239e-03  9.3670269082069164e-03  9.4935159939457930e-03  9.6205491820641614e-03  9.7466629516908005e-03  9.8733394735526746e-03  1.0000129499830866e-02  1.0126553070397925e-02  1.0253185093128371e-02  1.0379677051236304e-02  1.0506461953347816e-02  1.0632828166082272e-02  1.0759623082866529e-02  1.0885936978684644e-02  1.1012598829273280e-02  1.1139097468433718e-02  1.1266123988934295e-02  1.1392239539375680e-02  1.1518906120983925e-02  1.1645683214449216e-02  1.1772122565197050e-02  1.1898761362036899e-02  1.2025245804140272e-02  1.2152030603858412e-02  1.2278396270422898e-02  1.2405196455222268e-02  1.2531503638573693e-02  1.2658171012815557e-02  1.2784647202453604e-02  1.2911694092207573e-02  1.3037795151290422e-02  1.3164482036537774e-02  1.3291262983517332e-02  1.3417689460071403e-02  1.3544326277995495e-02  1.3670817937178814e-02  1.3797601574908837e-02  1.3923965166161208e-02  1.4050764191178939e-02  1.4177065074278024e-02  1.4303737816310785e-02  1.4430362151424951e-02  1.4557035845198879e-02  1.4683383455343103e-02  1.4810417522228843e-02  1.4936450510858049e-02  1.5063509420093994e-02  1.5189961987069752e-02  1.5316115588375791e-02  1.5443282256729703e-02  1.5569388452152083e-02  1.5696211907271475e-02  1.5822943936782907e-02  1.5949443289408512e-02  1.6075877188820056e-02  1.6202395149971585e-02  1.6329107317614496e-02  1.6455774209418385e-02  1.6582380420481550e-02  1.6708687015559501e-02  1.6835418205160234e-02  1.6961901126766901e-02  1.7088831375136615e-02  1.7214924347991503e-02  1.7341923803802010e-02  1.7468277709201199e-02  1.7594927480019961e-02  1.7721566067546411e-02  1.7848268692528525e-02  1.7974562649448994e-02  1.8101357771916828e-02  1.8227719871134234e-02  1.8354498788812151e-02  1.8480995292302495e-02  1.8607625778740741e-02  1.8734055200256002e-02  1.8860828256851585e-02  1.8987538007485739e-02  1.9113622020251766e-02  1.9240630263665612e-02  1.9367140023835158e-02  1.9493830220413573e-02  1.9620062419677061e-02  1.9746991564613018e-02  1.9873363261252906e-02  2.0000011300612464e-02  2.0126547766392829e-02  2.0253200722584873e-02  2.0379627106947826e-02  2.0506397345832705e-02  2.0633108336523709e-02  2.0759193997119819e-02  2.0886193054586794e-02  2.1012705472089249e-02  2.1139409244642759e-02  2.1265629767315074e-02  2.1392561461827844e-02  2.1518933284549541e-02  2.1645581088969669e-02  2.1772117184360736e-02  2.1898771830080391e-02  2.2025187677216930e-02  2.2151970759168089e-02  2.2278672272757465e-02  2.2404761597393949e-02  2.2531781728837030e-02  2.2658276752747734e-02  2.2784969848166896e-02  2.2911265776842476e-02  2.3038067713618837e-02  2.3164430578894328e-02  2.3291208667005233e-02  2.3417699036767273e-02  2.3544335886534342e-02  2.3670767061094583e-02  2.3797542887939935e-02  2.3924237807512530e-02  2.4050332823428302e-02  2.4177337911737949e-02  2.4303851459469356e-02  2.4430539283757637e-02  2.4556773342129374e-02  2.4683700973744612e-02  2.4810072577805754e-02  2.4936721344111304e-02  2.5063247347502197e-02  2.5189913555427105e-02  2.5316334295070311e-02  2.5443105994113518e-02  2.5569815372081674e-02  2.5695903844724744e-02  2.5822902327734064e-02  2.5949414975421876e-02  2.6076132178304949e-02  2.6202413831453185e-02  2.6328950260391427e-02  2.6455830960038961e-02  2.6582281172764694e-02  2.6709044955095355e-02  2.6835279312422466e-02  2.6961969119713245e-02  2.7088622493378227e-02  2.7215286593933925e-02  2.7341615591419881e-02  2.7468637396675318e-02  2.7594751773843237e-02  2.7721600582225205e-02  2.7848072307092114e-02  2.7974661879417002e-02  2.8101114221982727e-02  2.8227972877934528e-02  2.8354622292456107e-02  2.8480956900194303e-02  2.8607517017848413e-02  2.8734202877316803e-02  2.8860901036958948e-02  2.8987160389946341e-02  2.9114067089791081e-02  2.9240431970985418e-02  2.9367160668586998e-02  2.9493322093751780e-02  2.9620459963802984e-02  2.9746842890529430e-02  2.9873395992754896e-02  3.0000241744233082e-02  3.0126438587155049e-02  3.0253235554298000e-02  3.0379405112460543e-02  3.0506588995234736e-02  3.0632977611275633e-02  3.0759453205311905e-02  3.0885895975537640e-02  3.1012868375951318e-02  3.1139194720080820e-02  3.1265921051023146e-02  3.1392521839538542e-02  3.1518899315803983e-02  3.1645536533185838e-02  3.1645521424047043e-02  3.1645603682466023e-02  3.1645566756014223e-02  3.1645595095334142e-02  3.1645594789752741e-02  3.1645570621765325e-02  3.1645562225864343e-02  3.1645569004257378e-02  3.1645571067913235e-02  3.1645569162762337e-02  3.1645571236756695e-02  3.1645569127674557e-02  3.1645568294687329e-02  3.1645572773083844e-02  3.1645573854814424e-02  3.1645584078556853e-02  3.1645584842911148e-02  3.1645577517661387e-02  3.1645578531784596e-02  3.1645567109870244e-02  3.1645590919355780e-02  3.1645519496783230e-02  3.1645549562316827e-02  4.7496731310113192e-03  6.3924056904882589e-03  8.0573421322619829e-03  9.6803918138509727e-03  1.1329114913020601e-02  1.2974685104651398e-02  1.4612599765596378e-02  2.7283459001946900e-02  2.5631235523530870e-02  2.9936710121936997e-02  2.3985665739000593e-02  2.2342935739675822e-02  2.0694526895943522e-02  1.9059205135597560e-02  1.7405065694642331e-02  1.5905239674868703e-03  3.1645571984972704e-03  1.6018137439278379e-02  2.8605283418320502e-02  5.5653235626775283e-03  7.2142304845508164e-03  8.8598158242278614e-03  1.0506314999694469e-02  1.2153548835874651e-02  1.3797465763606706e-02  2.6462466162634778e-02  2.4789767479123082e-02  2.3144197908108125e-02  2.1498627853705814e-02  1.9853057686364695e-02  1.8236068633052032e-02  1.3784649896182805e-02  1.2169059516875146e-02  1.0508209008527239e-02  1.8227844036022085e-02  1.9867659121232978e-02  8.8627795252216104e-03  7.2353582851336458e-03  2.1514651845443510e-02  2.3164559897592873e-02  2.4811457679691847e-02  5.5716408065763718e-03  2.6476363998420443e-02  2.3873240151967116e-03  2.3653788720171434e-03  3.9304896514981711e-03  3.9788182619872985e-03  2.9165264666917167e-02  2.8057244001694723e-02  1.5397145604442436e-02  1.6620191659285168e-02  3.0678556835554257e-02  3.0680383836981545e-02  9.0316816052775904e-04  9.2654323545956867e-04  1.6782099074744591e-02  1.5241498744304513e-02  2.9373345200827985e-02  2.7820492110872081e-02  4.7467876108627342e-03  6.3924222798392299e-03  8.0421999855095488e-03  9.6964887841542655e-03  1.1329131684902153e-02  1.2974718501495015e-02  1.4620278600460963e-02  2.5602646136445549e-02  2.3957075916370606e-02  2.2311504491069004e-02  2.0665936652975222e-02  1.9050657160831222e-02  1.2947441543746869e-02  1.1302350378917515e-02  9.6626607536772040e-03  8.0107321808202507e-03  6.3656405512594293e-03  4.7517902595710145e-03  1.7387316320389291e-02  1.9050610528912684e-02  2.0719191061373987e-02  2.2364764711757509e-02  2.3987357412945019e-02  2.5655907693048621e-02  2.7269838638361854e-02  3.1276517367142980e-03  3.1295135274044673e-03  2.9920291595411843e-02  1.7526811413691896e-02  1.4515055888845579e-02  1.6587754786883317e-03  1.6587649205411330e-03  2.7135423811340216e-02  1.5896530589447889e-02  6.9316519072926553e-04  3.0030181249303772e-02  1.6015074251989270e-02  3.0970006124350562e-02  2.8750639875176703e-02  2.9291512915048151e-02  2.7936065626935177e-02  1.6658976842713946e-02  1.5269207112535529e-02  2.8612832859040052e-02  4.1285208092600844e-03  2.1984761409271050e-03  5.7785438068904370e-03  1.4008468339478709e-02  9.0696833264358612e-03  1.1942977543335743e-02  1.0715253043730862e-02  7.0043213247084199e-03  1.8021785400112712e-02  2.6665274052797859e-02  2.5008749069556559e-02  2.3354279065726846e-02  2.1722003557000276e-02  2.0078657351339631e-02  2.8619752604735375e-02  3.1083808857274471e-02  3.1081350407593564e-02  1.7912084045408835e-02  1.9568673863859076e-02  1.2455236821705433e-02  2.1215241358257534e-02  2.2859813561747981e-02  1.0827418010788740e-02  2.4506373222530530e-02  9.1826734268956808e-03  2.6151946181445600e-02  7.5453835571315060e-03  5.8775216399838282e-03  7.5181777360808820e-03  5.8897366851686540e-03  6.9138236458964096e-03  5.2365466478866531e-03  9.1808640442827012e-03  1.0826458193144433e-02  8.5292693334812694e-03  1.0174837706123895e-02  1.2452296287232510e-02  1.1850532984990810e-02  1.4117583509081537e-02  1.3465969816046959e-02  2.6123458803938935e-02  2.4474359963765280e-02  2.5111486928625797e-02  2.2828781759778347e-02  2.3465917377387228e-02  2.1183220667515767e-02  1.9537653790227365e-02  2.1820347655162820e-02  2.0174778119755564e-02  1.8548882927263116e-02  5.2617810916682087e-03  6.9070732238421910e-03  2.6776770624883990e-02  8.5413275774015758e-03  2.5118248197322005e-02  2.3465918784302934e-02  1.0186897531224381e-02  2.1836911267183290e-02  1.1833969355168561e-02  2.0181528680557673e-02  1.3476424045058152e-02  1.8556657681977083e-02  1.5924640860151763e-02  3.6308229803136347e-03  3.6318456081985062e-03  5.4230713224425744e-04  5.5036396333387144e-04  4.2639113649682592e-03  4.2639089120202556e-03  2.7764816328212934e-02  1.5103847530350071e-02  1.6927151024455380e-02  2.9436651919472402e-02  2.6602557231534666e-03  2.6695610834311747e-03  1.9563969956502478e-02  1.8555420077027800e-02  2.1212059393531373e-02  2.2857628937602452e-02  2.4484152026473513e-02  2.6129722715587427e-02  7.5386317584891227e-03  1.0184026585482099e-02  5.2480326201418508e-03  8.5502600090064211e-03  1.2475340560066871e-02  1.3496319727135095e-02  3.0443585178073860e-02  3.0375329418210823e-02  1.6416919564844160e-02  1.7991367246008666e-02  1.4021875598711268e-02  2.8243245268570590e-02  2.1219934126503557e-03  2.1250567200805687e-03  2.6659212834349178e-02  1.2628889756551723e-02  7.6921779289305693e-03  2.5962299180067590e-02  2.4316728508476451e-02  2.2677679017902051e-02  2.1025589271297357e-02  1.9361376789761579e-02  1.8714723934252525e-02  5.0936127455912484e-03  8.3837687135387400e-03  1.0028138491883618e-02  1.3320481583266090e-02  2.6825811766042046e-03  3.6303677205419497e-03  3.4784039328538499e-03  2.7595287984707770e-02  1.2135176952415372e-03  1.2153117591852025e-03  1.4928864349114676e-02  1.7073924056366173e-02  2.8356725940480690e-03  2.9609587832286583e-02  1.7079689373003779e-02  1.4945705682027556e-02  3.0228126855988587e-02  1.7735496570612123e-02  1.0989450011821019e-02  9.3436607785473864e-03  6.0527348955892379e-03  1.4276980800563546e-02  1.0956198476959026e-02  9.3114142102479359e-03  1.1658902518152386e-02  6.0194906547229110e-03  6.7337290143750618e-03  2.0352944493892626e-02  2.1998498676195865e-02  2.3644083521456770e-02  2.5289653436929776e-02  6.7204468991894448e-03  2.6911030014582872e-02  2.5289171189027414e-02  2.3635271387123759e-02  2.1998253815761096e-02  1.1669503893294386e-02  2.0350582585882373e-02  4.4376956696285585e-03  4.4244278708749961e-03  3.0499649243695651e-02  1.8549433938247282e-03  1.8879363335193564e-03  3.1131221195221763e-02  3.1156590503286109e-02  2.6946237406548629e-02  1.1372242423536251e-03  2.7547134703443284e-02  1.6291323340353787e-02  1.4364452848597633e-02  1.7726085056570542e-02  1.3930063557829348e-03  4.7540555527792328e-04  5.0314141924194468e-04  1.5469217259647347e-02  1.4821591534072257e-02  1.7217885379727328e-02  1.5578034559675762e-02  1.6449753189886077e-02  2.9625386413708731e-02  2.7433954425681813e-02  2.8277680248965167e-02  2.9131583427350050e-02  2.9748009686162209e-02  1.5592248430512259e-02  2.8962258577139785e-02  2.8220087752887316e-02  1.9434716897727571e-02  2.1084303932553193e-02  2.2729872534328375e-02  2.4374131324323506e-02  2.6018803353955892