<?xml version="1.0"?>
<VTKFile type="UnstructuredGrid"  version="0.1"  >
<UnstructuredGrid>
<Piece  NumberOfPoints="8545" NumberOfCells="16538">
<Points>
<DataArray  type="Float64"  NumberOfComponents="3"  format="ascii">0 0 0  2 0 0  2 0.2 0  0 0.2 0  0.007999999999984813 0 0  0.01599999999996964 0 0  0.02399999999995461 0 0  0.03199999999993959 0 0  0.03999999999992457 0 0  0.04799999999990945 0 0  0.05599999999989373 0 0  0.06399999999987775 0 0  0.07199999999986065 0 0  0.07999999999984338 0 0  0.08799999999982558 0 0  0.09599999999980778 0 0  0.10399999999979 0 0  0.1119999999997726 0 0  0.1199999999997562 0 0  0.1279999999997408 0 0  0.1359999999997272 0 0  0.1439999999997141 0 0  0.1519999999997019 0 0  0.1599999999996896 0 0  0.1679999999996774 0 0  0.1759999999996651 0 0  0.1839999999996529 0 0  0.1919999999996407 0 0  0.1999999999996284 0 0  0.2079999999996162 0 0  0.2159999999996039 0 0  0.2239999999995916 0 0  0.2319999999995794 0 0  0.2399999999995652 0 0  0.2479999999995501 0 0  0.2559999999995309 0 0  0.2639999999995103 0 0  0.2719999999994875 0 0  0.2799999999994642 0 0  0.2879999999994408 0 0  0.2959999999994175 0 0  0.3039999999993941 0 0  0.3119999999993708 0 0  0.3199999999993474 0 0  0.3279999999993241 0 0  0.3359999999993007 0 0  0.3439999999992774 0 0  0.351999999999254 0 0  0.3599999999992307 0 0  0.3679999999992074 0 0  0.375999999999184 0 0  0.3839999999991606 0 0  0.3919999999991373 0 0  0.3999999999991139 0 0  0.4079999999990906 0 0  0.4159999999990672 0 0  0.4239999999990439 0 0  0.4319999999990204 0 0  0.4399999999989971 0 0  0.4479999999989738 0 0  0.4559999999989504 0 0  0.463999999998927 0 0  0.4719999999989037 0 0  0.4799999999988804 0 0  0.487999999998857 0 0  0.4959999999988337 0 0  0.5039999999988103 0 0  0.511999999998787 0 0  0.5199999999987636 0 0  0.5279999999987403 0 0  0.5359999999987169 0 0  0.5439999999986936 0 0  0.5519999999986703 0 0  0.559999999998647 0 0  0.5679999999986237 0 0  0.5759999999986004 0 0  0.583999999998577 0 0  0.5919999999985537 0 0  0.5999999999985304 0 0  0.6079999999985071 0 0  0.6159999999984838 0 0  0.6239999999984605 0 0  0.6319999999984371 0 0  0.6399999999984138 0 0  0.6479999999983904 0 0  0.6559999999983671 0 0  0.6639999999983438 0 0  0.6719999999983205 0 0  0.6799999999982972 0 0  0.6879999999982739 0 0  0.6959999999982506 0 0  0.7039999999982272 0 0  0.7119999999982038 0 0  0.7199999999981805 0 0  0.7279999999981572 0 0  0.7359999999981339 0 0  0.7439999999981106 0 0  0.7519999999980873 0 0  0.759999999998064 0 0  0.7679999999980406 0 0  0.7759999999980173 0 0  0.783999999997994 0 0  0.7919999999979707 0 0  0.7999999999979474 0 0  0.807999999997924 0 0  0.8159999999979007 0 0  0.8239999999978773 0 0  0.831999999997854 0 0  0.8399999999978307 0 0  0.8479999999978074 0 0  0.855999999997784 0 0  0.8639999999977607 0 0  0.8719999999977374 0 0  0.8799999999977141 0 0  0.8879999999976906 0 0  0.8959999999976673 0 0  0.903999999997644 0 0  0.9119999999976207 0 0  0.9199999999975974 0 0  0.9279999999975741 0 0  0.9359999999975508 0 0  0.9439999999975274 0 0  0.9519999999975041 0 0  0.9599999999974808 0 0  0.9679999999974574 0 0  0.9759999999974341 0 0  0.9839999999974108 0 0  0.9919999999973981 0 0  0.9999999999973858 0 0  1.007999999997396 0 0  1.015999999997406 0 0  1.023999999997427 0 0  1.031999999997449 0 0  1.039999999997469 0 0  1.04799999999749 0 0  1.055999999997512 0 0  1.063999999997533 0 0  1.071999999997554 0 0  1.079999999997575 0 0  1.087999999997596 0 0  1.095999999997617 0 0  1.103999999997638 0 0  1.111999999997659 0 0  1.11999999999768 0 0  1.127999999997702 0 0  1.135999999997722 0 0  1.143999999997744 0 0  1.151999999997765 0 0  1.159999999997786 0 0  1.167999999997807 0 0  1.175999999997828 0 0  1.183999999997849 0 0  1.19199999999787 0 0  1.199999999997891 0 0  1.207999999997912 0 0  1.215999999997933 0 0  1.223999999997955 0 0  1.231999999997976 0 0  1.239999999997997 0 0  1.247999999998018 0 0  1.255999999998039 0 0  1.26399999999806 0 0  1.271999999998081 0 0  1.279999999998102 0 0  1.287999999998123 0 0  1.295999999998144 0 0  1.303999999998166 0 0  1.311999999998186 0 0  1.319999999998208 0 0  1.327999999998229 0 0  1.33599999999825 0 0  1.343999999998271 0 0  1.351999999998292 0 0  1.359999999998313 0 0  1.367999999998334 0 0  1.375999999998355 0 0  1.383999999998376 0 0  1.391999999998397 0 0  1.399999999998418 0 0  1.40799999999844 0 0  1.41599999999846 0 0  1.423999999998482 0 0  1.431999999998503 0 0  1.439999999998524 0 0  1.447999999998545 0 0  1.455999999998566 0 0  1.463999999998587 0 0  1.471999999998608 0 0  1.479999999998629 0 0  1.48799999999865 0 0  1.495999999998672 0 0  1.503999999998693 0 0  1.511999999998714 0 0  1.519999999998735 0 0  1.527999999998756 0 0  1.535999999998777 0 0  1.543999999998798 0 0  1.551999999998819 0 0  1.55999999999884 0 0  1.567999999998861 0 0  1.575999999998882 0 0  1.583999999998904 0 0  1.591999999998924 0 0  1.599999999998946 0 0  1.607999999998967 0 0  1.615999999998988 0 0  1.623999999999009 0 0  1.63199999999903 0 0  1.639999999999051 0 0  1.647999999999072 0 0  1.655999999999093 0 0  1.663999999999114 0 0  1.671999999999136 0 0  1.679999999999157 0 0  1.687999999999177 0 0  1.695999999999199 0 0  1.70399999999922 0 0  1.711999999999241 0 0  1.719999999999262 0 0  1.727999999999283 0 0  1.735999999999304 0 0  1.743999999999325 0 0  1.751999999999346 0 0  1.759999999999367 0 0  1.767999999999389 0 0  1.775999999999409 0 0  1.783999999999431 0 0  1.791999999999452 0 0  1.799999999999473 0 0  1.807999999999494 0 0  1.815999999999515 0 0  1.823999999999536 0 0  1.831999999999557 0 0  1.839999999999578 0 0  1.847999999999599 0 0  1.85599999999962 0 0  1.863999999999641 0 0  1.871999999999663 0 0  1.879999999999684 0 0  1.887999999999705 0 0  1.895999999999726 0 0  1.903999999999747 0 0  1.911999999999768 0 0  1.919999999999789 0 0  1.92799999999981 0 0  1.935999999999831 0 0  1.943999999999853 0 0  1.951999999999873 0 0  1.959999999999895 0 0  1.967999999999916 0 0  1.975999999999937 0 0  1.983999999999958 0 0  1.991999999999979 0 0  2 0.007999999999985056 0  2 0.01599999999997076 0  2 0.02399999999995914 0  2 0.03199999999993772 0  2 0.03999999999991205 0  2 0.04799999999988908 0  2 0.05599999999986612 0  2 0.06399999999984315 0  2 0.07199999999982019 0  2 0.07999999999979179 0  2 0.08799999999976883 0  2 0.09599999999974587 0  2 0.1039999999997452 0  2 0.1119999999997669 0  2 0.1199999999997886 0  2 0.1279999999998103 0  2 0.135999999999832 0  2 0.1439999999998537 0  2 0.1519999999998738 0  2 0.1599999999998949 0  2 0.1679999999999159 0  2 0.175999999999937 0  2 0.183999999999958 0  2 0.191999999999979 0  1.991999999999967 0.2 0  1.983999999999933 0.2 0  1.9759999999999 0.2 0  1.967999999999867 0.2 0  1.959999999999834 0.2 0  1.9519999999998 0.2 0  1.943999999999767 0.2 0  1.935999999999734 0.2 0  1.9279999999997 0.2 0  1.919999999999667 0.2 0  1.911999999999634 0.2 0  1.9039999999996 0.2 0  1.895999999999567 0.2 0  1.887999999999534 0.2 0  1.879999999999501 0.2 0  1.871999999999467 0.2 0  1.863999999999434 0.2 0  1.855999999999401 0.2 0  1.847999999999367 0.2 0  1.839999999999334 0.2 0  1.831999999999301 0.2 0  1.823999999999268 0.2 0  1.815999999999234 0.2 0  1.807999999999201 0.2 0  1.799999999999168 0.2 0  1.791999999999135 0.2 0  1.783999999999101 0.2 0  1.775999999999068 0.2 0  1.767999999999035 0.2 0  1.759999999999017 0.2 0  1.751999999999006 0.2 0  1.743999999999028 0.2 0  1.735999999999061 0.2 0  1.727999999999112 0.2 0  1.719999999999168 0.2 0  1.711999999999223 0.2 0  1.703999999999279 0.2 0  1.695999999999334 0.2 0  1.68799999999939 0.2 0  1.679999999999446 0.2 0  1.671999999999501 0.2 0  1.663999999999557 0.2 0  1.655999999999612 0.2 0  1.647999999999668 0.2 0  1.639999999999723 0.2 0  1.631999999999779 0.2 0  1.623999999999834 0.2 0  1.61599999999989 0.2 0  1.607999999999945 0.2 0  1.600000000000001 0.2 0  1.592000000000056 0.2 0  1.584000000000112 0.2 0  1.576000000000167 0.2 0  1.568000000000223 0.2 0  1.560000000000279 0.2 0  1.552000000000334 0.2 0  1.54400000000039 0.2 0  1.536000000000445 0.2 0  1.528000000000501 0.2 0  1.520000000000556 0.2 0  1.512000000000612 0.2 0  1.504000000000667 0.2 0  1.496000000000723 0.2 0  1.488000000000778 0.2 0  1.480000000000834 0.2 0  1.472000000000889 0.2 0  1.464000000000945 0.2 0  1.456000000001 0.2 0  1.448000000001056 0.2 0  1.440000000001112 0.2 0  1.432000000001167 0.2 0  1.424000000001223 0.2 0  1.416000000001278 0.2 0  1.408000000001334 0.2 0  1.400000000001389 0.2 0  1.392000000001445 0.2 0  1.3840000000015 0.2 0  1.376000000001556 0.2 0  1.368000000001611 0.2 0  1.360000000001667 0.2 0  1.352000000001722 0.2 0  1.344000000001778 0.2 0  1.336000000001833 0.2 0  1.328000000001889 0.2 0  1.320000000001944 0.2 0  1.312000000002 0.2 0  1.304000000002055 0.2 0  1.296000000002111 0.2 0  1.288000000002166 0.2 0  1.280000000002222 0.2 0  1.272000000002277 0.2 0  1.264000000002333 0.2 0  1.256000000002388 0.2 0  1.248000000002444 0.2 0  1.240000000002499 0.2 0  1.232000000002555 0.2 0  1.22400000000261 0.2 0  1.216000000002666 0.2 0  1.208000000002721 0.2 0  1.200000000002777 0.2 0  1.192000000002832 0.2 0  1.184000000002888 0.2 0  1.176000000002943 0.2 0  1.168000000002999 0.2 0  1.160000000003054 0.2 0  1.15200000000311 0.2 0  1.144000000003165 0.2 0  1.136000000003221 0.2 0  1.128000000003276 0.2 0  1.120000000003332 0.2 0  1.112000000003387 0.2 0  1.104000000003443 0.2 0  1.096000000003498 0.2 0  1.088000000003554 0.2 0  1.080000000003609 0.2 0  1.072000000003665 0.2 0  1.06400000000372 0.2 0  1.056000000003776 0.2 0  1.048000000003831 0.2 0  1.040000000003887 0.2 0  1.032000000003942 0.2 0  1.024000000003998 0.2 0  1.016000000004053 0.2 0  1.008000000004088 0.2 0  1.000000000004121 0.2 0  0.99200000000411 0.2 0  0.984000000004098 0.2 0  0.9760000000040647 0.2 0  0.9680000000040314 0.2 0  0.9600000000039981 0.2 0  0.9520000000039648 0.2 0  0.9440000000039312 0.2 0  0.9360000000038982 0.2 0  0.928000000003864
[...]
<PointData  Scalars="pressure"> 
<DataArray  type="Float64"  Name="pressure"  format="ascii">3.1645114094056383e-02  4.9114201916574985e-07  4.8114274654803359e-07  3.1645194016376950e-02  3.1519013101362646e-02  3.1392543709409360e-02  3.1265696029776947e-02  3.1139563282517563e-02  3.1012487744807665e-02  3.0885979368635817e-02  3.0759417423858789e-02  3.0633194051899657e-02  3.0506355266083932e-02  3.0379699816117860e-02  3.0253190612353428e-02  3.0126482200483282e-02  3.0000115717915551e-02  2.9873240195871519e-02  2.9746910976574094e-02  2.9620245798825669e-02  2.9493644796264304e-02  2.9367080501016749e-02  2.9240697761618365e-02  2.9113873385140782e-02  2.8987078832724042e-02  2.8860980563571909e-02  2.8734075304819615e-02  2.8607728203805607e-02  2.8480953383200096e-02  2.8354374131676002e-02  2.8227701177686269e-02  2.8101515961343956e-02  2.7974644126600494e-02  2.7847984106210248e-02  2.7721619666292472e-02  2.7594858356155980e-02  2.7468458605772270e-02  2.7342151447878483e-02  2.7214658370887834e-02  2.7088741169593190e-02  2.6961845497991844e-02  2.6835921521118342e-02  2.6708718988383305e-02  2.6582139565284477e-02  2.6455694012625468e-02  2.6329299957487121e-02  2.6202550756924913e-02  2.6076137760386271e-02  2.5949085580866917e-02  2.5822884632366302e-02  2.5696092549057921e-02  2.5569650873512626e-02  2.5443170118172261e-02  2.5316297101457982e-02  2.5189914354945352e-02  2.5063260516478284e-02  2.4936798972703181e-02  2.4809965931976340e-02  2.4683655223051250e-02  2.4556825120830253e-02  2.4430526401735927e-02  2.4303919626674379e-02  2.4177361508905797e-02  2.4050240364937161e-02  2.3924278849280632e-02  2.3797561583604965e-02  2.3670737093390543e-02  2.3544344407717677e-02  2.3417691507289860e-02  2.3291228816334924e-02  2.3164395820313124e-02  2.3038124375629500e-02  2.2911209863293994e-02  2.2784965384635709e-02  2.2658312929051190e-02  2.2531863266743019e-02  2.2404660523694730e-02  2.2278714758428381e-02  2.2151988971505047e-02  2.2025166538733914e-02  2.1898774179415600e-02  2.1772120958318320e-02  2.1645659380606169e-02  2.1518826417328094e-02  2.1392515742868417e-02  2.1265685673228396e-02  2.1139386976679518e-02  2.1012780217303191e-02  2.0886222110963543e-02  2.0759100975086178e-02  2.0633139464622769e-02  2.0506422198123840e-02  2.0379597698395278e-02  2.0253205045057926e-02  2.0126551595145658e-02  2.0000089918375083e-02  1.9873256888657282e-02  1.9746946495477292e-02  1.9620115141034664e-02  1.9493823853768362e-02  1.9367189057665751e-02  1.9240676581845379e-02  1.9113535977145761e-02  1.8987552872246242e-02  1.8860858554814619e-02  1.8734077481708876e-02  1.8607726607488578e-02  1.8480827001315075e-02  1.8354497314584307e-02  1.8227862379188674e-02  1.8101020571067758e-02  1.7974842669750055e-02  1.7848134807351618e-02  1.7721662959755927e-02  1.7594645232202760e-02  1.7468594895552865e-02  1.7341883876016467e-02  1.7214830574979214e-02  1.7089069386761697e-02  1.6961709610913353e-02  1.6835349002066187e-02  1.6709228109680559e-02  1.6582228256651153e-02  1.6455609114975581e-02  1.6329453375415911e-02  1.6202272732561536e-02  1.6076070672139800e-02  1.5949372217483205e-02  1.5822723687039193e-02  1.5696179524624623e-02  1.5569781592034506e-02  1.5442953057327524e-02  1.5316520901014772e-02  1.5189689199527812e-02  1.5063500869849379e-02  1.4936581647844914e-02  1.4810309504825449e-02  1.4683405432490275e-02  1.4556839967901580e-02  1.4430665217628891e-02  1.4303657729554605e-02  1.4177180606205347e-02  1.4050490047569832e-02  1.3924303523667468e-02  1.3797434335901500e-02  1.3670717976021115e-02  1.3544784899806083e-02  1.3417436673672166e-02  1.3291194750622225e-02  1.3164464977668929e-02  1.3037774925573901e-02  1.2911763337053085e-02  1.2784630300269332e-02  1.2658153825950810e-02  1.2531437760554653e-02  1.2405308485548192e-02  1.2278289128287812e-02  1.2151978398287869e-02  1.2025304472419302e-02  1.1898776370917807e-02  1.1772107365354648e-02  1.1645720275062974e-02  1.1518891425194341e-02  1.1392187949499425e-02  1.1266202317712642e-02  1.1139052639156823e-02  1.1012585811384076e-02  1.0885867286895315e-02  1.0759737124982060e-02  1.0632719029132421e-02  1.0506393573677723e-02  1.0379729353580596e-02  1.0253215900580806e-02  1.0126538591109686e-02  1.0000195748225903e-02  9.8733122401060205e-03  9.7466212350347577e-03  9.6206217259492358e-03  9.4934831199149465e-03  9.3670204673682068e-03  9.2402962593764910e-03  9.1141685046759249e-03  8.9871495183438954e-03  8.8608188847110626e-03  8.7341588598864386e-03  8.6076468185132763e-03  8.4809684515821260e-03  8.3546259697301999e-03  8.2277421277851572e-03  8.1010513786627398e-03  7.9750534804507497e-03  7.8479115489982244e-03  7.7214521621712410e-03  7.5947244054013104e-03  7.4685973786712545e-03  7.3415828983526355e-03  7.2152657257384687e-03  7.0885945218780921e-03  6.9620663490292042e-03  6.8353978828693896e-03  6.7090108761218405e-03  6.5821823356686168e-03  6.4554771094854115e-03  6.3294955582470034e-03  6.2023372381954664e-03  6.0758800001417578e-03  5.9491397739418221e-03  5.8229503795956877e-03  5.6964029631935880e-03  5.5694353254589560e-03  5.4430641171853899e-03  5.3161816327477913e-03  5.1901076513724553e-03  5.0633631320720135e-03  4.9367641381108376e-03  4.8098759627891088e-03  4.6834889236348643e-03  4.5571075428477601e-03  4.4303761497481078e-03  4.3039329687000012e-03  4.1770305230491248e-03  4.0508851019369126e-03  3.9239370493764905e-03  3.7975598812366217e-03  3.6707627378079911e-03  3.5443136931659807e-03  3.4178586831212715e-03  3.2911854109534491e-03  3.1645752178739400e-03  3.0378211966324061e-03  2.9112506376113012e-03  2.7850448243161097e-03  2.6581686059639858e-03  2.5315328389365769e-03  2.4054857061034693e-03  2.2781746459952334e-03  2.1523414272218684e-03  2.0249157997680343e-03  1.8986175682320606e-03  1.7724170896634076e-03  1.6455856991726111e-03  1.5192629234569821e-03  1.3919401861712715e-03  1.2661233709462224e-03  1.1391736722953624e-03  1.0123435118212108e-03  8.8626660751358742e-04  7.5956986685952229e-04  6.3312882301271771e-04  5.0591946248737421e-04  3.8003115019230740e-04  2.5285495718504504e-04  1.2657633347848340e-04  1.4020156379559895e-08  7.6234946905707181e-08  -1.5713456986037363e-08  3.7187081338646577e-09  -2.4360494364572738e-08  -8.8059008870642413e-09  -5.4803579141233844e-09  -6.5714946199121583e-09  -1.0239601527861789e-09  -9.0689957797497566e-10  -3.0673238572067724e-10  1.5257476938377867e-11  -2.8315339130395475e-11  2.0854037958167514e-10  -1.6493994034412520e-10  -2.0954394302299933e-11  -2.0876410984768958e-09  -3.1388557549839885e-09  -1.8780645050527696e-08  -2.6930248724030839e-08  5.7244536149088010e-09  -3.0192520860877195e-08  7.2795898613436123e-08  1.4055577224019033e-08  1.2658256712931153e-04  2.5298948217929602e-04  3.7991661704996212e-04  5.0597553817646583e-04  6.3309862944703574e-04  7.5956329363778433e-04  8.8627548450393194e-04  1.0123408846004754e-03  1.1391771367741527e-03  1.2661232093513124e-03  1.3918953371380924e-03  1.5192195951488068e-03  1.6456423155185951e-03  1.7724073431473757e-03  1.8986179108190235e-03  2.0248625403791348e-03  2.1523671716428302e-03  2.2781899509256190e-03  2.4054882621555758e-03  2.5313559434198556e-03  2.6582239564296758e-03  2.7851058025342118e-03  2.9112219244482752e-03  3.0378339129005822e-03  3.1645517891638352e-03  3.2911953389500679e-03  3.4178524614596026e-03  3.5443083838010256e-03  3.6707602469147763e-03  3.7975590890923006e-03  3.9239243449718138e-03  4.0508838858956380e-03  4.1770282157302246e-03  4.3039348891320724e-03  4.4304003194183565e-03  4.5570879338257377e-03  4.6834555000254624e-03  4.8099182887348753e-03  4.9367596875728647e-03  5.0633566409984884e-03  5.1900992249900857e-03  5.3162353468575218e-03  5.4430259675439137e-03  5.5694390882126818e-03  5.6963984224899355e-03  5.8229651565657597e-03  5.9491245041887282e-03  6.0758830986488415e-03  6.2023888112160662e-03  6.3294773917044536e-03  6.4554867664408490e-03  6.5821760180115587e-03  6.7090045103855222e-03  6.8354045650161318e-03  6.9620573127994476e-03  7.0885173140054786e-03  7.2153537758048872e-03  7.3416637472172499e-03  7.4685190284503912e-03  7.5947575652157394e-03  7.7214485903558004e-03  7.8478985039840393e-03  7.9750569224713037e-03  8.1010460298031987e-03  8.2277516835097594e-03  8.3545934935134597e-03  8.4809750623641468e-03  8.6076191806041830e-03  8.7340897134622793e-03  8.8609253299621379e-03  8.9872329414579025e-03  9.1140864347332151e-03  9.2403208891200829e-03  9.3670131841285115e-03  9.4934792959969240e-03  9.6206227905135666e-03  9.7466169733084786e-03  9.8733204837042690e-03  1.0000163500383869e-02  1.0126544654586530e-02  1.0253189120801436e-02  1.0379658511967840e-02  1.0506494787438861e-02  1.0632805041771840e-02  1.0759654558129696e-02  1.0885901492770213e-02  1.1012585603211023e-02  1.1139062969240722e-02  1.1266198332274460e-02  1.1392193962173348e-02  1.1518887141712583e-02  1.1645713583341672e-02  1.1772113975270955e-02  1.1898766732374388e-02  1.2025226743687315e-02  1.2152063055340331e-02  1.2278372950654605e-02  1.2405228470672068e-02  1.2531467231717259e-02  1.2658157933327151e-02  1.2784608444434686e-02  1.2911768801413374e-02  1.3037748038556302e-02  1.3164464130207040e-02  1.3291296427899685e-02  1.3417679932803539e-02  1.3544330448024004e-02  1.3670799624365093e-02  1.3797634286098088e-02  1.3923941442044169e-02  1.4050795821094390e-02  1.4177026926169241e-02  1.4303724905251761e-02  1.4430357861470764e-02  1.4557053730564460e-02  1.4683341404533621e-02  1.4810491119885250e-02  1.4936383729689235e-02  1.5063565056405520e-02  1.5189979915022076e-02  1.5316030231287438e-02  1.5443343013672534e-02  1.5569329374287339e-02  1.5696216823589466e-02  1.5822983749272039e-02  1.5949461753755147e-02  1.6075856843221867e-02  1.6202362365648280e-02  1.6329105844452151e-02  1.6455792897051933e-02  1.6582402476260291e-02  1.6708641149665013e-02  1.6835412221207591e-02  1.6961870362413020e-02  1.7088886314272037e-02  1.7214856419094784e-02  1.7341962340553317e-02  1.7468256529166587e-02  1.7594928422991471e-02  1.7721578385514494e-02  1.7848308801523903e-02  1.7974529266052322e-02  1.8101380201694935e-02  1.8227685619874982e-02  1.8354516224330205e-02  1.8480990461687292e-02  1.8607633037711586e-02  1.8734023756842473e-02  1.8860845966365173e-02  1.8987583381975127e-02  1.9113545602066833e-02  1.9240665048428345e-02  1.9367153236014782e-02  1.9493867806460004e-02  1.9620012799472262e-02  1.9747029965137806e-02  1.9873347358570517e-02  2.0000014334777730e-02  2.0126539783023773e-02  2.0253209461838735e-02  2.0379596028801353e-02  2.0506415031453243e-02  2.0633153925613126e-02  2.0759118065484857e-02  2.0886226170190397e-02  2.1012717914623519e-02  2.1139449274858221e-02  2.1265579475560056e-02  2.1392599869329038e-02  2.1518917379191243e-02  2.1645584106371345e-02  2.1772109223664779e-02  2.1898781036874856e-02  2.2025154520917030e-02  2.2151989511523161e-02  2.2278716333474367e-02  2.2404685165092669e-02  2.2531820381411740e-02  2.2658289356961545e-02  2.2785007462951850e-02  2.2911231005205420e-02  2.3038090304019831e-02  2.3164396817433593e-02  2.3291226410536370e-02  2.3417693333980166e-02  2.3544344117258770e-02  2.3670735959096564e-02  2.3797561510109633e-02  2.3924281667877158e-02  2.4050257133562552e-02  2.4177372571239194e-02  2.4303865217237441e-02  2.4430577062930177e-02  2.4556724024155194e-02  2.4683739394514664e-02  2.4810056637425290e-02  2.4936724822941569e-02  2.5063237456568053e-02  2.5189923750952001e-02  2.5316303055548425e-02  2.5443123623509350e-02  2.5569860397089094e-02  2.5695828043160326e-02  2.5822935279967731e-02  2.5949427227805657e-02  2.6076175458884999e-02  2.6202380679255115e-02  2.6328909552659003e-02  2.6455867215322670e-02  2.6582282269355179e-02  2.6709089381529119e-02  2.6835236237240191e-02  2.6961956645370357e-02  2.7088625627295027e-02  2.7215310649085701e-02  2.7341574402129414e-02  2.7468707474271565e-02  2.7594703148050344e-02  2.7721620866605033e-02  2.7848064795494037e-02  2.7974656896238875e-02  2.8101077737887663e-02  2.8228002297427765e-02  2.8354668688926693e-02  2.8480939953017096e-02  2.8607498594936911e-02  2.8734209482238256e-02  2.8860935275766622e-02  2.8987112820693082e-02  2.9114103374550483e-02  2.9240411245031815e-02  2.9367177840236389e-02  2.9493235909540842e-02  2.9620514835635426e-02  2.9746843987648236e-02  2.9873390201475673e-02  3.0000300736137703e-02  3.0126400156439505e-02  3.0253253559678690e-02  3.0379320255509414e-02  3.0506656062858958e-02  3.0632990468063302e-02  3.0759440749300999e-02  3.0885850756674205e-02  3.1012918794071021e-02  3.1139179436028196e-02  3.1265941310860183e-02  3.1392544443124511e-02  3.1518871871602488e-02  3.1645530222223585e-02  3.1645513645416269e-02  3.1645610847117644e-02  3.1645567786466433e-02  3.1645595048954776e-02  3.1645590473596108e-02  3.1645570143529332e-02  3.1645566672899139e-02  3.1645568785234099e-02  3.1645570217120597e-02  3.1645569584684452e-02  3.1645570110526690e-02  3.1645569519476280e-02  3.1645569138938789e-02  3.1645571093319745e-02  3.1645571875504340e-02  3.1645577385454489e-02  3.1645581348253418e-02  3.1645577468946834e-02  3.1645580732683913e-02  3.1645569326081105e-02  3.1645597277869530e-02  3.1645510670514097e-02  3.1645546573370903e-02  4.7496711412589885e-03  6.3924055478152180e-03  8.0573415619452481e-03  9.6803924041979888e-03  1.1329114862635416e-02  1.2974684645945186e-02  1.4612598794994386e-02  2.7283458104191451e-02  2.5631236664132286e-02  2.9936710108147867e-02  2.3985666960342378e-02  2.2342936436321743e-02  2.0694527749029974e-02  1.9059206419148881e-02  1.7405064698892796e-02  1.5905235203894667e-03  3.1645573864102893e-03  1.6018137088883701e-02  2.8605282271598868e-02  5.5653287693461255e-03  7.2142292797926708e-03  8.8598117848756614e-03  1.0506323659954991e-02  1.2153548075842012e-02  1.3797468924153141e-02  2.6462458978143571e-02  2.4789761744780054e-02  2.3144192097398816e-02  2.1498622231796889e-02  1.9853052264262150e-02  1.8236063470029224e-02  1.3784648190990664e-02  1.2169055803426003e-02  1.0508210819547717e-02  1.8227846077420361e-02  1.9867655841989136e-02  8.8627835277124475e-03  7.2353605987400911e-03  2.1514650520062191e-02  2.3164558632142760e-02  2.4811465267412389e-02  5.5716442706514446e-03  2.6476361875781479e-02  2.3873178448865972e-03  2.3653828317994727e-03  3.9304986560374858e-03  3.9788152180020514e-03  2.9165260667601497e-02  2.8057244423589495e-02  1.5397145247077948e-02  1.6620195694451053e-02  3.0678558535111811e-02  3.0680381116389377e-02  9.0317967644213488e-04  9.2653327846511598e-04  1.6782117198219523e-02  1.5241501877151975e-02  2.9373345725271980e-02  2.7820485084494341e-02  4.7468018565963895e-03  6.3924175253150797e-03  8.0421968598726658e-03  9.6965005477664089e-03  1.1329126840375757e-02  1.2974710249813302e-02  1.4620271541349886e-02  2.5602645829346973e-02  2.3957075833889285e-02  2.2311505013535161e-02  2.0665936471057640e-02  1.9050649354435758e-02  1.2947437302867975e-02  1.1302346374161611e-02  9.6626577737139955e-03  8.0107282609465473e-03  6.3656365396054593e-03  4.7517893153354923e-03  1.7387314493343693e-02  1.9050617919314550e-02  2.0719195092032919e-02  2.2364766712159864e-02  2.3987354647259068e-02  2.5655909350435629e-02  2.7269842686382533e-02  3.1276525068185766e-03  3.1295111335721544e-03  2.9920292866563693e-02  1.7526809350526931e-02  1.4515056658687936e-02  1.6587755445057295e-03  1.6587655731725010e-03  2.7135421089006007e-02  1.5896534617406703e-02  6.9316437114160759e-04  3.0030177761750702e-02  1.6015074445485188e-02  3.0970005861500054e-02  2.8750639045883663e-02  2.9291511795646749e-02  2.7936065008893875e-02  1.6658976168297715e-02  1.5269205946719261e-02  2.8612831201557269e-02  4.1285209213469537e-03  2.1984758517189710e-03  5.7785437218486951e-03  1.4008467395852453e-02  9.0696833244097632e-03  1.1942976919571045e-02  1.0715253084841661e-02  7.0043202447765901e-03  1.8021785293957430e-02  2.6665274348898139e-02  2.5008748270164707e-02  2.3354278789696453e-02  2.1722002600637523e-02  2.0078656233102170e-02  2.8619749922339788e-02  3.1083808657283048e-02  3.1081348552274898e-02  1.7912081622909491e-02  1.9568670601557810e-02  1.2455238674296019e-02  2.1215237847051371e-02  2.2859809247597392e-02  1.0827416471212643e-02  2.4506369675030414e-02  9.1826720232715490e-03  2.6151942293558949e-02  7.5453881042063884e-03  5.8775251964480980e-03  7.5181765940210360e-03  5.8897367238158714e-03  6.9138256504594738e-03  5.2365522525273872e-03  9.1808635545393459e-03  1.0826458215228225e-02  8.5292737392660238e-03  1.0174842356174763e-02  1.2452295630086256e-02  1.1850535098500850e-02  1.4117583559314946e-02  1.3465974829188307e-02  2.6123457037931713e-02  2.4474358009801873e-02  2.5111486379965037e-02  2.2828778771472186e-02  2.3465916839617670e-02  2.1183218618942467e-02  1.9537651579023128e-02  2.1820347028024559e-02  2.0174777459421880e-02  1.8548886413134805e-02  5.2617772338847072e-03  6.9070706915013418e-03  2.6776771658960072e-02  8.5413259820372959e-03  2.5118252359545418e-02  2.3465917574025420e-02  1.0186895980657232e-02  2.1836912557369838e-02  1.1833969088635833e-02  2.0181533256250120e-02  1.3476423834364686e-02  1.8556652212744502e-02  1.5924639586784885e-02  3.6308193064061912e-03  3.6318363601896136e-03  5.4231204863268683e-04  5.5037120990131532e-04  4.2639141274615393e-03  4.2639100391539753e-03  2.7764813967236610e-02  1.5103846136260486e-02  1.6927146739616410e-02  2.9436651848419398e-02  2.6602547605183244e-03  2.6695604756661324e-03  1.9563969606797078e-02  1.8555421568873229e-02  2.1212058103381188e-02  2.2857627804767761e-02  2.4484152292646947e-02  2.6129722241160652e-02  7.5386322530911851e-03  1.0184024618566989e-02  5.2480304788331909e-03  8.5502577393206224e-03  1.2475341381336357e-02  1.3496318946776569e-02  3.0443583889178037e-02  3.0375328900525866e-02  1.6416918220404926e-02  1.7991365373029315e-02  1.4021872993150476e-02  2.8243241993704628e-02  2.1219900316309156e-03  2.1250569500137380e-03  2.6659212697701530e-02  1.2628893453707980e-02  7.6921829565348510e-03  2.5962300070963607e-02  2.4316730081708350e-02  2.2677681388294790e-02  2.1025590756894006e-02  1.9361374322314155e-02  1.8714723376758096e-02  5.0936081815134062e-03  8.3837655224446878e-03  1.0028134607504782e-02  1.3320476192821298e-02  2.6825775628771583e-03  3.6303672084140367e-03  3.4784088759533165e-03  2.7595287968552970e-02  1.2135194403503807e-03  1.2153162297965673e-03  1.4928865433420216e-02  1.7073924510266254e-02  2.8356767033651787e-03  2.9609587221365839e-02  1.7079690805086846e-02  1.4945700296437736e-02  3.0228127150051423e-02  1.7735496270153871e-02  1.0989448046451567e-02  9.3436600964438427e-03  6.0527353501945809e-03  1.4276979900216190e-02  1.0956197224000585e-02  9.3114123052247585e-03  1.1658903954965490e-02  6.0194883976178153e-03  6.7337305940904438e-03  2.0352935617904921e-02  2.1998499077213195e-02  2.3644074891467654e-02  2.5289644639267878e-02  6.7204441976478641e-03  2.6911029885448037e-02  2.5289172717358230e-02  2.3635278054580402e-02  2.1998252171366538e-02  1.1669500304918973e-02  2.0350585345072166e-02  4.4376927466457088e-03  4.4244255804513121e-03  3.0499645894509125e-02  1.8549489945445597e-03  1.8879330371896804e-03  3.1131213654108477e-02  3.1156583691576645e-02  2.6946239281905343e-02  1.1372200233423207e-03  2.7547133185045369e-02  1.6291317840256923e-02  1.4364450835517047e-02  1.7726083028698304e-02  1.3930044507836925e-03  4.7540908570566662e-04  5.0313954510451946e-04  1.5469221080343864e-02  1.4821591639638263e-02  1.7217882509305834e-02  1.5578031414223585e-02  1.6449753428475510e-02  2.9625382435334996e-02  2.7433946315240310e-02  2.8277679958021135e-02  2.9131580849258275e-02  2.9748009764059967e-02  1.5592245961547598e-02  2.8962251804847145e-02  2.8220086927317315e-02  1.9434715759039947e-02  2.1084302161304962e-02  2.2729870951875977e-02  2.4374130094631574e-02  2.6018801914277190e