<?xml version="1.0"?>
<VTKFile type="UnstructuredGrid"  version="0.1"  >
<UnstructuredGrid>
<Piece  NumberOfPoints="8545" NumberOfCells="16538">
<Points>
<DataArray  type="Float64"  NumberOfComponents="3"  format="ascii">0 0 0  2 0 0  2 0.2 0  0 0.2 0  0.007999999999984813 0 0  0.01599999999996964 0 0  0.02399999999995461 0 0  0.03199999999993959 0 0  0.03999999999992457 0 0  0.04799999999990945 0 0  0.05599999999989373 0 0  0.06399999999987775 0 0  0.07199999999986065 0 0  0.07999999999984338 0 0  0.08799999999982558 0 0  0.09599999999980778 0 0  0.10399999999979 0 0  0.1119999999997726 0 0  0.1199999999997562 0 0  0.1279999999997408 0 0  0.1359999999997272 0 0  0.1439999999997141 0 0  0.1519999999997019 0 0  0.1599999999996896 0 0  0.1679999999996774 0 0  0.1759999999996651 0 0  0.1839999999996529 0 0  0.1919999999996407 0 0  0.1999999999996284 0 0  0.2079999999996162 0 0  0.2159999999996039 0 0  0.2239999999995916 0 0  0.2319999999995794 0 0  0.2399999999995652 0 0  0.2479999999995501 0 0  0.2559999999995309 0 0  0.2639999999995103 0 0  0.2719999999994875 0 0  0.2799999999994642 0 0  0.2879999999994408 0 0  0.2959999999994175 0 0  0.3039999999993941 0 0  0.3119999999993708 0 0  0.3199999999993474 0 0  0.3279999999993241 0 0  0.3359999999993007 0 0  0.3439999999992774 0 0  0.351999999999254 0 0  0.3599999999992307 0 0  0.3679999999992074 0 0  0.375999999999184 0 0  0.3839999999991606 0 0  0.3919999999991373 0 0  0.3999999999991139 0 0  0.4079999999990906 0 0  0.4159999999990672 0 0  0.4239999999990439 0 0  0.4319999999990204 0 0  0.4399999999989971 0 0  0.4479999999989738 0 0  0.4559999999989504 0 0  0.463999999998927 0 0  0.4719999999989037 0 0  0.4799999999988804 0 0  0.487999999998857 0 0  0.4959999999988337 0 0  0.5039999999988103 0 0  0.511999999998787 0 0  0.5199999999987636 0 0  0.5279999999987403 0 0  0.5359999999987169 0 0  0.5439999999986936 0 0  0.5519999999986703 0 0  0.559999999998647 0 0  0.5679999999986237 0 0  0.5759999999986004 0 0  0.583999999998577 0 0  0.5919999999985537 0 0  0.5999999999985304 0 0  0.6079999999985071 0 0  0.6159999999984838 0 0  0.6239999999984605 0 0  0.6319999999984371 0 0  0.6399999999984138 0 0  0.6479999999983904 0 0  0.6559999999983671 0 0  0.6639999999983438 0 0  0.6719999999983205 0 0  0.6799999999982972 0 0  0.6879999999982739 0 0  0.6959999999982506 0 0  0.7039999999982272 0 0  0.7119999999982038 0 0  0.7199999999981805 0 0  0.7279999999981572 0 0  0.7359999999981339 0 0  0.7439999999981106 0 0  0.7519999999980873 0 0  0.759999999998064 0 0  0.7679999999980406 0 0  0.7759999999980173 0 0  0.783999999997994 0 0  0.7919999999979707 0 0  0.7999999999979474 0 0  0.807999999997924 0 0  0.8159999999979007 0 0  0.8239999999978773 0 0  0.831999999997854 0 0  0.8399999999978307 0 0  0.8479999999978074 0 0  0.855999999997784 0 0  0.8639999999977607 0 0  0.8719999999977374 0 0  0.8799999999977141 0 0  0.8879999999976906 0 0  0.8959999999976673 0 0  0.903999999997644 0 0  0.9119999999976207 0 0  0.9199999999975974 0 0  0.9279999999975741 0 0  0.9359999999975508 0 0  0.9439999999975274 0 0  0.9519999999975041 0 0  0.9599999999974808 0 0  0.9679999999974574 0 0  0.9759999999974341 0 0  0.9839999999974108 0 0  0.9919999999973981 0 0  0.9999999999973858 0 0  1.007999999997396 0 0  1.015999999997406 0 0  1.023999999997427 0 0  1.031999999997449 0 0  1.039999999997469 0 0  1.04799999999749 0 0  1.055999999997512 0 0  1.063999999997533 0 0  1.071999999997554 0 0  1.079999999997575 0 0  1.087999999997596 0 0  1.095999999997617 0 0  1.103999999997638 0 0  1.111999999997659 0 0  1.11999999999768 0 0  1.127999999997702 0 0  1.135999999997722 0 0  1.143999999997744 0 0  1.151999999997765 0 0  1.159999999997786 0 0  1.167999999997807 0 0  1.175999999997828 0 0  1.183999999997849 0 0  1.19199999999787 0 0  1.199999999997891 0 0  1.207999999997912 0 0  1.215999999997933 0 0  1.223999999997955 0 0  1.231999999997976 0 0  1.239999999997997 0 0  1.247999999998018 0 0  1.255999999998039 0 0  1.26399999999806 0 0  1.271999999998081 0 0  1.279999999998102 0 0  1.287999999998123 0 0  1.295999999998144 0 0  1.303999999998166 0 0  1.311999999998186 0 0  1.319999999998208 0 0  1.327999999998229 0 0  1.33599999999825 0 0  1.343999999998271 0 0  1.351999999998292 0 0  1.359999999998313 0 0  1.367999999998334 0 0  1.375999999998355 0 0  1.383999999998376 0 0  1.391999999998397 0 0  1.399999999998418 0 0  1.40799999999844 0 0  1.41599999999846 0 0  1.423999999998482 0 0  1.431999999998503 0 0  1.439999999998524 0 0  1.447999999998545 0 0  1.455999999998566 0 0  1.463999999998587 0 0  1.471999999998608 0 0  1.479999999998629 0 0  1.48799999999865 0 0  1.495999999998672 0 0  1.503999999998693 0 0  1.511999999998714 0 0  1.519999999998735 0 0  1.527999999998756 0 0  1.535999999998777 0 0  1.543999999998798 0 0  1.551999999998819 0 0  1.55999999999884 0 0  1.567999999998861 0 0  1.575999999998882 0 0  1.583999999998904 0 0  1.591999999998924 0 0  1.599999999998946 0 0  1.607999999998967 0 0  1.615999999998988 0 0  1.623999999999009 0 0  1.63199999999903 0 0  1.639999999999051 0 0  1.647999999999072 0 0  1.655999999999093 0 0  1.663999999999114 0 0  1.671999999999136 0 0  1.679999999999157 0 0  1.687999999999177 0 0  1.695999999999199 0 0  1.70399999999922 0 0  1.711999999999241 0 0  1.719999999999262 0 0  1.727999999999283 0 0  1.735999999999304 0 0  1.743999999999325 0 0  1.751999999999346 0 0  1.759999999999367 0 0  1.767999999999389 0 0  1.775999999999409 0 0  1.783999999999431 0 0  1.791999999999452 0 0  1.799999999999473 0 0  1.807999999999494 0 0  1.815999999999515 0 0  1.823999999999536 0 0  1.831999999999557 0 0  1.839999999999578 0 0  1.847999999999599 0 0  1.85599999999962 0 0  1.863999999999641 0 0  1.871999999999663 0 0  1.879999999999684 0 0  1.887999999999705 0 0  1.895999999999726 0 0  1.903999999999747 0 0  1.911999999999768 0 0  1.919999999999789 0 0  1.92799999999981 0 0  1.935999999999831 0 0  1.943999999999853 0 0  1.951999999999873 0 0  1.959999999999895 0 0  1.967999999999916 0 0  1.975999999999937 0 0  1.983999999999958 0 0  1.991999999999979 0 0  2 0.007999999999985056 0  2 0.01599999999997076 0  2 0.02399999999995914 0  2 0.03199999999993772 0  2 0.03999999999991205 0  2 0.04799999999988908 0  2 0.05599999999986612 0  2 0.06399999999984315 0  2 0.07199999999982019 0  2 0.07999999999979179 0  2 0.08799999999976883 0  2 0.09599999999974587 0  2 0.1039999999997452 0  2 0.1119999999997669 0  2 0.1199999999997886 0  2 0.1279999999998103 0  2 0.135999999999832 0  2 0.1439999999998537 0  2 0.1519999999998738 0  2 0.1599999999998949 0  2 0.1679999999999159 0  2 0.175999999999937 0  2 0.183999999999958 0  2 0.191999999999979 0  1.991999999999967 0.2 0  1.983999999999933 0.2 0  1.9759999999999 0.2 0  1.967999999999867 0.2 0  1.959999999999834 0.2 0  1.9519999999998 0.2 0  1.943999999999767 0.2 0  1.935999999999734 0.2 0  1.9279999999997 0.2 0  1.919999999999667 0.2 0  1.911999999999634 0.2 0  1.9039999999996 0.2 0  1.895999999999567 0.2 0  1.887999999999534 0.2 0  1.879999999999501 0.2 0  1.871999999999467 0.2 0  1.863999999999434 0.2 0  1.855999999999401 0.2 0  1.847999999999367 0.2 0  1.839999999999334 0.2 0  1.831999999999301 0.2 0  1.823999999999268 0.2 0  1.815999999999234 0.2 0  1.807999999999201 0.2 0  1.799999999999168 0.2 0  1.791999999999135 0.2 0  1.783999999999101 0.2 0  1.775999999999068 0.2 0  1.767999999999035 0.2 0  1.759999999999017 0.2 0  1.751999999999006 0.2 0  1.743999999999028 0.2 0  1.735999999999061 0.2 0  1.727999999999112 0.2 0  1.719999999999168 0.2 0  1.711999999999223 0.2 0  1.703999999999279 0.2 0  1.695999999999334 0.2 0  1.68799999999939 0.2 0  1.679999999999446 0.2 0  1.671999999999501 0.2 0  1.663999999999557 0.2 0  1.655999999999612 0.2 0  1.647999999999668 0.2 0  1.639999999999723 0.2 0  1.631999999999779 0.2 0  1.623999999999834 0.2 0  1.61599999999989 0.2 0  1.607999999999945 0.2 0  1.600000000000001 0.2 0  1.592000000000056 0.2 0  1.584000000000112 0.2 0  1.576000000000167 0.2 0  1.568000000000223 0.2 0  1.560000000000279 0.2 0  1.552000000000334 0.2 0  1.54400000000039 0.2 0  1.536000000000445 0.2 0  1.528000000000501 0.2 0  1.520000000000556 0.2 0  1.512000000000612 0.2 0  1.504000000000667 0.2 0  1.496000000000723 0.2 0  1.488000000000778 0.2 0  1.480000000000834 0.2 0  1.472000000000889 0.2 0  1.464000000000945 0.2 0  1.456000000001 0.2 0  1.448000000001056 0.2 0  1.440000000001112 0.2 0  1.432000000001167 0.2 0  1.424000000001223 0.2 0  1.416000000001278 0.2 0  1.408000000001334 0.2 0  1.400000000001389 0.2 0  1.392000000001445 0.2 0  1.3840000000015 0.2 0  1.376000000001556 0.2 0  1.368000000001611 0.2 0  1.360000000001667 0.2 0  1.352000000001722 0.2 0  1.344000000001778 0.2 0  1.336000000001833 0.2 0  1.328000000001889 0.2 0  1.320000000001944 0.2 0  1.312000000002 0.2 0  1.304000000002055 0.2 0  1.296000000002111 0.2 0  1.288000000002166 0.2 0  1.280000000002222 0.2 0  1.272000000002277 0.2 0  1.264000000002333 0.2 0  1.256000000002388 0.2 0  1.248000000002444 0.2 0  1.240000000002499 0.2 0  1.232000000002555 0.2 0  1.22400000000261 0.2 0  1.216000000002666 0.2 0  1.208000000002721 0.2 0  1.200000000002777 0.2 0  1.192000000002832 0.2 0  1.184000000002888 0.2 0  1.176000000002943 0.2 0  1.168000000002999 0.2 0  1.160000000003054 0.2 0  1.15200000000311 0.2 0  1.144000000003165 0.2 0  1.136000000003221 0.2 0  1.128000000003276 0.2 0  1.120000000003332 0.2 0  1.112000000003387 0.2 0  1.104000000003443 0.2 0  1.096000000003498 0.2 0  1.088000000003554 0.2 0  1.080000000003609 0.2 0  1.072000000003665 0.2 0  1.06400000000372 0.2 0  1.056000000003776 0.2 0  1.048000000003831 0.2 0  1.040000000003887 0.2 0  1.032000000003942 0.2 0  1.024000000003998 0.2 0  1.016000000004053 0.2 0  1.008000000004088 0.2 0  1.000000000004121 0.2 0  0.99200000000411 0.2 0  0.984000000004098 0.2 0  0.9760000000040647 0.2 0  0.9680000000040314 0.2 0  0.9600000000039981 0.2 0  0.9520000000039648 0.2 0  0.9440000000039312 0.2 0  0.9360000000038982 0.2 0  0.928000000003864
[...]
<PointData  Scalars="pressure"> 
<DataArray  type="Float64"  Name="pressure"  format="ascii">3.5161440709037678e-02  3.3700570585163902e-07  3.2944896691299832e-07  3.5161493299519918e-02  3.5021128768916457e-02  3.4880554023100252e-02  3.4739727707057660e-02  3.4599380361312090e-02  3.4458395744917561e-02  3.4317802512881065e-02  3.4177172335429884e-02  3.4036766187234023e-02  3.3895936939236503e-02  3.3755242216050918e-02  3.3614642800152597e-02  3.3473917177523585e-02  3.3333413864107035e-02  3.3192570273786942e-02  3.3052095821802963e-02  3.2911387330807784e-02  3.2770730834371493e-02  3.2630096047064253e-02  3.2489582627048735e-02  3.2348766894449633e-02  3.2207983776770185e-02  3.2067664499443892e-02  3.1926797858004410e-02  3.1786308351931733e-02  3.1645529171333904e-02  3.1504884912530812e-02  3.1364181287930670e-02  3.1223801976301431e-02  3.1082954161031733e-02  3.0942259047945380e-02  3.0801759220084067e-02  3.0660990342308247e-02  3.0520470350114581e-02  3.0379996725220675e-02  3.0238735356564097e-02  3.0098546287019100e-02  2.9957692885827975e-02  2.9817484547031058e-02  2.9676409216405981e-02  2.9535770097742029e-02  2.9395225086768492e-02  2.9254702962007779e-02  2.9113940707555873e-02  2.8973403302780386e-02  2.8832439384029167e-02  2.8692054064627038e-02  2.8551262763426611e-02  2.8410712008216574e-02  2.8270132818869611e-02  2.8129288824195638e-02  2.7988776677654863e-02  2.7848081185029010e-02  2.7707516049124983e-02  2.7566702633608497e-02  2.7426238365414954e-02  2.7285427009389410e-02  2.7144970987969627e-02  2.7004303139098646e-02  2.6863663514985411e-02  2.6722659960483987e-02  2.6582440487967929e-02  2.6441694788818304e-02  2.6300885247707073e-02  2.6160365858805025e-02  2.6019670951666945e-02  2.5879104865936958e-02  2.5738291555341731e-02  2.5597853257569747e-02  2.5456984504852100e-02  2.5316566738456770e-02  2.5175868657192145e-02  2.5035302896221062e-02  2.4894241963617357e-02  2.4754033416545980e-02  2.4613281521085734e-02  2.4472473511916202e-02  2.4331954525510655e-02  2.4191259560137884e-02  2.4050694452070028e-02  2.3909881125607570e-02  2.3769416896149951e-02  2.3628605565794367e-02  2.3488149559972922e-02  2.3347481720792419e-02  2.3206842104701628e-02  2.3065838557156798e-02  2.2925619091229369e-02  2.2784873397702386e-02  2.2644063857625133e-02  2.2503544509408228e-02  2.2362849265585898e-02  2.2222284007091184e-02  2.2081470582393129e-02  2.1941006497396297e-02  2.1800194314599845e-02  2.1659743115027941e-02  2.1519056545072308e-02  2.1378448670072828e-02  2.1237431693427771e-02  2.1097197722814393e-02  2.0956466134711256e-02  2.0815688146617009e-02  2.0675192946745257e-02  2.0534335964370556e-02  2.0393860208408107e-02  2.0253174184919110e-02  2.0112354072798301e-02  1.9971983899504438e-02  1.9831247154114273e-02  1.9690669289657334e-02  1.9549736855776663e-02  1.9409452990478950e-02  1.9268709898755058e-02  1.9127746276592646e-02  1.8987655440255359e-02  1.8846479350635627e-02  1.8705992448101730e-02  1.8565654459621484e-02  1.8424717352675413e-02  1.8284047489281613e-02  1.8143689843149971e-02  1.8002640792227811e-02  1.7862251287916308e-02  1.7721523790234884e-02  1.7580830483210415e-02  1.7440214449981731e-02  1.7299689320407752e-02  1.7158874340445773e-02  1.7018329945680501e-02  1.6877515773043202e-02  1.6737133926018003e-02  1.6596260464794680e-02  1.6455819061062693e-02  1.6314953739005506e-02  1.6174328087141136e-02  1.6033952977858229e-02  1.5893013516154075e-02  1.5752438252284187e-02  1.5611720421444019e-02  1.5471339400845623e-02  1.5330493969982224e-02  1.5189767699103355e-02  1.5049554616902954e-02  1.4908385411391783e-02  1.4767969833305550e-02  1.4627222947898018e-02  1.4486510532826402e-02  1.4346245525351603e-02  1.4205217310237557e-02  1.4064644143555497e-02  1.3923912677780642e-02  1.3783572901599666e-02  1.3642629106138851e-02  1.3502167497422083e-02  1.3361458034678541e-02  1.3220845781876185e-02  1.3080139211466174e-02  1.2939620318988985e-02  1.2798807948905203e-02  1.2658088641221922e-02  1.2517841141610010e-02  1.2376801503651955e-02  1.2236234993861663e-02  1.2095501489744981e-02  1.1955160748363076e-02  1.1814218188056102e-02  1.1673746304431317e-02  1.1533043085605583e-02  1.1392442922499713e-02  1.1251731622650302e-02  1.1111241517094384e-02  1.0970391152159054e-02  1.0829678409565200e-02  1.0689422037971139e-02  1.0548389445624881e-02  1.0407826593841410e-02  1.0267088336114911e-02  1.0126750398254182e-02  9.9858075976369618e-03  9.8453316338566813e-03  9.7046314425800213e-03  9.5640324493538511e-03  9.4233205523053341e-03  9.2828308390607087e-03  9.1419802431114850e-03  9.0012677806259149e-03  8.8610124859379007e-03  8.7199776806182044e-03  8.5794170722736356e-03  8.4386757254711967e-03  8.2983383875408247e-03  8.1573989570051866e-03  8.0169317441873365e-03  7.8762247525934158e-03  7.7356126911922243e-03  7.5949067232643991e-03  7.4543879985426087e-03  7.3135757343616645e-03  7.1728550479255131e-03  7.0326104972260762e-03  6.8915649589589593e-03  6.7510058601884665e-03  6.6102565922316874e-03  6.4698819674774977e-03  6.3292493273950610e-03  6.1883397943894814e-03  6.0478362287794312e-03  5.9069921850061925e-03  5.7666898219848337e-03  5.6259263671610410e-03  5.4852625661651793e-03  5.3444137252796091e-03  5.2039085758387978e-03  5.0633952972874248e-03  4.9226447017541005e-03  4.7820875028347729e-03  4.6412279028343519e-03  4.5008748372909928e-03  4.3599769669724888e-03  4.2194706264658648e-03  4.0786819490542525e-03  3.9381282041482191e-03  3.7975648872896422e-03  3.6568513426015812e-03  3.5161851813645673e-03  3.3754222235047107e-03  3.2347904541292754e-03  3.0943968301765080e-03  2.9535470159054332e-03  2.8128691887254796e-03  2.6725799892695595e-03  2.5314386454180042e-03  2.3912965584887251e-03  2.2500742576635796e-03  2.1096342470784991e-03  1.9692424830875673e-03  1.8284249575374798e-03  1.6879427577426093e-03  1.5467996476712922e-03  1.4066718626661286e-03  1.2657722825774455e-03  1.1249664349946785e-03  9.8466344536616451e-04  8.4393990804283519e-04  7.0337788622574376e-04  5.6231110622506977e-04  4.2213561634769290e-04  2.8108857471845878e-04  1.4065620353604397e-04  1.1730074562127503e-08  6.4043513780793510e-08  -6.1307356128226326e-09  1.0998523355704657e-08  -2.5526503377360942e-08  -3.6625671956272065e-09  -6.5646852492808634e-09  -1.6132947752489773e-08  -2.3173237134394292e-09  -4.2329872761220542e-09  -3.2691921700446048e-09  -1.8996948364360610e-09  -2.1461308059258509e-09  -9.6698189204925668e-10  5.0466005687322167e-10  2.4917935119677289e-09  -4.7954680632816276e-09  -8.2555018446001969e-09  -2.4734970909146432e-08  -2.9062244014400871e-08  1.2137907368655570e-08  -1.9231719002148370e-08  6.0804867459564914e-08  1.2065059400740595e-08  1.4066083256983658e-04  2.8118163676607799e-04  4.2205940573346854e-04  5.6234967920371223e-04  7.0335714938979095e-04  8.4393423059459622e-04  9.8466916287791501e-04  1.1249657117164457e-03  1.2657751070207701e-03  1.4066725443666716e-03  1.5467678521906485e-03  1.6879126184049162e-03  1.8284639016432199e-03  1.9692375801554697e-03  2.1096361678247517e-03  2.2500368609432967e-03  2.3913100503095953e-03  2.5314492082394902e-03  2.6725807449351261e-03  2.8127472783348313e-03  2.9535802737070023e-03  3.0944398149915708e-03  3.2347728786045965e-03  3.3754308452780125e-03  3.5161697334370203e-03  3.6568580089521708e-03  3.7975602482609935e-03  3.9381236830784748e-03  4.0786794446569406e-03  4.2194701105405874e-03  4.3599675892866110e-03  4.5008746733005353e-03  4.6412274487887244e-03  4.7820905911126529e-03  4.9226629716830651e-03  5.0633809313190108e-03  5.2038847700166275e-03  5.3444432733820418e-03  5.4852584402027291e-03  5.6259209775534353e-03  5.7666834935314014e-03  5.9070286352537740e-03  6.0478100730008439e-03  6.1883433566319503e-03  6.3292463265204220e-03  6.4698928724564999e-03  6.6102458209038673e-03  6.7510057993921966e-03  6.8916003529153821e-03  7.0325986700456034e-03  7.1728623704716008e-03  7.3135708871992430e-03  7.4543844613708414e-03  7.5949126986522746e-03  7.7356078256058730e-03  7.8761715034844880e-03  8.0169906806474758e-03  8.1574548543124001e-03  8.2982868506807084e-03  8.4386996182024207e-03  8.5794158262157919e-03  8.7199691831407761e-03  8.8610148022367757e-03  9.0012638140459199e-03  9.1419862808339077e-03  9.2828082438391329e-03  9.4233241038310708e-03  9.5640132869593587e-03  9.7045840147236342e-03  9.8454029623237932e-03  9.9858658726782821e-03  1.0126696083852157e-02  1.0267105680534499e-02  1.0407822249578548e-02  1.0548387371059141e-02  1.0689422851707223e-02  1.0829675574508792e-02  1.0970396367825741e-02  1.1111219179990396e-02  1.1251734613174927e-02  1.1392424031614123e-02  1.1532993914048301e-02  1.1673813287866099e-02  1.1814278215095803e-02  1.1955105461081958e-02  1.2095524035174705e-02  1.2236235212192307e-02  1.2376809615698996e-02  1.2517838509597293e-02  1.2658093334064646e-02  1.2798804415925531e-02  1.2939616818470615e-02  1.3080145344893499e-02  1.3220840587124798e-02  1.3361404331280215e-02  1.3502223357144889e-02  1.3642687430115681e-02  1.3783519614004723e-02  1.3923932562224989e-02  1.4064648483469470e-02  1.4205202387602355e-02  1.4346249451496432e-02  1.4486490556579903e-02  1.4627219947270493e-02  1.4768034791492321e-02  1.4908553810907220e-02  1.5049247290465272e-02  1.5189816892568575e-02  1.5330635401450306e-02  1.5471097914679764e-02  1.5611928743264041e-02  1.5752335974764865e-02  1.5893055859770772e-02  1.6033738917480302e-02  1.6174466446387037e-02  1.6314913852041986e-02  1.6455943438006920e-02  1.6596125560525546e-02  1.6737174469026901e-02  1.6877718729745788e-02  1.7017996728999764e-02  1.7159139326178567e-02  1.7299383467756033e-02  1.7440229567321816e-02  1.7581006646010828e-02  1.7721585331622356e-02  1.7862108310787286e-02  1.8002696079061499e-02  1.8143452938107128e-02  1.8284174572962563e-02  1.8424845892028505e-02  1.8565257423087525e-02  1.8706026897510275e-02  1.8846588537922326e-02  1.8987534057387800e-02  1.9127765783473305e-02  1.9268764435000526e-02  1.9409219646070376e-02  1.9549918755956165e-02  1.9690615047538343e-02  1.9831368013012083e-02  1.9971771885585951e-02  2.0112597382582042e-02  2.0253058287828262e-02  2.0393869942135469e-02  2.0534445142190910e-02  2.0675133120097638e-02  2.0815649336846712e-02  2.0956457143919922e-02  2.1097218590965163e-02  2.1237438609764365e-02  2.1378440740226920e-02  2.1519030001696731e-02  2.1659772521884994e-02  2.1800122328553804e-02  2.1941062136432120e-02  2.2081532176648981e-02  2.2222232815336883e-02  2.2362840215393361e-02  2.2503548129229622e-02  2.2644062169220717e-02  2.2784867471037851e-02  2.2925629920811427e-02  2.3065851557500017e-02  2.3206845697807323e-02  2.3347436958627864e-02  2.3488191182706734e-02  2.3628531388134429e-02  2.3769473298319504e-02  2.3909943466012752e-02  2.4050643828266313e-02  2.4191250773696358e-02  2.4331959991995288e-02  2.4472465066196079e-02  2.4613281464449417e-02  2.4754036059731165e-02  2.4894260243892772e-02  2.5035271808396660e-02  2.5175849472629758e-02  2.5316594484946494e-02  2.5456999570498427e-02  2.5597830689022345e-02  2.5738292052722305e-02  2.5879102914864734e-02  2.6019672215774697e-02  2.6160365449819683e-02  2.6300884319393206e-02  2.6441694736563062e-02  2.6582442896473973e-02  2.6722672270637376e-02  2.6863671875971898e-02  2.7004264385368838e-02  2.7145004783773154e-02  2.7285356476518322e-02  2.7426295038714705e-02  2.7566765010998508e-02  2.7707465945211736e-02  2.7848064297142466e-02  2.7988783261327106e-02  2.8129292630190452e-02  2.8270099594514837e-02  2.8410860751401250e-02  2.8551084747995670e-02  2.8692078544718020e-02  2.8832670095418334e-02  2.8973435674324796e-02  2.9113830478545766e-02  2.9254431774172807e-02  2.9395329844843419e-02  2.9535866542273161e-02  2.9676671579491311e-02  2.9817023641846352e-02  2.9957757118749300e-02  3.0098464990624272e-02  3.0239184406547631e-02  3.0379616396416231e-02  3.0520635787681660e-02  3.0660887342243908e-02  3.0801757842573493e-02  3.0942311701185346e-02  3.1082963703340082e-02  3.1223499056578889e-02  3.1364381756941645e-02  3.1505088425109497e-02  3.1645525895530165e-02  3.1786150501342203e-02  3.1926884888360332e-02  3.2067632860440370e-02  3.2208006524620976e-02  3.2348926958830175e-02  3.2489391427616164e-02  3.2630163014894527e-02  3.2770449314999395e-02  3.2911564822085161e-02  3.3052047364893596e-02  3.3192668337085604e-02  3.3333541466329726e-02  3.3473863613261975e-02  3.3614690366151528e-02  3.3754984970581242e-02  3.3896140648114526e-02  3.4036630029870223e-02  3.4177186167586422e-02  3.4317711420682115e-02  3.4458691013081376e-02  3.4599123661941178e-02  3.4739893155604794e-02  3.4880559443134597e-02  3.5021033146571803e-02  3.5161715330973273e-02  3.5161702370013738e-02  3.5161773104464333e-02  3.5161743287987032e-02  3.5161767464182418e-02  3.5161771331971459e-02  3.5161745746573797e-02  3.5161730732898515e-02  3.5161741668005835e-02  3.5161746273561639e-02  3.5161742469180475e-02  3.5161747271729757e-02  3.5161742841414143e-02  3.5161741947786658e-02  3.5161749017492201e-02  3.5161749658022538e-02  3.5161765798830714e-02  3.5161760892416127e-02  3.5161750721886813e-02  3.5161750328631627e-02  3.5161740334697232e-02  3.5161760923877163e-02  3.5161701312034811e-02  3.5161726245343111e-02  5.2774176890207749e-03  7.1026730440180257e-03  8.9526031016274928e-03  1.0755990119338091e-02  1.2587905692956800e-02  1.4416317749556005e-02  1.6236223932258875e-02  3.0314956154242362e-02  2.8479149231566036e-02  3.3263012403323931e-02  2.6650738061458807e-02  2.4825483769316231e-02  2.2993917941286753e-02  2.1176892776968978e-02  1.9338963590838434e-02  1.7672496670990995e-03  3.5161752045130860e-03  1.7797931553385590e-02  3.1783650213244419e-02  6.1836858488661904e-03  8.0158141093381406e-03  9.8442421441248852e-03  1.1673674697338479e-02  1.3503945576013096e-02  1.5330515120810788e-02  2.9402749367472544e-02  2.7544191586462565e-02  2.5715780978451799e-02  2.3887369547932913e-02  2.2058958152492175e-02  2.0262305341929167e-02  1.5316279356586172e-02  1.3521180023773512e-02  1.1675785344606948e-02  2.0253159280336337e-02  2.2075180886581086e-02  9.8475277629619488e-03  8.0392846707027336e-03  2.3905170638780174e-02  2.5738402514981551e-02  2.7568279021311207e-02  6.1907072826789663e-03  2.9418186190782972e-02  2.6525855413191764e-03  2.6281945912608709e-03  4.3672100630765829e-03  4.4209123285638531e-03  3.2405853837196165e-02  3.1174716553119930e-02  1.7107941142389081e-02  1.8466875022702351e-02  3.4087281896245582e-02  3.4089316702391979e-02  1.0035123557306424e-03  1.0294971141815456e-03  1.8646763330767094e-02  1.6934995319991035e-02  3.2637050575083898e-02  3.0911663501585845e-02  5.2741957906634442e-03  7.1026949707097631e-03  8.9357792519897932e-03  1.0773867363957967e-02  1.2587928107345986e-02  1.4416356869378942e-02  1.6244759053083601e-02  2.8447386795385353e-02  2.6618975136347364e-02  2.4790561114728639e-02  2.2962153738025789e-02  2.1167406861393335e-02  1.4386048653877041e-02  1.2558168801452834e-02  1.0736290762263945e-02  8.9008150378659130e-03  7.0729358063811414e-03  5.2797680739054657e-03  1.9319242407720299e-02  2.1167339667324057e-02  2.3021320351321074e-02  2.4849736452392801e-02  2.6652620940816468e-02  2.8506562008063719e-02  3.0299819663086255e-02  3.4751670306298788e-03  3.4772413442102691e-03  3.3244769320010630e-02  1.9474237084625961e-02  1.6127839336700679e-02  1.8430788510593137e-03  1.8430717205883593e-03  3.0150474544377397e-02  1.7662808972964964e-02  7.7018511986277037e-04  3.3366874498507698e-02  1.7794528112638142e-02  3.4411119265481960e-02  3.1945155470406217e-02  3.2546128135771721e-02  3.1040074247290304e-02  1.8509975503296406e-02  1.6965787656993993e-02  3.1792036232451575e-02  4.5872454687854456e-03  2.4427515778439792e-03  6.4206043653778312e-03  1.5564966544571169e-02  1.0077426076787837e-02  1.3269976417575335e-02  1.1905836957415298e-02  7.7825810954086465e-03  2.0024206626069112e-02  2.9628082637771860e-02  2.7787501310039348e-02  2.5949199862373467e-02  2.4135561927539927e-02  2.2309622037433256e-02  3.1799729414323311e-02  3.4537569667140243e-02  3.4534844598120763e-02  1.9902316491281692e-02  2.1742976035473652e-02  1.3839150623582781e-02  2.3572495612438637e-02  2.5399798983144168e-02  1.2030464548844339e-02  2.7229310097042714e-02  1.0202970217550704e-02  2.9057723782558161e-02  8.3837600191172795e-03  6.5305742114469519e-03  8.3535347373191217e-03  6.5441560384178589e-03  7.6820254524667562e-03  5.8183901631568237e-03  1.0200965858391796e-02  1.2029400031014206e-02  9.4769632101673815e-03  1.1305372342724340e-02  1.3835888210806425e-02  1.3167258227879612e-02  1.5686208297483586e-02  1.4962186048202850e-02  2.9026066975704368e-02  2.7193733133109979e-02  2.7901651346844473e-02  2.5365314780288258e-02  2.6073240722240841e-02  2.3536911689032138e-02  2.1708503843802317e-02  2.4244829878520561e-02  2.2416419355310462e-02  2.0609869873715155e-02  5.8464260766844991e-03  7.6745249785885776e-03  2.9751965183729908e-02  9.4903627432808470e-03  2.7909159940060688e-02  2.6073242542947097e-02  1.1318773855993456e-02  2.4263233420826022e-02  1.3148854653895703e-02  2.2423917344776195e-02  1.4973799690819438e-02  2.0618500232780276e-02  1.7694047147473083e-02  4.0342529378826998e-03  4.0353837641006352e-03  6.0255401998394391e-04  6.1150990870849473e-04  4.7376768888449513e-03  4.7376760701559086e-03  3.0849795079647441e-02  1.6782053878831305e-02  1.8807942012721970e-02  3.2707391634041565e-02  2.9558295687346038e-03  2.9661800503113780e-03  2.1737745937321137e-02  2.0617131427599317e-02  2.3568957941024867e-02  2.5397367917048084e-02  2.7204614168022879e-02  2.9033026272282190e-02  8.3762572337261251e-03  1.1315587844792935e-02  5.8311501727976054e-03  9.5002920711652582e-03  1.3861489036078855e-02  1.4995912497561083e-02  3.3826207905539224e-02  3.3750368963433974e-02  1.8241023128039463e-02  1.9990423871028205e-02  1.5579862906724353e-02  3.1381384863057069e-02  2.3577825205088727e-03  2.3611768375128199e-03  2.9621351797575281e-02  1.4032096604218669e-02  8.5468597737591249e-03  2.8846998060216431e-02  2.7018585074491085e-02  2.5197419159892150e-02  2.3361763698274342e-02  2.1512643256476612e-02  2.0794138682139984e-02  5.6595741688013406e-03  9.3153025494638868e-03  1.1142380561646932e-02  1.4800541953005739e-02  2.9806501627987364e-03  4.0337428721528897e-03  3.8648901602825435e-03  3.0661432949401601e-02  1.3483450612945288e-03  1.3503577232696960e-03  1.6587625879281035e-02  1.8971027792240244e-02  3.1507394431910429e-03  3.2899541419689891e-02  1.8977428342509983e-02  1.6606339718728769e-02  3.3586808510479162e-02  1.9706106967932405e-02  1.2210504370691369e-02  1.0381847176071744e-02  6.7252635855504428e-03  1.5863318919485881e-02  1.2173556258731792e-02  1.0346018752599911e-02  1.2954335528319743e-02  6.6883263913372262e-03  7.4819195918341313e-03  2.2614395732354794e-02  2.4442775495536185e-02  2.6271216706575562e-02  2.8099627960724863e-02  7.4671669519875312e-03  2.9901142870904836e-02  2.8099078521132588e-02  2.6261406627150076e-02  2.4442505897119330e-02  1.2966119538572150e-02  2.2611756870010321e-02  4.9307754591853478e-03  4.9160332936270638e-03  3.3888508298586438e-02  2.0610404553642486e-03  2.0977118982782178e-03  3.4590257282087741e-02  3.4618443598209703e-02  2.9940263029200068e-02  1.2635883255850654e-03  3.0607939710463276e-02  1.8101475867343991e-02  1.5960506611401599e-02  1.9695653502430285e-02  1.5477875683095348e-03  5.2822542861801056e-04  5.5905048352753882e-04  1.7188019583646862e-02  1.6468437345659538e-02  1.9130988636187059e-02  1.7308924957503344e-02  1.8277501586740696e-02  3.2917107994437637e-02  3.0482181985710607e-02  3.1419646324754275e-02  3.2368429722297282e-02  3.3053347045418152e-02  1.7324721802047038e-02  3.2180294614529099e-02  3.1355658672826664e-02  2.1594131874220983e-02  2.3427007157125954e-02  2.5255416851381451e-02  2.7082370739060432e-02  2.8909784904979998e