<?xml version="1.0"?>
<VTKFile type="UnstructuredGrid"  version="0.1"  >
<UnstructuredGrid>
<Piece  NumberOfPoints="21600" NumberOfCells="42542">
<Points>
<DataArray  type="Float64"  NumberOfComponents="3"  format="ascii">0 0 0  0.77 0 0  0.77 0.15 0  0 0.15 0  0.003221757322170014 0 0  0.006443514644340046 0 0  0.009665271966510193 0 0  0.01288702928868034 0 0  0.01610878661085048 0 0  0.01933054393302049 0 0  0.02255230125519027 0 0  0.02577405857735967 0 0  0.02899581589952872 0 0  0.03221757322169801 0 0  0.03543933054386744 0 0  0.03866108786603686 0 0  0.04188284518820627 0 0  0.0451046025103757 0 0  0.04832635983254521 0 0  0.05154811715471607 0 0  0.05476987447688695 0 0  0.05799163179905782 0 0  0.06121338912122846 0 0  0.06443514644339859 0 0  0.06765690376556875 0 0  0.0708786610877389 0 0  0.07410041840990904 0 0  0.0773221757320792 0 0  0.08054393305425039 0 0  0.08376569037642198 0 0  0.0869874476985936 0 0  0.09020920502076518 0 0  0.0934309623429339 0 0  0.0966527196651024 0 0  0.09987447698726967 0 0  0.1030962343094369 0 0  0.1063179916316041 0 0  0.1095397489537714 0 0  0.1127615062759386 0 0  0.1159832635981051 0 0  0.1192050209202709 0 0  0.1224267782424358 0 0  0.1256485355646001 0 0  0.1288702928867644 0 0  0.1320920502089288 0 0  0.1353138075310958 0 0  0.1385355648532632 0 0  0.1417573221754333 0 0  0.1449790794976035 0 0  0.1482008368197736 0 0  0.1514225941419428 0 0  0.1546443514641101 0 0  0.157866108786276 0 0  0.1610878661084403 0 0  0.1643096234306047 0 0  0.167531380752769 0 0  0.1707531380749333 0 0  0.1739748953970977 0 0  0.177196652719262 0 0  0.1804184100414264 0 0  0.1836401673635935 0 0  0.1868619246857611 0 0  0.1900836820079313 0 0  0.1933054393301014 0 0  0.1965271966522716 0 0  0.1997489539744406 0 0  0.2029707112966078 0 0  0.2061924686187736 0 0  0.209414225940938 0 0  0.2126359832631022 0 0  0.2158577405852666 0 0  0.219079497907431 0 0  0.2223012552295953 0 0  0.2255230125517597 0 0  0.2287447698739242 0 0  0.2319665271960914 0 0  0.2351882845182592 0 0  0.2384100418404293 0 0  0.2416317991625994 0 0  0.2448535564847696 0 0  0.2480753138069371 0 0  0.2512970711291014 0 0  0.2545188284512658 0 0  0.2577405857734302 0 0  0.2609623430955986 0 0  0.2641841004177688 0 0  0.2674058577399389 0 0  0.270627615062109 0 0  0.2738493723842792 0 0  0.2770711297064487 0 0  0.280292887028613 0 0  0.2835146443507774 0 0  0.2867364016729417 0 0  0.2899581589951061 0 0  0.2931799163172705 0 0  0.2964016736394348 0 0  0.2996234309615992 0 0  0.3028451882837672 0 0  0.3060669456059373 0 0  0.3092887029281075 0 0  0.3125104602502776 0 0  0.3157322175724478 0 0  0.3189539748946177 0 0  0.322175732216782 0 0  0.3253974895389464 0 0  0.3286192468611107 0 0  0.3318410041832751 0 0  0.3350627615054395 0 0  0.3382845188276038 0 0  0.3415062761497681 0 0  0.3447280334719325 0 0  0.3479497907940968 0 0  0.3511715481162612 0 0  0.3543933054384255 0 0  0.3576150627605947 0 0  0.3608368200827649 0 0  0.364058577404935 0 0  0.3672803347271051 0 0  0.3705020920492753 0 0  0.373723849371444 0 0  0.3769456066936084 0 0  0.3801673640157748 0 0  0.383389121337945 0 0  0.3866108786601209 0 0  0.3898326359823028 0 0  0.3930543933044846 0 0  0.3962761506266662 0 0  0.399497907948848 0 0  0.4027196652710298 0 0  0.4059414225932116 0 0  0.4091631799153934 0 0  0.4123849372375751 0 0  0.4156066945597569 0 0  0.4188284518819387 0 0  0.4220502092041222 0 0  0.4252719665263097 0 0  0.4284937238484974 0 0  0.4317154811706849 0 0  0.4349372384928725 0 0  0.4381589958150601 0 0  0.4413807531372476 0 0  0.4446025104594352 0 0  0.4478242677816181 0 0  0.4510460251037998 0 0  0.4542677824259815 0 0  0.4574895397481634 0 0  0.4607112970703451 0 0  0.4639330543925269 0 0  0.4671548117147087 0 0  0.4703765690368904 0 0  0.4735983263590722 0 0  0.4768200836812568 0 0  0.4800418410034444 0 0  0.483263598325632 0 0  0.4864853556478196 0 0  0.4897071129700028 0 0  0.4929288702921845 0 0  0.4961506276143663 0 0  0.4993723849365479 0 0  0.5025941422587239 0 0  0.5058158995809008 0 0  0.5090376569030826 0 0  0.5122594142252677 0 0  0.515481171547461 0 0  0.5187029288696494 0 0  0.5219246861918312 0 0  0.525146443514013 0 0  0.5283682008361947 0 0  0.5315899581583845 0 0  0.5348117154805778 0 0  0.5380334728027617 0 0  0.5412552301249435 0 0  0.5444769874471141 0 0  0.5476987447692853 0 0  0.550920502091467 0 0  0.5541422594136513 0 0  0.5573640167358447 0 0  0.560585774058034 0 0  0.5638075313802158 0 0  0.5670292887023975 0 0  0.5702510460245793 0 0  0.5734728033467682 0 0  0.5766945606689615 0 0  0.579916317991155 0 0  0.5831380753133483 0 0  0.5863598326355314 0 0  0.5895815899577131 0 0  0.5928033472798949 0 0  0.5960251046020785 0 0  0.5992468619242718 0 0  0.6024686192464619 0 0  0.6056903765686437 0 0  0.6089121338908206 0 0  0.6121338912129908 0 0  0.6153556485351673 0 0  0.618577405857349 0 0  0.6217991631795386 0 0  0.625020920501732 0 0  0.6282426778239159 0 0  0.6314644351460976 0 0  0.6346861924682795 0 0  0.6379079497904622 0 0  0.6411297071126555 0 0  0.6443514644348465 0 0  0.6475732217570283 0 0  0.650794979079206 0 0  0.6540167364013761 0 0  0.6572384937235518 0 0  0.6604602510457335 0 0  0.6636820083679225 0 0  0.6669037656901158 0 0  0.6701255230123004 0 0  0.6733472803344823 0 0  0.6765690376566641 0 0  0.6797907949788459 0 0  0.6830125523010393 0 0  0.686234309623231 0 0  0.6894560669454127 0 0  0.6926778242675914 0 0  0.6958995815897615 0 0  0.6991213389119363 0 0  0.7023430962341181 0 0  0.7055648535563062 0 0  0.7087866108784994 0 0  0.712008368200685 0 0  0.7152301255228668 0 0  0.7184518828450486 0 0  0.7216736401672305 0 0  0.724895397489423 0 0  0.7281171548116155 0 0  0.7313389121337973 0 0  0.7345606694559768 0 0  0.7377824267781468 0 0  0.7410041841003209 0 0  0.7442259414225026 0 0  0.7474476987446899 0 0  0.7506694560668832 0 0  0.7538912133890696 0 0  0.7571129707112513 0 0  0.760334728033433 0 0  0.7635564853556149 0 0  0.7667782426778067 0 0  0.77 0.001685393258423789 0  0.77 0.003370786516847669 0  0.77 0.005056179775271247 0  0.77 0.006741573033694517 0  0.77 0.008426966292117821 0  0.77 0.01011235955054176 0  0.77 0.01179775280896623 0  0.77 0.0134831460673904 0  0.77 0.01516853932581489 0  0.77 0.01685393258423891 0  0.77 0.01853932584266291 0  0.77 0.02022471910108589 0  0.77 0.02191011235950794 0  0.77 0.02359550561792999 0  0.77 0.02528089887635205 0  0.77 0.02696629213477411 0  0.77 0.02865168539319714 0  0.77 0.03033707865161956 0  0.77 0.03202247191004162 0  0.77 0.03370786516846367 0  0.77 0.03539325842688572 0  0.77 0.03707865168530778 0  0.77 0.03876404494372984 0  0.77 0.0404494382021519 0  0.77 0.04213483146057394 0  0.77 0.04382022471899601 0  0.77 0.04550561797741807 0  0.77 0.04719101123584013 0  0.77 0.04887640449426219 0  0.77 0.05056179775268425 0  0.77 0.0522471910111063 0  0.77 0.05393258426952837 0  0.77 0.05561797752795105 0  0.77 0.05730337078637505 0  0.77 0.05898876404479723 0  0.77 0.0606741573032193 0  0.77 0.06235955056164135 0  0.77 0.06404494382006341 0  0.77 0.06573033707848548 0  0.77 0.06741573033690752 0  0.77 0.06910112359532959 0  0.77 0.07078651685375165 0  0.77 0.0724719101121737 0  0.77 0.07415730337059653 0  0.77 0.07584269662902443 0  0.77 0.07752808988745429 0  0.77 0.07921348314588413 0  0.77 0.08089887640431678 0  0.77 0.08258426966274923 0  0.77 0.08426966292117907 0  0.77 0.08595505617960987 0  0.77 0.08764044943804362 0  0.77 0.08932584269647403 0  0.77 0.09101123595490389 0  0.77 0.09269662921333673 0  0.77 0.09438202247176901 0  0.77 0.09606741573019884 0  0.77 0.09775280898862983 0  0.77 0.09943820224706355 0  0.77 0.1011235955054938 0  0.77 0.1028089887639236 0  0.77 0.1044943820223567 0  0.77 0.1061797752807888 0  0.77 0.1078651685392186 0  0.77 0.1095505617976498 0  0.77 0.1112359550560835 0  0.77 0.1129213483145136 0  0.77 0.1146067415729456 0  0.77 0.1162921348313787 0  0.77 0.1179775280898085 0  0.77 0.1196629213482387 0  0.77 0.1213483146066724 0  0.77 0.1230337078651035 0  0.77 0.1247191011235322 0  0.77 0.1264044943819605 0  0.77 0.1280898876403903 0  0.77 0.1297752808988242 0  0.77 0.1314606741572554 0  0.77 0.1331460674156853 0  0.77 0.1348314606741154 0  0.77 0.1365168539325504 0  0.77 0.1382022471909802 0  0.77 0.13988764044941 0  0.77 0.1415730337078443 0  0.77 0.1432584269662752 0  0.77 0.144943820224705 0  0.77 0.1466292134831355 0  0.77 0.1483146067415701 0  0.7667782426778414 0.15 0  0.7635564853556813 0.15 0  0.7603347280335111 0.15 0  0.757112970711341 0.15 0  0.7538912133891708 0.15 0  0.7506694560670005 0.15 0  0.7474476987448303 0.15 0  0.7442259414226602 0.15 0  0.74100418410049 0.15 0  0.7377824267783197 0.15 0  0.7345606694561496 0.15 0  0.7313389121339794 0.15 0  0.7281171548118092 0.15 0  0.724895397489639 0.15 0  0.7216736401674688 0.15 0  0.7184518828452986 0.15 0  0.7152301255231284 0.15 0  0.7120083682009583 0.15 0  0.708786610878788 0.15 0  0.7055648535566178 0.15 0  0.7023430962344477 0.15 0  0.6991213389122775 0.15 0  0.6958995815901072 0.15 0  0.692677824267937 0.15 0  0.6894560669457669 0.15 0  0.6862343096235967 0.15 0  0.6830125523014264 0.15 0  0.6797907949792563 0.15 0  0.6765690376570861 0.15 0  0.6733472803349159 0.15 0  0.6701255230127456 0.15 0  0.6669037656905755 0.15 0  0.6636820083684053 0.15 0  0.6604602510462351 0.15 0  0.657238493724065 0.15 0  0.6540167364018947 0.15 0  0.6507949790797245 0.15 0  0.6475732217575543 0.15 0  0.644351464435384 0.15 0  0.6411297071132231 0.15 0  0.6379079497910645 0.15 0  0.634686192468906 0.15 0  0.6314644351467468 0.15 0  0.6282426778245765 0.15 0  0.6250209205024085 0.15 0  0.62179916318025 0.15 0  0.6185774058580914 0.15 0  0.6153556485359328 0.15 0  0.6121338912137689 0.15 0  0.6089121338915987 0.15 0  0.6056903765694354 0.15 0  0.6024686192472768 0.15 0  0.5992468619251182 0.15 0  0.5960251046029597 0.15 0  0.5928033472807912 0.15 0  0.589581589958621 0.15 0  0.5863598326364508 0.15 0  0.5831380753142792 0.15 0  0.5799163179920974 0.15 0  0.57669456
[...]
<PointData  Scalars="concentration"> 
<DataArray  type="Float64"  Name="concentration"  format="ascii">0.0000000000000000e+00  1.0000000000016303e+00  1.0000000000014360e+00  0.0000000000000000e+00  -2.1872977220994646e-14  9.7424978975784175e-15  -1.9576592174822203e-14  1.7512848497840422e-14  -2.1478776021667595e-14  2.0917665559793787e-14  -2.3453094325613120e-14  2.6144429420527843e-14  -3.0949707396587532e-14  3.5364445444129190e-14  -3.9157019889288200e-14  4.1724500568414794e-14  -4.4167733317777375e-14  4.7694907047344664e-14  -5.4115294826396556e-14  6.4426042980555938e-14  -7.7124757709216270e-14  8.6855917901897698e-14  -8.7966119137277424e-14  8.2431466927340436e-14  -8.4508245261971560e-14  1.1119599501965684e-13  -1.6045345384884050e-13  1.9923225992349831e-13  -1.8675112067384712e-13  1.2592369216888967e-13  -9.0021834748329941e-14  1.6968450487820400e-13  -3.6069942827172867e-13  5.0944576720865131e-13  -4.2800133454219369e-13  1.2699989432079820e-13  7.9241623452980368e-14  1.8555870482075467e-13  -8.9368802431406075e-13  1.4208669024047794e-12  -1.0413967889087966e-12  -1.6512292220007189e-13  9.7780821936417518e-13  -2.9870727885746831e-14  -2.4664701463327341e-12  4.1644958288007009e-12  -2.5555805998385441e-12  -1.8102218796038308e-12  4.4653048982604198e-12  -8.9027484936396160e-13  -7.5669127940910782e-12  1.2485823799417306e-11  -5.8815730193799815e-12  -9.0602384085849304e-12  1.6562687886038341e-11  -2.7255869955280437e-12  -2.5226515584036850e-11  3.7925583222526366e-11  -1.1532842146043030e-11  -3.8093323320107672e-11  5.6570284409894923e-11  -3.5101128563914060e-12  -8.7393864929552591e-11  1.1612343228550388e-10  -1.5167479424701988e-11  -1.4582047187258591e-10  1.8426548019753254e-10  1.1065241434769926e-11  -2.9973076046027838e-10  3.5161881318304502e-10  1.2894337701513193e-11  -5.1621573930601496e-10  5.6766453851760501e-10  1.1483551690138658e-10  -9.9122203463408433e-10  1.0163696201117248e-09  2.3443771958348571e-10  -1.7219661156430940e-09  1.6162718285598595e-09  6.8308881471965418e-10  -3.1921760920022037e-09  2.7361808241988952e-09  1.4510653033310911e-09  -5.6067555532540260e-09  4.2637162610823234e-09  3.3797041193823570e-09  -1.0242419400344699e-08  6.9766494095878556e-09  6.8413978330256046e-09  -1.8022684759579866e-08  1.0727808157016327e-08  1.4046591750120057e-08  -3.2039494590475606e-08  1.6768453881596663e-08  2.6904175408997446e-08  -5.4885625290740217e-08  2.3686254020885046e-08  5.2456258448390198e-08  -9.4136237761750020e-08  3.1355452430279440e-08  1.0044200399736759e-07  -1.5915572523192266e-07  3.4283459755035654e-08  1.9362462496043128e-07  -2.7216027906292394e-07  3.0646815258480548e-08  3.5900108497491934e-07  -4.5369723211935886e-07  -1.0401119852248865e-09  6.5258339985732041e-07  -7.3324908359607147e-07  -1.1516578538721079e-07  1.1861586908585298e-06  -1.1626352123996712e-06  -4.1972944531738776e-07  2.1776669782183500e-06  -1.8786670690062928e-06  -9.9103308255166542e-07  3.7796608102821661e-06  -2.7629200287263384e-06  -2.4048975627638402e-06  6.7226149156268745e-06  -4.0845759489451306e-06  -5.1070697123220284e-06  1.1563449683403791e-05  -5.4864369266718937e-06  -1.0609260378739204e-05  1.9725454641197412e-05  -6.5728436509682372e-06  -2.1215553972009686e-05  3.2978103380389903e-05  -5.7540180223942632e-06  -4.1384842748994195e-05  5.3938424943247248e-05  6.4610476466185002e-07  -7.8974417725525495e-05  8.5679819304184328e-05  2.1043325903505004e-05  -1.4780143747594968e-04  1.3059858903002902e-04  7.3775876737006919e-05  -2.7156955018299914e-04  1.8646528226180385e-04  1.9799048711910796e-04  -4.8984297632898423e-04  2.3519274324566324e-04  4.7682673721662159e-04  -8.6604838755312199e-04  2.1167662401798561e-04  1.0897503433383753e-03  -1.4949541109144779e-03  -8.6433362269390610e-05  2.4454682168833569e-03  -2.4960095491881741e-03  -1.2982264026080456e-03  5.6083425681871532e-03  -3.9209337173529858e-03  -5.8530319167334581e-03  1.4525757905326181e-02  -4.7391892905268096e-03  -3.0715326262306202e-02  1.9658016229608888e-01  4.0269293998152289e-01  7.2278129554522319e-01  6.5059007501518462e-01  8.5799275760002314e-01  9.5753360023107947e-01  9.8456555024587966e-01  9.9708687481886060e-01  1.0026846057682761e+00  1.0046536840640212e+00  1.0048996812878692e+00  1.0044131553628903e+00  1.0036858752916786e+00  1.0029474659409909e+00  1.0022929947143255e+00  1.0017511995030275e+00  1.0013203032945894e+00  1.0009862904315234e+00  1.0007318316163984e+00  1.0005403226569012e+00  1.0003974452916007e+00  1.0002915299438839e+00  1.0002133862229601e+00  1.0001559366137478e+00  1.0001138137912591e+00  1.0000829913669187e+00  1.0000604725347659e+00  1.0000440396575978e+00  1.0000320587276126e+00  1.0000233296498675e+00  1.0000169731628572e+00  1.0000123462579185e+00  1.0000089793615963e+00  1.0000065299246443e+00  1.0000047482662267e+00  1.0000034525109596e+00  1.0000025102389798e+00  1.0000018250735712e+00  1.0000013268904853e+00  1.0000009646779109e+00  1.0000007013334786e+00  1.0000005098749385e+00  1.0000003706816314e+00  1.0000002694870369e+00  1.0000001959182867e+00  1.0000001424337843e+00  1.0000001035505679e+00  1.0000000752824636e+00  1.0000000547314929e+00  1.0000000397908433e+00  1.0000000289288757e+00  1.0000000210321052e+00  1.0000000152910244e+00  1.0000000111171474e+00  1.0000000080826419e+00  1.0000000058764613e+00  1.0000000042724948e+00  1.0000000031063567e+00  1.0000000022585125e+00  1.0000000016420898e+00  1.0000000011939285e+00  1.0000000008680767e+00  1.0000000006311556e+00  1.0000000004589251e+00  1.0000000003336753e+00  1.0000000002426008e+00  1.0000000001764209e+00  1.0000000001282736e+00  1.0000000000932374e+00  1.0000000000678388e+00  1.0000000000493308e+00  1.0000000000358018e+00  1.0000000000261031e+00  1.0000000000190103e+00  1.0000000000136846e+00  1.0000000000100584e+00  1.0000000000074174e+00  1.0000000000051059e+00  1.0000000000038618e+00  1.0000000000031737e+00  1.0000000000014999e+00  9.9999999998635269e-01  9.9999999998947087e-01  9.9999999998820088e-01  9.9999999998860301e-01  9.9999999998854561e-01  9.9999999998860212e-01  9.9999999998861544e-01  9.9999999998863376e-01  9.9999999998864353e-01  9.9999999998865241e-01  9.9999999998865874e-01  9.9999999998866373e-01  9.9999999998866795e-01  9.9999999998867206e-01  9.9999999998867306e-01  9.9999999998867628e-01  9.9999999998867850e-01  9.9999999998868006e-01  9.9999999998868150e-01  9.9999999998868161e-01  9.9999999998868327e-01  9.9999999998868427e-01  9.9999999998868383e-01  9.9999999998868583e-01  9.9999999998868483e-01  9.9999999998868638e-01  9.9999999998868727e-01  9.9999999998868727e-01  9.9999999998868783e-01  9.9999999998868827e-01  9.9999999998868905e-01  9.9999999998868838e-01  9.9999999998868883e-01  9.9999999998868905e-01  9.9999999998868894e-01  9.9999999998869016e-01  9.9999999998868871e-01  9.9999999998869016e-01  9.9999999998869005e-01  9.9999999998868971e-01  9.9999999998869038e-01  9.9999999998869038e-01  9.9999999998869016e-01  9.9999999998869060e-01  9.9999999998869082e-01  9.9999999998868982e-01  9.9999999998869105e-01  9.9999999998869071e-01  9.9999999998869038e-01  9.9999999998869094e-01  9.9999999998869038e-01  9.9999999998869105e-01  9.9999999998869071e-01  9.9999999998869071e-01  9.9999999998869071e-01  9.9999999998869071e-01  9.9999999998868982e-01  9.9999999998869094e-01  9.9999999998869071e-01  9.9999999998869071e-01  9.9999999998868982e-01  9.9999999998869049e-01  9.9999999998869005e-01  9.9999999998869105e-01  9.9999999998868938e-01  9.9999999998868994e-01  9.9999999998868871e-01  9.9999999998869071e-01  9.9999999998868849e-01  9.9999999998868871e-01  9.9999999998868849e-01  9.9999999998868805e-01  9.9999999998868794e-01  9.9999999998868527e-01  9.9999999998868727e-01  9.9999999998868205e-01  9.9999999998868738e-01  9.9999999998867362e-01  9.9999999998869160e-01  9.9999999998865485e-01  9.9999999998870581e-01  9.9999999998860878e-01  9.9999999998874112e-01  9.9999999998849598e-01  9.9999999998885458e-01  9.9999999998801370e-01  9.9999999999014788e-01  9.9999999998340339e-01  1.0000000000008196e+00  1.0000000000023452e+00  1.0000000000040339e+00  1.0000000000043425e+00  1.0000000000064935e+00  1.0000000000090294e+00  1.0000000000122542e+00  1.0000000000166644e+00  1.0000000000233147e+00  1.0000000000316913e+00  1.0000000000436819e+00  1.0000000000600273e+00  1.0000000000825338e+00  1.0000000001132823e+00  1.0000000001558600e+00  1.0000000002140712e+00  1.0000000002942517e+00  1.0000000004043650e+00  1.0000000005557763e+00  1.0000000007637422e+00  1.0000000010497199e+00  1.0000000014426267e+00  1.0000000019827160e+00  1.0000000027249578e+00  1.0000000037451482e+00  1.0000000051472422e+00  1.0000000070743853e+00  1.0000000097230366e+00  1.0000000133634870e+00  1.0000000183670605e+00  1.0000000252442627e+00  1.0000000346966700e+00  1.0000000476887239e+00  1.0000000655459107e+00  1.0000000900902144e+00  1.0000001238258327e+00  1.0000001701947694e+00  1.0000002339278067e+00  1.0000003215270776e+00  1.0000004419288593e+00  1.0000006074144516e+00  1.0000008348611822e+00  1.0000011474606783e+00  1.0000015770778667e+00  1.0000021674888000e+00  1.0000029788221767e+00  1.0000040936486596e+00  1.0000056253219940e+00  1.0000077293927221e+00  1.0000106192039742e+00  1.0000145871622939e+00  1.0000200336773035e+00  1.0000275064073276e+00  1.0000377532503553e+00  1.0000517934777049e+00  1.0000710124643324e+00  1.0000972864599482e+00  1.0001331443797674e+00  1.0001819728560539e+00  1.0002482671495558e+00  1.0003379208259526e+00  1.0004585254147542e+00  1.0006196065362076e+00  1.0008326348698546e+00  1.0011104817068610e+00  1.0014656722033701e+00  1.0019062027410162e+00  1.0024266116494327e+00  1.0029900279516761e+00  1.0034933560690931e+00  1.0037012989505483e+00  1.0031232693130923e+00  1.0007862951206992e+00  9.9481832250968583e-01  9.8167596842948568e-01  9.5487744892977244e-01  9.0540314902043484e-01  8.1592196528782568e-01  3.5269276409736328e-01  2.6989183705772685e-01  5.3046361013644903e-03  -4.6099902155389741e-02  2.0839127555475394e-02  1.8061287100409176e-02  -2.7102788578479416e-02  9.0087401635582185e-03  9.2522291038873144e-03  -1.0467456707145373e-02  -3.7327566315670187e-04  8.6644832550694349e-03  -7.2167679925419130e-03  4.6606486467633225e-04  3.5970913371514697e-03  -2.1063406826636109e-03  -1.6678042691067917e-03  3.3707727602855309e-03  -1.9866509696010864e-03  -2.8088867861177812e-04  1.0908103030428961e-03  -1.9209169435569217e-04  -1.0005446860929493e-03  1.2453222382978483e-03  -5.7251774288798662e-04  -1.4147978067605117e-04  2.5072614207025709e-04  1.3351541004967749e-04  -4.8060286724538234e-04  4.6062681861557285e-04  -1.8645459711564739e-04  -2.7641491962681410e-05  1.7966568071605161e-05  1.2434268242036690e-04  -2.1569621271756958e-04  1.7709572185818789e-04  -7.4202172752273375e-05  1.2355863349766660e-05  -2.7728312207892470e-05  7.5481826747217660e-05  -9.5707604789609584e-05  7.2750836531575109e-05  -3.5770045175308262e-05  1.8230899830393421e-05  -2.6014599386388919e-05  4.0542343617547562e-05  -4.3210916751641696e-05  3.2284261877984424e-05  -1.9215435825270328e-05  1.4127520537844969e-05  -1.7009991566677910e-05  2.0846730548237417e-05  -2.0128076319036558e-05  1.5354212586532917e-05  -1.0696877978806213e-05  9.0674516021806319e-06  -9.8627720688333887e-06  1.0592071996054410e-05  -9.7030055867208901e-06  7.6793096447214630e-06  -5.9593417425140201e-06  5.3329035607059253e-06  -5.4252271366181565e-06  5.3923342937885138e-06  -4.8213929087125430e-06  3.9611676053028545e-06  -3.2857293340603389e-06  2.9934243505151121e-06  -2.9116919924303315e-06  2.7652223192617526e-06  -2.4520255671633021e-06  2.0771972763604410e-06  -1.7907166732182002e-06  1.6366746502337767e-06  -1.5453292990674864e-06  1.4297347950626073e-06  -1.2672230323194674e-06  1.0976727642072378e-06  -9.6661613337137287e-07  8.8159635705604211e-07  -8.1649445957814176e-07  7.4459945128874957e-07  -6.6170212494934334e-07  5.8181775262888247e-07  -5.1813939500514640e-07  4.7093110603274247e-07  -4.3089113805916945e-07  3.8998870799130165e-07  -3.4771447497292789e-07  3.0867185284456561e-07  -2.7645639531821363e-07  2.5046040062484467e-07  -2.2748027647022798e-07  2.0512869707498684e-07  -1.8343329645784565e-07  1.6379788273846700e-07  -1.4711066090835634e-07  1.3295242262987901e-07  -1.2023963851150857e-07  1.0825698282058311e-07  -9.7036126727023814e-08  8.6962460537502778e-08  -7.8213232636064100e-08  7.0577971578904363e-08  -6.3690110332147068e-08  5.7326290075100780e-08  -5.1486034919525825e-08  4.6255349242462964e-08  -4.1647046920189956e-08  3.7565524644946921e-08  -3.3883715231526490e-08  3.0525496924626330e-08  -2.7478819405492293e-08  2.4751566003665181e-08  -2.2328272438068212e-08  2.0164675580481454e-08  -1.8210690736145704e-08  1.6430503533459210e-08  -1.4801745005755219e-08  1.3300105312342344e-08  -1.1885877462083370e-08  1.0501114603118118e-08  -9.0738883701985700e-09  7.5221931010555203e-09  -5.7550982168209717e-09  3.6752080243884881e-09  -1.1879786699084201e-09  -1.7800174950257172e-09  5.2563374836998453e-09  -9.1964897867485739e-09  1.3462217552333914e-08  -1.7810429390045063e-08  2.1899311791357508e-08  -2.5317075043310166e-08  2.7635201437040007e-08  -2.8481425513509706e-08  2.7620335883331654e-08  -2.5023216856696357e-08  2.0907326972511288e-08  -1.5728139253899544e-08  1.0118452572845428e-08  -4.7809434630484591e-09  3.5612833602452690e-10  2.7039707851348062e-09  -4.2222655199270315e-09  4.3198857224686912e-09  -3.3670310095674038e-09  1.8758281694919341e-09  -3.6491943343461914e-10  -7.6624419863381695e-10  1.3136632381638914e-09  -1.2900421771694969e-09  8.6287751879051361e-10  -2.9451841031556747e-10  -2.0662478247682574e-10  4.5529145270450256e-10  -5.0253539415638182e-10  2.7531722633752596e-10  -1.4696330688702792e-10  -2.3541928091267097e-10  0.0000000000000000e+00  0.0000000000000000e+00  0.0000000000000000e+00  0.0000000000000000e+00  0.0000000000000000e+00  0.0000000000000000e+00  0.0000000000000000e+00  0.0000000000000000e+00  0.0000000000000000e+00  0.0000000000000000e+00  0.0000000000000000e+00  0.0000000000000000e+00  0.0000000000000000e+00  0.0000000000000000e+00  0.0000000000000000e+00  0.0000000000000000e+00  0.0000000000000000e+00  0.0000000000000000e+00  0.0000000000000000e+00  0.0000000000000000e+00  0.0000000000000000e+00  0.0000000000000000e+00  0.0000000000000000e+00  0.0000000000000000e+00  0.0000000000000000e+00  0.0000000000000000e+00  0.0000000000000000e+00  0.0000000000000000e+00  0.0000000000000000e+00  0.0000000000000000e+00  0.0000000000000000e+00  0.0000000000000000e+00  0.0000000000000000e+00  0.0000000000000000e+00  0.0000000000000000e+00  0.0000000000000000e+00  0.0000000000000000e+00  0.0000000000000000e+00  0.0000000000000000e+00  0.0000000000000000e+00  0.0000000000000000e+00  0.0000000000000000e+00  0.0000000000000000e+00  0.0000000000000000e+00  0.0000000000000000e+00  0.0000000000000000e+00  0.0000000000000000e+00  0.0000000000000000e+00  0.0000000000000000e+00  0.0000000000000000e+00  0.0000000000000000e+00  0.0000000000000000e+00  0.0000000000000000e+00  0.0000000000000000e+00  0.0000000000000000e+00  0.0000000000000000e+00  0.0000000000000000e+00  0.0000000000000000e+00  0.0000000000000000e+00  0.0000000000000000e+00  0.0000000000000000e+00  0.0000000000000000e+00  0.0000000000000000e+00  0.0000000000000000e+00  0.0000000000000000e+00  0.0000000000000000e+00  0.0000000000000000e+00  0.0000000000000000e+00  0.0000000000000000e+00  0.0000000000000000e+00  0.0000000000000000e+00  0.0000000000000000e+00  0.0000000000000000e+00  0.0000000000000000e+00  0.0000000000000000e+00  0.0000000000000000e+00  0.0000000000000000e+00  0.0000000000000000e+00  0.0000000000000000e+00  0.0000000000000000e+00  0.0000000000000000e+00  0.0000000000000000e+00  0.0000000000000000e+00  0.0000000000000000e+00  0.0000000000000000e+00  0.0000000000000000e+00  0.0000000000000000e+00  0.0000000000000000e+00  2.6906270007323357e-15  -2.3044192937509605e-14  5.4091006957174234e-15  -2.7120707562110510e-14  1.0723102494584384e-14  -3.0599327569808114e-14  9.8005950411175998e-15  -2.8129643561655964e-14  1.5210761285318965e-14  -4.5548502757309559e-14  3.3350018201094252e-14  -4.4930922182907677e-14  1.1675265093320533e-14  -2.8629786227044652e-14  3.0928178873217412e-14  -7.5094910162143882e-14  5.3105864048655647e-14  -3.2020027702109462e-14  -2.5456291685857972e-14  -1.7704300821636280e-15  2.9675241853965045e-14  -5.8014216498170277e-14  -4.5360254778231346e-14  1.5643065724470584e-13  -2.3323132745502976e-13  1.7568898042914297e-13  -1.9873928028439965e-13  3.8008844763656239e-13  -7.3779118461627139e-13  9.6429325330287300e-13  -1.0409551505194982e-12  1.1422629565673497e-12  -1.6645804726633519e-12  2.4513120217982928e-12  -3.1088353866417990e-12  3.3753358659263474e-12  -3.8408088686460136e-12  5.0113380938928044e-12  -6.6455765385337888e-12  7.7373543434984557e-12  -8.2398532155091660e-12  9.2008268700149826e-12  -1.1425161208486385e-11  1.3705812573755548e-11  -1.4511497730976082e-11  1.4387340188176318e-11  -1.5678502412959454e-11  1.8291965840479453e-11  -1.9116503984269392e-11  1.6699284721296810e-11  -1.4537062303048181e-11  1.5242545793982193e-11  -1.5080281996740151e-11  9.1524933190062422e-12  -1.0795604075590242e-12  -1.9587561321896352e-12  2.8531471172794134e-12  -1.1538853378209189e-11  2.5044442965851096e-11  -2.9396827471015957e-11  2.5880405314212382e-11  -3.1830530307673051e-11  4.5185315371335857e-11  -4.1890532300088480e-11  2.3072379309177583e-11  -1.9923149903084647e-11  2.8055015964291931e-11  -6.8704621379540812e-12  -3.1578297244467357e-11  3.3981794392050624e-11  -2.3237978378040973e-11  6.0988858125912064e-11  -9.6552218190495759e-11  5.7264361156873493e-11  -3.1565058654721731e-11  7.7835578573645857e-11  -5.4560339119740564e-11  -5.3475270948888610e-11  4.4468681003395987e-11  9.3589475913872198e-13  1.2890182886515915e-10  -1.8316306144545159e-10  2.9781290486836168e-11  -8.6293293242850109e-11  2.0660436137780155e-10  5.6662855392202080e-11  -1.2020530131680951e-10  -1.0612952925618150e-10  5.1231547941763895e-16  7.4778008898889931e-15  -9.1200292054355366e-16  8.5738149636297583e-15  -3.4199424235460198e-15  1.4209309415936046e-14  -8.7007307003408758e-15  1.2558181730975564e-14  3.5605199052131629e-16  7.8098632982491087e-15  -1.2573859371415336e-14  3.3517872425645751e-14  -2.5171873679753442e-14  1.3798410488081977e-14  8.4771711439711923e-15  1.2278281587387764e-14  -4.2476953208200126e-14  7.1623499423204220e-14  -3.8390764329002546e-14  -4.9507867507128770e-15  2.0162960603955651e-14  5.1378299673292512e-14  -1.1466179099800937e-13  9.9741631203720479e-14  1.7230438354412132e-14  -7.1628857290491948e-14  -9.6133308755114582e-15  1.5617977720902863e-13  -1.2599039951426576e-13  -8.9965633380836225e-14  2.7365031680618784e-13  -1.6551030970531605e-13  -4.3443413042035356e-14  -4.5978764865099419e-14  5.5130371991378618e-13  -9.4708079643592824e-13  8.4120048932568744e-13  -6.0990104609502750e-13  1.0853981005723112e-12  -2.1949780326762446e-12  2.9237237413248522e-12  -2.7452248757836000e-12  2.7932442571667057e-12  -4.2716551764668320e-12  6.3798609475212107e-12  -7.0783093462818187e-12  6.5825289622467733e-12  -7.5456936876984006e-12  1.0744170952698989e-11  -1.2864187565353398e-11  1.1725843737939336e-11  -1.0681554802510089e-11  1.3496711073308707e-11  -1.6620937428213161e-11  1.4027330508082955e-11  -8.6309961032157083e-12  8.7934223043966080e-12  -1.1864848190619648e-11  6.4481371441167296e-12  5.5099430736476041e-12  -8.8957721295627325e-12  4.9182714080363317e-12  -1.2805598434242461e-11  3.0762796956842095e-11  -3.2462527663996181e-11  2.0431800816882805e-11  -2.7634202021747843e-11  4.5593495770878760e-11  -3.1257712223182261e-11  2.0073031389233108e-12  -1.0039867186885207e-11  2.0371803276832158e-11  2.5154783412776800e-11  -5.9405395894380846e-11  2.7242990307354529e-11  