<?xml version="1.0"?>
<VTKFile type="UnstructuredGrid"  version="0.1"  >
<UnstructuredGrid>
<Piece  NumberOfPoints="21600" NumberOfCells="42542">
<Points>
<DataArray  type="Float64"  NumberOfComponents="3"  format="ascii">0 0 0  0.77 0 0  0.77 0.15 0  0 0.15 0  0.003221757322170014 0 0  0.006443514644340046 0 0  0.009665271966510193 0 0  0.01288702928868034 0 0  0.01610878661085048 0 0  0.01933054393302049 0 0  0.02255230125519027 0 0  0.02577405857735967 0 0  0.02899581589952872 0 0  0.03221757322169801 0 0  0.03543933054386744 0 0  0.03866108786603686 0 0  0.04188284518820627 0 0  0.0451046025103757 0 0  0.04832635983254521 0 0  0.05154811715471607 0 0  0.05476987447688695 0 0  0.05799163179905782 0 0  0.06121338912122846 0 0  0.06443514644339859 0 0  0.06765690376556875 0 0  0.0708786610877389 0 0  0.07410041840990904 0 0  0.0773221757320792 0 0  0.08054393305425039 0 0  0.08376569037642198 0 0  0.0869874476985936 0 0  0.09020920502076518 0 0  0.0934309623429339 0 0  0.0966527196651024 0 0  0.09987447698726967 0 0  0.1030962343094369 0 0  0.1063179916316041 0 0  0.1095397489537714 0 0  0.1127615062759386 0 0  0.1159832635981051 0 0  0.1192050209202709 0 0  0.1224267782424358 0 0  0.1256485355646001 0 0  0.1288702928867644 0 0  0.1320920502089288 0 0  0.1353138075310958 0 0  0.1385355648532632 0 0  0.1417573221754333 0 0  0.1449790794976035 0 0  0.1482008368197736 0 0  0.1514225941419428 0 0  0.1546443514641101 0 0  0.157866108786276 0 0  0.1610878661084403 0 0  0.1643096234306047 0 0  0.167531380752769 0 0  0.1707531380749333 0 0  0.1739748953970977 0 0  0.177196652719262 0 0  0.1804184100414264 0 0  0.1836401673635935 0 0  0.1868619246857611 0 0  0.1900836820079313 0 0  0.1933054393301014 0 0  0.1965271966522716 0 0  0.1997489539744406 0 0  0.2029707112966078 0 0  0.2061924686187736 0 0  0.209414225940938 0 0  0.2126359832631022 0 0  0.2158577405852666 0 0  0.219079497907431 0 0  0.2223012552295953 0 0  0.2255230125517597 0 0  0.2287447698739242 0 0  0.2319665271960914 0 0  0.2351882845182592 0 0  0.2384100418404293 0 0  0.2416317991625994 0 0  0.2448535564847696 0 0  0.2480753138069371 0 0  0.2512970711291014 0 0  0.2545188284512658 0 0  0.2577405857734302 0 0  0.2609623430955986 0 0  0.2641841004177688 0 0  0.2674058577399389 0 0  0.270627615062109 0 0  0.2738493723842792 0 0  0.2770711297064487 0 0  0.280292887028613 0 0  0.2835146443507774 0 0  0.2867364016729417 0 0  0.2899581589951061 0 0  0.2931799163172705 0 0  0.2964016736394348 0 0  0.2996234309615992 0 0  0.3028451882837672 0 0  0.3060669456059373 0 0  0.3092887029281075 0 0  0.3125104602502776 0 0  0.3157322175724478 0 0  0.3189539748946177 0 0  0.322175732216782 0 0  0.3253974895389464 0 0  0.3286192468611107 0 0  0.3318410041832751 0 0  0.3350627615054395 0 0  0.3382845188276038 0 0  0.3415062761497681 0 0  0.3447280334719325 0 0  0.3479497907940968 0 0  0.3511715481162612 0 0  0.3543933054384255 0 0  0.3576150627605947 0 0  0.3608368200827649 0 0  0.364058577404935 0 0  0.3672803347271051 0 0  0.3705020920492753 0 0  0.373723849371444 0 0  0.3769456066936084 0 0  0.3801673640157748 0 0  0.383389121337945 0 0  0.3866108786601209 0 0  0.3898326359823028 0 0  0.3930543933044846 0 0  0.3962761506266662 0 0  0.399497907948848 0 0  0.4027196652710298 0 0  0.4059414225932116 0 0  0.4091631799153934 0 0  0.4123849372375751 0 0  0.4156066945597569 0 0  0.4188284518819387 0 0  0.4220502092041222 0 0  0.4252719665263097 0 0  0.4284937238484974 0 0  0.4317154811706849 0 0  0.4349372384928725 0 0  0.4381589958150601 0 0  0.4413807531372476 0 0  0.4446025104594352 0 0  0.4478242677816181 0 0  0.4510460251037998 0 0  0.4542677824259815 0 0  0.4574895397481634 0 0  0.4607112970703451 0 0  0.4639330543925269 0 0  0.4671548117147087 0 0  0.4703765690368904 0 0  0.4735983263590722 0 0  0.4768200836812568 0 0  0.4800418410034444 0 0  0.483263598325632 0 0  0.4864853556478196 0 0  0.4897071129700028 0 0  0.4929288702921845 0 0  0.4961506276143663 0 0  0.4993723849365479 0 0  0.5025941422587239 0 0  0.5058158995809008 0 0  0.5090376569030826 0 0  0.5122594142252677 0 0  0.515481171547461 0 0  0.5187029288696494 0 0  0.5219246861918312 0 0  0.525146443514013 0 0  0.5283682008361947 0 0  0.5315899581583845 0 0  0.5348117154805778 0 0  0.5380334728027617 0 0  0.5412552301249435 0 0  0.5444769874471141 0 0  0.5476987447692853 0 0  0.550920502091467 0 0  0.5541422594136513 0 0  0.5573640167358447 0 0  0.560585774058034 0 0  0.5638075313802158 0 0  0.5670292887023975 0 0  0.5702510460245793 0 0  0.5734728033467682 0 0  0.5766945606689615 0 0  0.579916317991155 0 0  0.5831380753133483 0 0  0.5863598326355314 0 0  0.5895815899577131 0 0  0.5928033472798949 0 0  0.5960251046020785 0 0  0.5992468619242718 0 0  0.6024686192464619 0 0  0.6056903765686437 0 0  0.6089121338908206 0 0  0.6121338912129908 0 0  0.6153556485351673 0 0  0.618577405857349 0 0  0.6217991631795386 0 0  0.625020920501732 0 0  0.6282426778239159 0 0  0.6314644351460976 0 0  0.6346861924682795 0 0  0.6379079497904622 0 0  0.6411297071126555 0 0  0.6443514644348465 0 0  0.6475732217570283 0 0  0.650794979079206 0 0  0.6540167364013761 0 0  0.6572384937235518 0 0  0.6604602510457335 0 0  0.6636820083679225 0 0  0.6669037656901158 0 0  0.6701255230123004 0 0  0.6733472803344823 0 0  0.6765690376566641 0 0  0.6797907949788459 0 0  0.6830125523010393 0 0  0.686234309623231 0 0  0.6894560669454127 0 0  0.6926778242675914 0 0  0.6958995815897615 0 0  0.6991213389119363 0 0  0.7023430962341181 0 0  0.7055648535563062 0 0  0.7087866108784994 0 0  0.712008368200685 0 0  0.7152301255228668 0 0  0.7184518828450486 0 0  0.7216736401672305 0 0  0.724895397489423 0 0  0.7281171548116155 0 0  0.7313389121337973 0 0  0.7345606694559768 0 0  0.7377824267781468 0 0  0.7410041841003209 0 0  0.7442259414225026 0 0  0.7474476987446899 0 0  0.7506694560668832 0 0  0.7538912133890696 0 0  0.7571129707112513 0 0  0.760334728033433 0 0  0.7635564853556149 0 0  0.7667782426778067 0 0  0.77 0.001685393258423789 0  0.77 0.003370786516847669 0  0.77 0.005056179775271247 0  0.77 0.006741573033694517 0  0.77 0.008426966292117821 0  0.77 0.01011235955054176 0  0.77 0.01179775280896623 0  0.77 0.0134831460673904 0  0.77 0.01516853932581489 0  0.77 0.01685393258423891 0  0.77 0.01853932584266291 0  0.77 0.02022471910108589 0  0.77 0.02191011235950794 0  0.77 0.02359550561792999 0  0.77 0.02528089887635205 0  0.77 0.02696629213477411 0  0.77 0.02865168539319714 0  0.77 0.03033707865161956 0  0.77 0.03202247191004162 0  0.77 0.03370786516846367 0  0.77 0.03539325842688572 0  0.77 0.03707865168530778 0  0.77 0.03876404494372984 0  0.77 0.0404494382021519 0  0.77 0.04213483146057394 0  0.77 0.04382022471899601 0  0.77 0.04550561797741807 0  0.77 0.04719101123584013 0  0.77 0.04887640449426219 0  0.77 0.05056179775268425 0  0.77 0.0522471910111063 0  0.77 0.05393258426952837 0  0.77 0.05561797752795105 0  0.77 0.05730337078637505 0  0.77 0.05898876404479723 0  0.77 0.0606741573032193 0  0.77 0.06235955056164135 0  0.77 0.06404494382006341 0  0.77 0.06573033707848548 0  0.77 0.06741573033690752 0  0.77 0.06910112359532959 0  0.77 0.07078651685375165 0  0.77 0.0724719101121737 0  0.77 0.07415730337059653 0  0.77 0.07584269662902443 0  0.77 0.07752808988745429 0  0.77 0.07921348314588413 0  0.77 0.08089887640431678 0  0.77 0.08258426966274923 0  0.77 0.08426966292117907 0  0.77 0.08595505617960987 0  0.77 0.08764044943804362 0  0.77 0.08932584269647403 0  0.77 0.09101123595490389 0  0.77 0.09269662921333673 0  0.77 0.09438202247176901 0  0.77 0.09606741573019884 0  0.77 0.09775280898862983 0  0.77 0.09943820224706355 0  0.77 0.1011235955054938 0  0.77 0.1028089887639236 0  0.77 0.1044943820223567 0  0.77 0.1061797752807888 0  0.77 0.1078651685392186 0  0.77 0.1095505617976498 0  0.77 0.1112359550560835 0  0.77 0.1129213483145136 0  0.77 0.1146067415729456 0  0.77 0.1162921348313787 0  0.77 0.1179775280898085 0  0.77 0.1196629213482387 0  0.77 0.1213483146066724 0  0.77 0.1230337078651035 0  0.77 0.1247191011235322 0  0.77 0.1264044943819605 0  0.77 0.1280898876403903 0  0.77 0.1297752808988242 0  0.77 0.1314606741572554 0  0.77 0.1331460674156853 0  0.77 0.1348314606741154 0  0.77 0.1365168539325504 0  0.77 0.1382022471909802 0  0.77 0.13988764044941 0  0.77 0.1415730337078443 0  0.77 0.1432584269662752 0  0.77 0.144943820224705 0  0.77 0.1466292134831355 0  0.77 0.1483146067415701 0  0.7667782426778414 0.15 0  0.7635564853556813 0.15 0  0.7603347280335111 0.15 0  0.757112970711341 0.15 0  0.7538912133891708 0.15 0  0.7506694560670005 0.15 0  0.7474476987448303 0.15 0  0.7442259414226602 0.15 0  0.74100418410049 0.15 0  0.7377824267783197 0.15 0  0.7345606694561496 0.15 0  0.7313389121339794 0.15 0  0.7281171548118092 0.15 0  0.724895397489639 0.15 0  0.7216736401674688 0.15 0  0.7184518828452986 0.15 0  0.7152301255231284 0.15 0  0.7120083682009583 0.15 0  0.708786610878788 0.15 0  0.7055648535566178 0.15 0  0.7023430962344477 0.15 0  0.6991213389122775 0.15 0  0.6958995815901072 0.15 0  0.692677824267937 0.15 0  0.6894560669457669 0.15 0  0.6862343096235967 0.15 0  0.6830125523014264 0.15 0  0.6797907949792563 0.15 0  0.6765690376570861 0.15 0  0.6733472803349159 0.15 0  0.6701255230127456 0.15 0  0.6669037656905755 0.15 0  0.6636820083684053 0.15 0  0.6604602510462351 0.15 0  0.657238493724065 0.15 0  0.6540167364018947 0.15 0  0.6507949790797245 0.15 0  0.6475732217575543 0.15 0  0.644351464435384 0.15 0  0.6411297071132231 0.15 0  0.6379079497910645 0.15 0  0.634686192468906 0.15 0  0.6314644351467468 0.15 0  0.6282426778245765 0.15 0  0.6250209205024085 0.15 0  0.62179916318025 0.15 0  0.6185774058580914 0.15 0  0.6153556485359328 0.15 0  0.6121338912137689 0.15 0  0.6089121338915987 0.15 0  0.6056903765694354 0.15 0  0.6024686192472768 0.15 0  0.5992468619251182 0.15 0  0.5960251046029597 0.15 0  0.5928033472807912 0.15 0  0.589581589958621 0.15 0  0.5863598326364508 0.15 0  0.5831380753142792 0.15 0  0.5799163179920974 0.15 0  0.57669456
[...]
<PointData  Scalars="concentration"> 
<DataArray  type="Float64"  Name="concentration"  format="ascii">0.0000000000000000e+00  1.0000000000000013e+00  1.0000000000000009e+00  0.0000000000000000e+00  -4.0656677410527452e-06  -1.8471953776727472e-06  3.3664839233086242e-06  -3.0452795851294807e-06  -2.5731893638929538e-06  6.6831693529579939e-06  -4.1517520061554165e-06  -5.1561505643103585e-06  1.1591021391073962e-05  -5.5127035070990900e-06  -1.0640248728598042e-05  1.9765975390116750e-05  -6.5885492375346306e-06  -2.1247819089368615e-05  3.3022028951296550e-05  -5.7637245592087083e-06  -4.1422337702298096e-05  5.3983065709790414e-05  6.4301203003526753e-07  -7.9017891464141444e-05  8.5722901627838921e-05  2.1048461506472902e-05  -1.4784996794469979e-04  1.3063673073522830e-04  7.3790777381031790e-05  -2.7162008388866460e-04  1.8649350528008186e-04  1.9801548773742947e-04  -4.8988891364905556e-04  2.3520433783455033e-04  4.7685881401814519e-04  -8.6607718621303060e-04  2.1166387202829613e-04  1.0897785287870847e-03  -1.4949434999838316e-03  -8.6475815578315320e-05  2.4454634579408954e-03  -2.4959219408830354e-03  -1.2982896440941890e-03  5.6082329262741168e-03  -3.9207095662518931e-03  -5.8530477018365152e-03  1.4525350031948162e-02  -4.7387677874562266e-03  -3.0714831132041494e-02  1.9657623357232454e-01  4.0268799384802229e-01  7.2277431034850625e-01  6.5058533105285388e-01  8.5798863004167680e-01  9.5753106205549843e-01  9.8456410424290430e-01  9.9708612579945721e-01  1.0026842715993434e+00  1.0046535775881780e+00  1.0048996890393329e+00  1.0044132127606760e+00  1.0036859478690803e+00  1.0029475368103320e+00  1.0022930567318633e+00  1.0017512506116597e+00  1.0013203438757969e+00  1.0009863218680670e+00  1.0007318555561757e+00  1.0005403406675104e+00  1.0003974587232038e+00  1.0002915398969545e+00  1.0002133935642237e+00  1.0001559420104169e+00  1.0001138177489084e+00  1.0000829942643987e+00  1.0000604746536894e+00  1.0000440412060514e+00  1.0000320598587458e+00  1.0000233304760355e+00  1.0000169737663098e+00  1.0000123466987747e+00  1.0000089796837679e+00  1.0000065301601733e+00  1.0000047484384942e+00  1.0000034526370243e+00  1.0000025103312824e+00  1.0000018251411973e+00  1.0000013269400589e+00  1.0000009647142758e+00  1.0000007013601733e+00  1.0000005098945490e+00  1.0000003706960470e+00  1.0000002694976420e+00  1.0000001959260967e+00  1.0000001424395342e+00  1.0000001035548121e+00  1.0000000752855944e+00  1.0000000547338059e+00  1.0000000397925521e+00  1.0000000289301390e+00  1.0000000210330415e+00  1.0000000152917192e+00  1.0000000111176648e+00  1.0000000080830211e+00  1.0000000058767495e+00  1.0000000042727033e+00  1.0000000031065139e+00  1.0000000022586299e+00  1.0000000016421782e+00  1.0000000011939865e+00  1.0000000008681240e+00  1.0000000006312004e+00  1.0000000004589400e+00  1.0000000003336953e+00  1.0000000002426279e+00  1.0000000001764187e+00  1.0000000001282769e+00  1.0000000000932698e+00  1.0000000000678200e+00  1.0000000000493170e+00  1.0000000000358551e+00  1.0000000000260707e+00  1.0000000000189606e+00  1.0000000000137856e+00  1.0000000000100240e+00  1.0000000000072906e+00  1.0000000000053006e+00  1.0000000000038560e+00  1.0000000000028046e+00  1.0000000000020408e+00  1.0000000000014826e+00  1.0000000000010765e+00  1.0000000000007869e+00  1.0000000000005707e+00  1.0000000000004154e+00  1.0000000000003024e+00  1.0000000000002203e+00  1.0000000000001612e+00  1.0000000000001181e+00  1.0000000000000846e+00  1.0000000000000617e+00  1.0000000000000464e+00  1.0000000000000331e+00  1.0000000000000238e+00  1.0000000000000193e+00  1.0000000000000144e+00  1.0000000000000109e+00  1.0000000000000080e+00  1.0000000000000056e+00  1.0000000000000033e+00  1.0000000000000027e+00  1.0000000000000038e+00  1.0000000000000029e+00  1.0000000000000020e+00  1.0000000000000016e+00  1.0000000000000018e+00  1.0000000000000011e+00  1.0000000000000011e+00  1.0000000000000011e+00  1.0000000000000004e+00  9.9999999999999978e-01  1.0000000000000029e+00  1.0000000000000011e+00  1.0000000000000009e+00  1.0000000000000024e+00  1.0000000000000022e+00  1.0000000000000004e+00  1.0000000000000007e+00  1.0000000000000031e+00  1.0000000000000031e+00  1.0000000000000020e+00  1.0000000000000024e+00  1.0000000000000027e+00  1.0000000000000016e+00  1.0000000000000011e+00  1.0000000000000031e+00  1.0000000000000013e+00  9.9999999999999933e-01  1.0000000000000009e+00  1.0000000000000022e+00  9.9999999999999678e-01  9.9999999999999989e-01  1.0000000000000027e+00  9.9999999999999711e-01  1.0000000000000040e+00  9.9999999999999956e-01  9.9999999999999900e-01  1.0000000000000042e+00  1.0000000000000000e+00  9.9999999999999900e-01  1.0000000000000013e+00  1.0000000000000002e+00  1.0000000000000000e+00  1.0000000000000009e+00  1.0000000000000016e+00  1.0000000000000002e+00  1.0000000000000022e+00  1.0000000000000009e+00  1.0000000000000009e+00  1.0000000000000013e+00  1.0000000000000013e+00  1.0000000000000022e+00  1.0000000000000011e+00  1.0000000000000009e+00  1.0000000000000018e+00  1.0000000000000004e+00  1.0000000000000013e+00  1.0000000000000016e+00  9.9999999999999967e-01  1.0000000000000009e+00  1.0000000000000009e+00  1.0000000000000016e+00  1.0000000000000016e+00  1.0000000000000011e+00  1.0000000000000024e+00  9.9999999999999922e-01  1.0000000000000027e+00  1.0000000000000024e+00  1.0000000000000004e+00  1.0000000000000009e+00  1.0000000000000029e+00  9.9999999999999922e-01  1.0000000000000018e+00  1.0000000000000024e+00  9.9999999999999922e-01  1.0000000000000013e+00  1.0000000000000007e+00  1.0000000000000007e+00  1.0000000000000016e+00  9.9999999999999900e-01  1.0000000000000013e+00  1.0000000000000007e+00  1.0000000000000031e+00  1.0000000000000007e+00  1.0000000000000022e+00  1.0000000000000027e+00  1.0000000000000002e+00  1.0000000000000002e+00  1.0000000000000013e+00  1.0000000000000007e+00  1.0000000000000020e+00  1.0000000000000013e+00  1.0000000000000004e+00  1.0000000000000009e+00  1.0000000000000004e+00  1.0000000000000004e+00  1.0000000000000009e+00  1.0000000000000013e+00  1.0000000000000002e+00  1.0000000000000002e+00  1.0000000000000009e+00  1.0000000000000004e+00  1.0000000000000004e+00  1.0000000000000007e+00  1.0000000000000000e+00  1.0000000000000004e+00  9.9999999999999989e-01  1.0000000000000016e+00  9.9999999999999956e-01  1.0000000000000004e+00  1.0000000000000011e+00  1.0000000000000007e+00  1.0000000000000004e+00  1.0000000000000004e+00  1.0000000000000007e+00  1.0000000000000013e+00  9.9999999999999967e-01  1.0000000000000007e+00  1.0000000000000007e+00  1.0000000000000004e+00  1.0000000000000009e+00  1.0000000000000004e+00  1.0000000000000009e+00  1.0000000000000004e+00  1.0000000000000007e+00  1.0000000000000007e+00  1.0000000000000007e+00  1.0000000000000004e+00  1.0000000000000000e+00  1.0000000000000011e+00  1.0000000000000007e+00  1.0000000000000004e+00  1.0000000000000002e+00  1.0000000000000007e+00  1.0000000000000007e+00  1.0000000000000007e+00  1.0000000000000002e+00  1.0000000000000002e+00  1.0000000000000009e+00  1.0000000000000011e+00  1.0000000000000002e+00  1.0000000000000004e+00  1.0000000000000007e+00  1.0000000000000004e+00  1.0000000000000009e+00  1.0000000000000002e+00  1.0000000000000004e+00  1.0000000000000002e+00  1.0000000000000011e+00  9.9999999999999978e-01  1.0000000000000004e+00  1.0000000000000004e+00  1.0000000000000007e+00  1.0000000000000007e+00  1.0000000000000004e+00  1.0000000000000009e+00  1.0000000000000002e+00  1.0000000000000009e+00  1.0000000000000002e+00  1.0000000000000004e+00  1.0000000000000002e+00  1.0000000000000009e+00  1.0000000000000004e+00  1.0000000000000011e+00  9.9999999999999900e-01  1.0000000000000013e+00  1.0000000000000004e+00  1.0000000000000004e+00  1.0000000000000011e+00  1.0000000000000004e+00  1.0000000000000007e+00  1.0000000000000004e+00  9.9999999999999956e-01  1.0000000000000009e+00  1.0000000000000000e+00  1.0000000000000011e+00  1.0000000000000000e+00  1.0000000000000009e+00  1.0000000000000009e+00  1.0000000000000002e+00  1.0000000000000004e+00  1.0000000000000013e+00  1.0000000000000002e+00  1.0000000000000007e+00  1.0000000000000018e+00  1.0000000000000009e+00  1.0000000000000004e+00  1.0000000000000020e+00  1.0000000000000004e+00  1.0000000000000004e+00  9.9999999999999989e-01  1.0000000000000036e+00  1.0000000000000002e+00  9.9999999999999944e-01  1.0000000000000020e+00  1.0000000000000004e+00  1.0000000000000009e+00  9.9999999999999944e-01  1.0000000000000013e+00  1.0000000000000011e+00  9.9999999999999933e-01  1.0000000000000020e+00  9.9999999999999956e-01  1.0000000000000020e+00  1.0000000000000013e+00  1.0000000000000009e+00  1.0000000000000018e+00  1.0000000000000007e+00  1.0000000000000011e+00  1.0000000000000000e+00  1.0000000000000036e+00  9.9999999999999889e-01  1.0000000000000031e+00  1.0000000000000024e+00  1.0000000000000016e+00  1.0000000000000007e+00  1.0000000000000020e+00  9.9999999999999956e-01  1.0000000000000009e+00  1.0000000000000011e+00  9.9999999999999978e-01  1.0000000000000011e+00  1.0000000000000009e+00  1.0000000000000016e+00  1.0000000000000009e+00  1.0000000000000011e+00  1.0000000000000027e+00  1.0000000000000004e+00  1.0000000000000013e+00  1.0000000000000020e+00  1.0000000000000013e+00  1.0000000000000007e+00  1.0000000000000011e+00  1.0000000000000004e+00  1.0000000000000009e+00  1.0000000000000002e+00  1.0000000000000002e+00  1.0000000000000000e+00  1.0000000000000056e+00  9.9999999999999956e-01  1.0000000000000000e+00  1.0000000000000038e+00  9.9999999999999811e-01  1.0000000000000013e+00  1.0000000000000022e+00  9.9999999999999811e-01  1.0000000000000016e+00  1.0000000000000031e+00  1.0000000000000013e+00  1.0000000000000018e+00  1.0000000000000011e+00  9.9999999999999900e-01  1.0000000000000022e+00  1.0000000000000000e+00  1.0000000000000031e+00  1.0000000000000033e+00  1.0000000000000042e+00  1.0000000000000084e+00  1.0000000000000011e+00  9.9999999999999734e-01  1.0000000000000056e+00  1.0000000000000013e+00  9.9999999999999800e-01  1.0000000000000042e+00  1.0000000000000002e+00  1.0000000000000007e+00  1.0000000000000020e+00  1.0000000000000018e+00  1.0000000000000013e+00  1.0000000000000011e+00  1.0000000000000036e+00  1.0000000000000051e+00  1.0000000000000044e+00  1.0000000000000062e+00  1.0000000000000089e+00  1.0000000000000087e+00  1.0000000000000111e+00  1.0000000000000171e+00  1.0000000000000242e+00  1.0000000000000295e+00  1.0000000000000426e+00  1.0000000000000553e+00  1.0000000000000773e+00  1.0000000000001050e+00  1.0000000000001446e+00  1.0000000000001992e+00  1.0000000000002711e+00  1.0000000000003717e+00  1.0000000000005120e+00  1.0000000000007025e+00  1.0000000000009641e+00  1.0000000000013258e+00  1.0000000000018205e+00  1.0000000000025004e+00  1.0000000000034353e+00  1.0000000000047202e+00  1.0000000000064855e+00  1.0000000000089133e+00  1.0000000000122466e+00  1.0000000000168305e+00  1.0000000000231306e+00  1.0000000000317830e+00  1.0000000000436808e+00  1.0000000000600209e+00  1.0000000000824880e+00  1.0000000001133629e+00  1.0000000001557887e+00  1.0000000002141036e+00  1.0000000002942426e+00  1.0000000004043788e+00  1.0000000005557534e+00  1.0000000007637857e+00  1.0000000010497019e+00  1.0000000014426613e+00  1.0000000019827340e+00  1.0000000027250098e+00  1.0000000037451977e+00  1.0000000051473532e+00  1.0000000070745061e+00  1.0000000097232444e+00  1.0000000133637716e+00  1.0000000183674824e+00  1.0000000252448500e+00  1.0000000346975282e+00  1.0000000476899291e+00  1.0000000655476342e+00  1.0000000900926473e+00  1.0000001238292733e+00  1.0000001701996084e+00  1.0000002339346188e+00  1.0000003215366275e+00  1.0000004419422450e+00  1.0000006074331713e+00  1.0000008348873382e+00  1.0000011474971784e+00  1.0000015771287507e+00  1.0000021675596498e+00  1.0000029789207556e+00  1.0000040937856891e+00  1.0000056255123253e+00  1.0000077296568699e+00  1.0000106195702911e+00  1.0000145876698765e+00  1.0000200343800285e+00  1.0000275073792810e+00  1.0000377545932062e+00  1.0000517953305534e+00  1.0000710150167795e+00  1.0000972899691145e+00  1.0001331491920142e+00  1.0001819794337228e+00  1.0002482761021141e+00  1.0003379329428508e+00  1.0004585416929335e+00  1.0006196281867923e+00  1.0008326632735980e+00  1.0011105182602538e+00  1.0014657179498569e+00  1.0019062576013422e+00  1.0024266729328211e+00  1.0029900876209252e+00  1.0034933959227248e+00  1.0037012824634997e+00  1.0031231284130724e+00  1.0007859099521221e+00  9.9481749307964051e-01  9.8167438102355453e-01  9.5487465516667491e-01  9.0539861943743771e-01  8.1591531521124849e-01  3.5268757033890630e-01  2.6988699481514644e-01  5.3055027018198810e-03  -4.6100022361022369e-02  2.0838934811953373e-02  1.8061435760582237e-02  -2.7102695967814786e-02  9.0083564844135738e-03  9.2527394515123530e-03  -1.0467791273219649e-02  -3.7328967770721870e-04  8.6647008527489557e-03  -7.2168575587470019e-03  4.6584465758536917e-04  3.5974696898758464e-03  -2.1065597225338791e-03  -1.6678928208787151e-03  3.3710033873872564e-03  -1.9867322860064448e-03  -2.8106750536759296e-04  1.0910794752544918e-03  -1.9219624975316398e-04  -1.0006767288481136e-03  1.2455201153806577e-03  -5.7256142804513468e-04  -1.4163142330310549e-04  2.5090879643907570e-04  1.3348669200175507e-04  -4.8074279060786535e-04  4.6077987423328621e-04  -1.8646519716819808e-04  -2.7767580023843158e-05  1.8089025460920484e-05  1.2435842188899206e-04  -2.1581804851076813e-04  1.7721614255287945e-04  -7.4169128801534177e-05  1.2280517675615930e-05  -2.7578655224059846e-05  7.5618241883583794e-05  -9.5604919043099071e-05  7.3174207862364854e-05  -3.5076073682918166e-05  1.9235522193936070e-05  -2.3862257186160833e-05  4.4037566315514271e-05  -3.6920575116581859e-05  4.2971436428901135e-05  0.0000000000000000e+00  0.0000000000000000e+00  0.0000000000000000e+00  0.0000000000000000e+00  0.0000000000000000e+00  0.0000000000000000e+00  0.0000000000000000e+00  0.0000000000000000e+00  0.0000000000000000e+00  0.0000000000000000e+00  0.0000000000000000e+00  0.0000000000000000e+00  0.0000000000000000e+00  0.0000000000000000e+00  0.0000000000000000e+00  0.0000000000000000e+00  0.0000000000000000e+00  0.0000000000000000e+00  0.0000000000000000e+00  0.0000000000000000e+00  0.0000000000000000e+00  0.0000000000000000e+00  0.0000000000000000e+00  0.0000000000000000e+00  0.0000000000000000e+00  0.0000000000000000e+00  0.0000000000000000e+00  0.0000000000000000e+00  0.0000000000000000e+00  0.0000000000000000e+00  0.0000000000000000e+00  0.0000000000000000e+00  0.0000000000000000e+00  0.0000000000000000e+00  0.0000000000000000e+00  0.0000000000000000e+00  0.0000000000000000e+00  0.0000000000000000e+00  0.0000000000000000e+00  0.0000000000000000e+00  0.0000000000000000e+00  0.0000000000000000e+00  0.0000000000000000e+00  0.0000000000000000e+00  0.0000000000000000e+00  0.0000000000000000e+00  0.0000000000000000e+00  0.0000000000000000e+00  0.0000000000000000e+00  0.0000000000000000e+00  0.0000000000000000e+00  0.0000000000000000e+00  0.0000000000000000e+00  0.0000000000000000e+00  0.0000000000000000e+00  0.0000000000000000e+00  0.0000000000000000e+00  0.0000000000000000e+00  0.0000000000000000e+00  0.0000000000000000e+00  0.0000000000000000e+00  0.0000000000000000e+00  0.0000000000000000e+00  0.0000000000000000e+00  0.0000000000000000e+00  0.0000000000000000e+00  0.0000000000000000e+00  0.0000000000000000e+00  0.0000000000000000e+00  0.0000000000000000e+00  0.0000000000000000e+00  0.0000000000000000e+00  0.0000000000000000e+00  0.0000000000000000e+00  0.0000000000000000e+00  0.0000000000000000e+00  0.0000000000000000e+00  0.0000000000000000e+00  0.0000000000000000e+00  0.0000000000000000e+00  0.0000000000000000e+00  0.0000000000000000e+00  0.0000000000000000e+00  0.0000000000000000e+00  0.0000000000000000e+00  0.0000000000000000e+00  0.0000000000000000e+00  0.0000000000000000e+00  2.3763310150642262e-06  -4.1788857559189742e-07  -1.1520302877305856e-06  1.7437281863623168e-06  -1.3738317367111602e-06  -2.1755972117752592e-07  2.2877495909262498e-06  -2.5348861996355437e-06  -6.8436814614305468e-07  4.3580206905483597e-06  -2.4751405135203075e-06  -4.6670632866971248e-06  6.3673452534048637e-06  3.7392774903544937e-06  -1.1005363625149990e-05  -1.9946366946975912e-06  1.6797277626466093e-05  1.0311451950927079e-06  -2.5616867468000047e-05  -3.6742552613715776e-06  3.8669662573379028e-05  1.8100579510009800e-05  -5.1816541356770724e-05  -5.9887716825692138e-05  3.6466236985230606e-05  1.2902964159586705e-04  8.8319548069788412e-05  -8.9700587514288818e-05  -2.8661360548588513e-04  -3.8660810635862480e-04  -3.6193527889829050e-04  -2.6097390014867295e-04  -1.4910040824002096e-04  -6.3986206532547446e-05  -1.3961989996462276e-05  1.0201718594778711e-05  2.0065346232442336e-05  2.2681873756542395e-05  2.3890645225347455e-05  2.3056703189173408e-05  2.3459268113052786e-05  2.2678316690485893e-05  2.2759754840190492e-05  2.2610104055281178e-05  2.2253760670120810e-05  2.2498016534720279e-05  2.2208558025828170e-05  2.2034965301698556e-05  2.2614672411918003e-05  2.1410751871942656e-05  2.2969652573382894e-05  2.1218814514507151e-05  2.2710703257769870e-05  2.1703983892522985e-05  2.2044604784920824e-05  2.2149015446807937e-05  2.1996741501558763e-05  2.1572198288999098e-05  2.3042775075286752e-05  2.0331504876938216e-05  2.3955476606983846e-05  2.0122409159982657e-05  2.3309093216719865e-05  2.1292708087805945e-05  2.2273899073675855e-05  2.1430361610181330e-05  2.3439696181460211e-05  1.9218214256976234e-05  2.5781068161039420e-05  1.7914980898052715e-05  2.5380015196051805e-05  1.9670564699157037e-05  2.3708437962838980e-05  1.9614365399437184e-05  2.6275478306783105e-05  1.5546090247078280e-05  2.9622450248599362e-05  1.4918388152279820e-05  2.7778498646672162e-05  1.6680606092152791e-05  2.9247866172112675e-05  1.1639882162956853e-05  3.4571842966087034e-05  1.0428378676048406e-05  3.2001723293151786e-05  1.0157191277604537e-05  4.2107853661584667e-05  -4.9661767336405129e-06  -1.0718536652583307e-06  2.4444425485274191e-06  -1.9247955835158358e-06  5.0722344131803133e-07  1.1925603322882666e-06  -2.3605442043985336e-06  1.5318264087182125e-06  1.6286699732833132e-06  -3.9720405827302875e-06  1.2360881438925724e-06  4.7529856511344476e-06  -4.9049083260731643e-06  -4.1439586087273237e-06  9.0652681955332769e-06  2.6690941534797635e-06  -1.4033044336463492e-05  -1.3842828861760740e-06  2.0834713627193716e-05  2.7417347167405682e-06  -3.0902572981380465e-05  -1.2049585506112321e-05  4.1642403701630609e-05  4.0460959073178075e-05  -3.4958379707067431e-05  -9.0922129178933576e-05  -4.2480411742193224e-05  8.2330784440861382e-05  1.8546131721150266e-04  2.0242443522244168e-04  1.4754592082472909e-04  7.2287816862843420e-05  1.6812716382841734e-05  -9.8519394027280605e-06  -1.6826120141168279e-05  -1.5211220845027552e-05  -1.2657667869328668e-05  -1.0415816931095011e-05  -9.5920644899529937e-06  -9.1058380697537925e-06  -8.7400549135304211e-06  -9.0209470582746324e-06  -8.4085078178464586e-06  -8.9969719750132807e-06  -8.3910494831954307e-06  -8.7465653838456003e-06  -8.6476632713828145e-06  -8.3834446871493684e-06  -8.8710942186889203e-06  -8.2896088509928242e-06  -8.6750487168569704e-06  -8.6926825381403955e-06  -8.0956383027726163e-06  -9.2227248810585839e-06  -7.7702321772039019e-06  -9.1502632689708654e-06  -8.2395649087512285e-06  -8.3949750316340921e-06  -8.9655443892586592e-06  -8.0305270577386744e-06  -8.6898130425014010e-06  -8.9538759687631750e-06  -7.3994505095164834e-06  -1.0065588549870824e-05  -7.0173389834064473e-06  -9.4311206208553331e-06  -8.4380416293387866e-06  -7.9530274354855443e-06  -9.0420865323686229e-06  -8.8281879425919271e-06  -6.8696952541100342e-06  -1.1254789072544200e-05  -5.5994795974859148e-06  -1.0494100362242700e-05  -7.9716502220850729e-06  -8.2245205074165663e-06  -8.1586993206259628e-06  -1.0829951678533246e-05  -4.1981828197523968e-06  -1.3321415545133620e-05  -5.04403495044