<?xml version="1.0"?>
<VTKFile type="UnstructuredGrid"  version="0.1"  >
<UnstructuredGrid>
<Piece  NumberOfPoints="21600" NumberOfCells="42542">
<Points>
<DataArray  type="Float64"  NumberOfComponents="3"  format="ascii">0 0 0  0.77 0 0  0.77 0.15 0  0 0.15 0  0.003221757322170014 0 0  0.006443514644340046 0 0  0.009665271966510193 0 0  0.01288702928868034 0 0  0.01610878661085048 0 0  0.01933054393302049 0 0  0.02255230125519027 0 0  0.02577405857735967 0 0  0.02899581589952872 0 0  0.03221757322169801 0 0  0.03543933054386744 0 0  0.03866108786603686 0 0  0.04188284518820627 0 0  0.0451046025103757 0 0  0.04832635983254521 0 0  0.05154811715471607 0 0  0.05476987447688695 0 0  0.05799163179905782 0 0  0.06121338912122846 0 0  0.06443514644339859 0 0  0.06765690376556875 0 0  0.0708786610877389 0 0  0.07410041840990904 0 0  0.0773221757320792 0 0  0.08054393305425039 0 0  0.08376569037642198 0 0  0.0869874476985936 0 0  0.09020920502076518 0 0  0.0934309623429339 0 0  0.0966527196651024 0 0  0.09987447698726967 0 0  0.1030962343094369 0 0  0.1063179916316041 0 0  0.1095397489537714 0 0  0.1127615062759386 0 0  0.1159832635981051 0 0  0.1192050209202709 0 0  0.1224267782424358 0 0  0.1256485355646001 0 0  0.1288702928867644 0 0  0.1320920502089288 0 0  0.1353138075310958 0 0  0.1385355648532632 0 0  0.1417573221754333 0 0  0.1449790794976035 0 0  0.1482008368197736 0 0  0.1514225941419428 0 0  0.1546443514641101 0 0  0.157866108786276 0 0  0.1610878661084403 0 0  0.1643096234306047 0 0  0.167531380752769 0 0  0.1707531380749333 0 0  0.1739748953970977 0 0  0.177196652719262 0 0  0.1804184100414264 0 0  0.1836401673635935 0 0  0.1868619246857611 0 0  0.1900836820079313 0 0  0.1933054393301014 0 0  0.1965271966522716 0 0  0.1997489539744406 0 0  0.2029707112966078 0 0  0.2061924686187736 0 0  0.209414225940938 0 0  0.2126359832631022 0 0  0.2158577405852666 0 0  0.219079497907431 0 0  0.2223012552295953 0 0  0.2255230125517597 0 0  0.2287447698739242 0 0  0.2319665271960914 0 0  0.2351882845182592 0 0  0.2384100418404293 0 0  0.2416317991625994 0 0  0.2448535564847696 0 0  0.2480753138069371 0 0  0.2512970711291014 0 0  0.2545188284512658 0 0  0.2577405857734302 0 0  0.2609623430955986 0 0  0.2641841004177688 0 0  0.2674058577399389 0 0  0.270627615062109 0 0  0.2738493723842792 0 0  0.2770711297064487 0 0  0.280292887028613 0 0  0.2835146443507774 0 0  0.2867364016729417 0 0  0.2899581589951061 0 0  0.2931799163172705 0 0  0.2964016736394348 0 0  0.2996234309615992 0 0  0.3028451882837672 0 0  0.3060669456059373 0 0  0.3092887029281075 0 0  0.3125104602502776 0 0  0.3157322175724478 0 0  0.3189539748946177 0 0  0.322175732216782 0 0  0.3253974895389464 0 0  0.3286192468611107 0 0  0.3318410041832751 0 0  0.3350627615054395 0 0  0.3382845188276038 0 0  0.3415062761497681 0 0  0.3447280334719325 0 0  0.3479497907940968 0 0  0.3511715481162612 0 0  0.3543933054384255 0 0  0.3576150627605947 0 0  0.3608368200827649 0 0  0.364058577404935 0 0  0.3672803347271051 0 0  0.3705020920492753 0 0  0.373723849371444 0 0  0.3769456066936084 0 0  0.3801673640157748 0 0  0.383389121337945 0 0  0.3866108786601209 0 0  0.3898326359823028 0 0  0.3930543933044846 0 0  0.3962761506266662 0 0  0.399497907948848 0 0  0.4027196652710298 0 0  0.4059414225932116 0 0  0.4091631799153934 0 0  0.4123849372375751 0 0  0.4156066945597569 0 0  0.4188284518819387 0 0  0.4220502092041222 0 0  0.4252719665263097 0 0  0.4284937238484974 0 0  0.4317154811706849 0 0  0.4349372384928725 0 0  0.4381589958150601 0 0  0.4413807531372476 0 0  0.4446025104594352 0 0  0.4478242677816181 0 0  0.4510460251037998 0 0  0.4542677824259815 0 0  0.4574895397481634 0 0  0.4607112970703451 0 0  0.4639330543925269 0 0  0.4671548117147087 0 0  0.4703765690368904 0 0  0.4735983263590722 0 0  0.4768200836812568 0 0  0.4800418410034444 0 0  0.483263598325632 0 0  0.4864853556478196 0 0  0.4897071129700028 0 0  0.4929288702921845 0 0  0.4961506276143663 0 0  0.4993723849365479 0 0  0.5025941422587239 0 0  0.5058158995809008 0 0  0.5090376569030826 0 0  0.5122594142252677 0 0  0.515481171547461 0 0  0.5187029288696494 0 0  0.5219246861918312 0 0  0.525146443514013 0 0  0.5283682008361947 0 0  0.5315899581583845 0 0  0.5348117154805778 0 0  0.5380334728027617 0 0  0.5412552301249435 0 0  0.5444769874471141 0 0  0.5476987447692853 0 0  0.550920502091467 0 0  0.5541422594136513 0 0  0.5573640167358447 0 0  0.560585774058034 0 0  0.5638075313802158 0 0  0.5670292887023975 0 0  0.5702510460245793 0 0  0.5734728033467682 0 0  0.5766945606689615 0 0  0.579916317991155 0 0  0.5831380753133483 0 0  0.5863598326355314 0 0  0.5895815899577131 0 0  0.5928033472798949 0 0  0.5960251046020785 0 0  0.5992468619242718 0 0  0.6024686192464619 0 0  0.6056903765686437 0 0  0.6089121338908206 0 0  0.6121338912129908 0 0  0.6153556485351673 0 0  0.618577405857349 0 0  0.6217991631795386 0 0  0.625020920501732 0 0  0.6282426778239159 0 0  0.6314644351460976 0 0  0.6346861924682795 0 0  0.6379079497904622 0 0  0.6411297071126555 0 0  0.6443514644348465 0 0  0.6475732217570283 0 0  0.650794979079206 0 0  0.6540167364013761 0 0  0.6572384937235518 0 0  0.6604602510457335 0 0  0.6636820083679225 0 0  0.6669037656901158 0 0  0.6701255230123004 0 0  0.6733472803344823 0 0  0.6765690376566641 0 0  0.6797907949788459 0 0  0.6830125523010393 0 0  0.686234309623231 0 0  0.6894560669454127 0 0  0.6926778242675914 0 0  0.6958995815897615 0 0  0.6991213389119363 0 0  0.7023430962341181 0 0  0.7055648535563062 0 0  0.7087866108784994 0 0  0.712008368200685 0 0  0.7152301255228668 0 0  0.7184518828450486 0 0  0.7216736401672305 0 0  0.724895397489423 0 0  0.7281171548116155 0 0  0.7313389121337973 0 0  0.7345606694559768 0 0  0.7377824267781468 0 0  0.7410041841003209 0 0  0.7442259414225026 0 0  0.7474476987446899 0 0  0.7506694560668832 0 0  0.7538912133890696 0 0  0.7571129707112513 0 0  0.760334728033433 0 0  0.7635564853556149 0 0  0.7667782426778067 0 0  0.77 0.001685393258423789 0  0.77 0.003370786516847669 0  0.77 0.005056179775271247 0  0.77 0.006741573033694517 0  0.77 0.008426966292117821 0  0.77 0.01011235955054176 0  0.77 0.01179775280896623 0  0.77 0.0134831460673904 0  0.77 0.01516853932581489 0  0.77 0.01685393258423891 0  0.77 0.01853932584266291 0  0.77 0.02022471910108589 0  0.77 0.02191011235950794 0  0.77 0.02359550561792999 0  0.77 0.02528089887635205 0  0.77 0.02696629213477411 0  0.77 0.02865168539319714 0  0.77 0.03033707865161956 0  0.77 0.03202247191004162 0  0.77 0.03370786516846367 0  0.77 0.03539325842688572 0  0.77 0.03707865168530778 0  0.77 0.03876404494372984 0  0.77 0.0404494382021519 0  0.77 0.04213483146057394 0  0.77 0.04382022471899601 0  0.77 0.04550561797741807 0  0.77 0.04719101123584013 0  0.77 0.04887640449426219 0  0.77 0.05056179775268425 0  0.77 0.0522471910111063 0  0.77 0.05393258426952837 0  0.77 0.05561797752795105 0  0.77 0.05730337078637505 0  0.77 0.05898876404479723 0  0.77 0.0606741573032193 0  0.77 0.06235955056164135 0  0.77 0.06404494382006341 0  0.77 0.06573033707848548 0  0.77 0.06741573033690752 0  0.77 0.06910112359532959 0  0.77 0.07078651685375165 0  0.77 0.0724719101121737 0  0.77 0.07415730337059653 0  0.77 0.07584269662902443 0  0.77 0.07752808988745429 0  0.77 0.07921348314588413 0  0.77 0.08089887640431678 0  0.77 0.08258426966274923 0  0.77 0.08426966292117907 0  0.77 0.08595505617960987 0  0.77 0.08764044943804362 0  0.77 0.08932584269647403 0  0.77 0.09101123595490389 0  0.77 0.09269662921333673 0  0.77 0.09438202247176901 0  0.77 0.09606741573019884 0  0.77 0.09775280898862983 0  0.77 0.09943820224706355 0  0.77 0.1011235955054938 0  0.77 0.1028089887639236 0  0.77 0.1044943820223567 0  0.77 0.1061797752807888 0  0.77 0.1078651685392186 0  0.77 0.1095505617976498 0  0.77 0.1112359550560835 0  0.77 0.1129213483145136 0  0.77 0.1146067415729456 0  0.77 0.1162921348313787 0  0.77 0.1179775280898085 0  0.77 0.1196629213482387 0  0.77 0.1213483146066724 0  0.77 0.1230337078651035 0  0.77 0.1247191011235322 0  0.77 0.1264044943819605 0  0.77 0.1280898876403903 0  0.77 0.1297752808988242 0  0.77 0.1314606741572554 0  0.77 0.1331460674156853 0  0.77 0.1348314606741154 0  0.77 0.1365168539325504 0  0.77 0.1382022471909802 0  0.77 0.13988764044941 0  0.77 0.1415730337078443 0  0.77 0.1432584269662752 0  0.77 0.144943820224705 0  0.77 0.1466292134831355 0  0.77 0.1483146067415701 0  0.7667782426778414 0.15 0  0.7635564853556813 0.15 0  0.7603347280335111 0.15 0  0.757112970711341 0.15 0  0.7538912133891708 0.15 0  0.7506694560670005 0.15 0  0.7474476987448303 0.15 0  0.7442259414226602 0.15 0  0.74100418410049 0.15 0  0.7377824267783197 0.15 0  0.7345606694561496 0.15 0  0.7313389121339794 0.15 0  0.7281171548118092 0.15 0  0.724895397489639 0.15 0  0.7216736401674688 0.15 0  0.7184518828452986 0.15 0  0.7152301255231284 0.15 0  0.7120083682009583 0.15 0  0.708786610878788 0.15 0  0.7055648535566178 0.15 0  0.7023430962344477 0.15 0  0.6991213389122775 0.15 0  0.6958995815901072 0.15 0  0.692677824267937 0.15 0  0.6894560669457669 0.15 0  0.6862343096235967 0.15 0  0.6830125523014264 0.15 0  0.6797907949792563 0.15 0  0.6765690376570861 0.15 0  0.6733472803349159 0.15 0  0.6701255230127456 0.15 0  0.6669037656905755 0.15 0  0.6636820083684053 0.15 0  0.6604602510462351 0.15 0  0.657238493724065 0.15 0  0.6540167364018947 0.15 0  0.6507949790797245 0.15 0  0.6475732217575543 0.15 0  0.644351464435384 0.15 0  0.6411297071132231 0.15 0  0.6379079497910645 0.15 0  0.634686192468906 0.15 0  0.6314644351467468 0.15 0  0.6282426778245765 0.15 0  0.6250209205024085 0.15 0  0.62179916318025 0.15 0  0.6185774058580914 0.15 0  0.6153556485359328 0.15 0  0.6121338912137689 0.15 0  0.6089121338915987 0.15 0  0.6056903765694354 0.15 0  0.6024686192472768 0.15 0  0.5992468619251182 0.15 0  0.5960251046029597 0.15 0  0.5928033472807912 0.15 0  0.589581589958621 0.15 0  0.5863598326364508 0.15 0  0.5831380753142792 0.15 0  0.5799163179920974 0.15 0  0.57669456
[...]
<PointData  Scalars="concentration"> 
<DataArray  type="Float64"  Name="concentration"  format="ascii">0.0000000000000000e+00  1.0000000000000022e+00  1.0000000000000018e+00  0.0000000000000000e+00  -3.6376074535121733e-13  4.5896100646117484e-14  -1.3863518568999715e-13  1.4519700645231229e-13  -3.8088123225472005e-13  5.0322108604276077e-13  -4.3495355795247529e-13  1.2377609991889498e-13  7.6818332990992216e-14  1.8671077970067793e-13  -8.9838415284031924e-13  1.4240758539900082e-12  -1.0430739605040705e-12  -1.6614934945568606e-13  9.7852450166844927e-13  -2.8287031750682754e-14  -2.4708637617141651e-12  4.1688544097107794e-12  -2.5569743124694600e-12  -1.8122520657000557e-12  4.4675752528076912e-12  -8.8908235706402532e-13  -7.5720936308395772e-12  1.2491242604286670e-11  -5.8827481407736790e-12  -9.0638557928981731e-12  1.6566564341253906e-11  -2.7243851991549235e-12  -2.5233265837192562e-11  3.7932316942710044e-11  -1.1533258245099511e-11  -3.8099458629276766e-11  5.6576051364048865e-11  -3.5080825734530887e-12  -8.7403511859423022e-11  1.1613203787809055e-10  -1.5166275195011903e-11  -1.4583069992411894e-10  1.8427389698055634e-10  1.1069009315684888e-11  -2.9974514896012073e-10  3.5163036643827402e-10  1.2897868279891691e-11  -5.1623184393125197e-10  5.6767672640781564e-10  1.1484158484659610e-10  -9.9124270628129526e-10  1.0163850195690366e-09  2.3444408342007843e-10  -1.7219891162343746e-09  1.6162878759433407e-09  6.8309821668611189e-10  -3.1922037552010600e-09  2.7361990296938275e-09  1.4510767234340724e-09  -5.6067864190264221e-09  4.2637340583209255e-09  3.3797208804261057e-09  -1.0242456362039310e-08  6.9766682817363620e-09  6.8414197181685379e-09  -1.8022727721292568e-08  1.0727827031592125e-08  1.4046620941968762e-08  -3.2039546117257049e-08  1.6768475004488925e-08  2.6904210045081457e-08  -5.4885683646752736e-08  2.3686275925702667e-08  5.2456299109341355e-08  -9.4136302360715890e-08  3.1355474126046752e-08  1.0044205070631874e-07  -1.5915579441038272e-07  3.4283478450434979e-08  1.9362468064065011e-07  -2.7216035566427335e-07  3.0646834082688067e-08  3.5900114688568603e-07  -4.5369731609971383e-07  -1.0400887954592461e-09  6.5258346195841306e-07  -7.3324917309125710e-07  -1.1516575231263715e-07  1.1861587461173677e-06  -1.1626353112366019e-06  -4.1972938140707333e-07  2.1776669989201004e-06  -1.8786671629135898e-06  -9.9103298164457896e-07  3.7796607919364095e-06  -2.7629201498320201e-06  -2.4048973502915881e-06  6.7226147883955158e-06  -4.0845760975904775e-06  -5.1070693094917968e-06  1.1563449375407885e-05  -5.4864371486381709e-06  -1.0609259618683151e-05  1.9725454022906533e-05  -6.5728440430798216e-06  -2.1215552545308125e-05  3.2978102226528175e-05  -5.7540187726950890e-06  -4.1384840106851173e-05  5.3938422895932836e-05  6.4610325029959786e-07  -7.8974412848321481e-05  8.5679815770871783e-05  2.1043322781933372e-05  -1.4780142846907462e-04  1.3059858306492298e-04  7.3775870213503651e-05  -2.7156953346893655e-04  1.8646527243528483e-04  1.9799047328543167e-04  -4.8984294505931736e-04  2.3519272770042220e-04  4.7682670732331349e-04  -8.6604832849836958e-04  2.1167660150801508e-04  1.0897502771423598e-03  -1.4949539984668769e-03  -8.6433387444420341e-05  2.4454680656990609e-03  -2.4960093344883233e-03  -1.2982264003590601e-03  5.6083422076331499e-03  -3.9209333126957735e-03  -5.8530317417828737e-03  1.4525756970946666e-02  -4.7391886203926705e-03  -3.0715324896720263e-02  1.9658015417377092e-01  4.0269292875653018e-01  7.2278127900348377e-01  6.5059006254963336e-01  8.5799274159380845e-01  9.5753358731624927e-01  9.8456554078839942e-01  9.9708686822490178e-01  1.0026846014017090e+00  1.0046536813389464e+00  1.0048996797193139e+00  1.0044131545756976e+00  1.0036858750094533e+00  1.0029474659679396e+00  1.0022929949166517e+00  1.0017511997924771e+00  1.0013203036152110e+00  1.0009862907496021e+00  1.0007318319130629e+00  1.0005403229229146e+00  1.0003974455237286e+00  1.0002915301424682e+00  1.0002133863903240e+00  1.0001559367531583e+00  1.0001138139063070e+00  1.0000829914611429e+00  1.0000604726114659e+00  1.0000440397196906e+00  1.0000320587776632e+00  1.0000233296900618e+00  1.0000169731950297e+00  1.0000123462835915e+00  1.0000089793820357e+00  1.0000065299408791e+00  1.0000047482790970e+00  1.0000034525211463e+00  1.0000025102470254e+00  1.0000018250799214e+00  1.0000013268954859e+00  1.0000009646818453e+00  1.0000007013365733e+00  1.0000005098773648e+00  1.0000003706835365e+00  1.0000002694885328e+00  1.0000001959194560e+00  1.0000001424346978e+00  1.0000001035512873e+00  1.0000000752830185e+00  1.0000000547319319e+00  1.0000000397911830e+00  1.0000000289291429e+00  1.0000000210323077e+00  1.0000000152911857e+00  1.0000000111172735e+00  1.0000000080827369e+00  1.0000000058765388e+00  1.0000000042725568e+00  1.0000000031063998e+00  1.0000000022585485e+00  1.0000000016421204e+00  1.0000000011939447e+00  1.0000000008680925e+00  1.0000000006311762e+00  1.0000000004589227e+00  1.0000000003336809e+00  1.0000000002426201e+00  1.0000000001764111e+00  1.0000000001282707e+00  1.0000000000932672e+00  1.0000000000678180e+00  1.0000000000493121e+00  1.0000000000358578e+00  1.0000000000260738e+00  1.0000000000189593e+00  1.0000000000137870e+00  1.0000000000100255e+00  1.0000000000072902e+00  1.0000000000053018e+00  1.0000000000038545e+00  1.0000000000028020e+00  1.0000000000020395e+00  1.0000000000014828e+00  1.0000000000010778e+00  1.0000000000007845e+00  1.0000000000005700e+00  1.0000000000004134e+00  1.0000000000003038e+00  1.0000000000002200e+00  1.0000000000001599e+00  1.0000000000001168e+00  1.0000000000000859e+00  1.0000000000000617e+00  1.0000000000000469e+00  1.0000000000000315e+00  1.0000000000000233e+00  1.0000000000000211e+00  1.0000000000000138e+00  1.0000000000000115e+00  1.0000000000000087e+00  1.0000000000000056e+00  1.0000000000000031e+00  1.0000000000000047e+00  1.0000000000000033e+00  1.0000000000000027e+00  1.0000000000000024e+00  9.9999999999999412e-01  9.9999999999999611e-01  9.9999999999999567e-01  9.9999999999999534e-01  9.9999999999999534e-01  9.9999999999999556e-01  9.9999999999999512e-01  9.9999999999999578e-01  9.9999999999999489e-01  9.9999999999999545e-01  9.9999999999999534e-01  9.9999999999999567e-01  9.9999999999999578e-01  9.9999999999999534e-01  9.9999999999999578e-01  9.9999999999999500e-01  9.9999999999999589e-01  9.9999999999999523e-01  9.9999999999999567e-01  9.9999999999999523e-01  9.9999999999999534e-01  9.9999999999999578e-01  9.9999999999999489e-01  9.9999999999999689e-01  9.9999999999999323e-01  9.9999999999999589e-01  9.9999999999999556e-01  9.9999999999999589e-01  9.9999999999999534e-01  9.9999999999999545e-01  9.9999999999999556e-01  9.9999999999999545e-01  9.9999999999999512e-01  9.9999999999999600e-01  9.9999999999999512e-01  9.9999999999999556e-01  9.9999999999999512e-01  9.9999999999999578e-01  9.9999999999999512e-01  9.9999999999999545e-01  9.9999999999999545e-01  9.9999999999999534e-01  9.9999999999999512e-01  9.9999999999999567e-01  9.9999999999999634e-01  9.9999999999999545e-01  9.9999999999999556e-01  9.9999999999999611e-01  9.9999999999999445e-01  9.9999999999999489e-01  9.9999999999999534e-01  9.9999999999999578e-01  9.9999999999999478e-01  9.9999999999999589e-01  9.9999999999999489e-01  9.9999999999999534e-01  9.9999999999999656e-01  9.9999999999999545e-01  9.9999999999999512e-01  9.9999999999999567e-01  9.9999999999999478e-01  9.9999999999999556e-01  9.9999999999999489e-01  9.9999999999999567e-01  9.9999999999999545e-01  9.9999999999999500e-01  9.9999999999999523e-01  9.9999999999999589e-01  9.9999999999999478e-01  9.9999999999999567e-01  9.9999999999999567e-01  9.9999999999999556e-01  9.9999999999999489e-01  9.9999999999999556e-01  9.9999999999999534e-01  9.9999999999999534e-01  9.9999999999999589e-01  9.9999999999999523e-01  9.9999999999999523e-01  9.9999999999999545e-01  9.9999999999999512e-01  9.9999999999999556e-01  9.9999999999999500e-01  9.9999999999999556e-01  9.9999999999999600e-01  9.9999999999999512e-01  9.9999999999999678e-01  9.9999999999999212e-01  1.0000000000000009e+00  1.0000000000000022e+00  1.0000000000000029e+00  1.0000000000000027e+00  1.0000000000000031e+00  1.0000000000000056e+00  1.0000000000000071e+00  1.0000000000000082e+00  1.0000000000000124e+00  1.0000000000000158e+00  1.0000000000000233e+00  1.0000000000000313e+00  1.0000000000000406e+00  1.0000000000000577e+00  1.0000000000000766e+00  1.0000000000001048e+00  1.0000000000001457e+00  1.0000000000001996e+00  1.0000000000002698e+00  1.0000000000003726e+00  1.0000000000005114e+00  1.0000000000007017e+00  1.0000000000009646e+00  1.0000000000013236e+00  1.0000000000018205e+00  1.0000000000025022e+00  1.0000000000034337e+00  1.0000000000047202e+00  1.0000000000064868e+00  1.0000000000089109e+00  1.0000000000122475e+00  1.0000000000168288e+00  1.0000000000231275e+00  1.0000000000317832e+00  1.0000000000436773e+00  1.0000000000600220e+00  1.0000000000824885e+00  1.0000000001133595e+00  1.0000000001557872e+00  1.0000000002140983e+00  1.0000000002942333e+00  1.0000000004043703e+00  1.0000000005557304e+00  1.0000000007637639e+00  1.0000000010496699e+00  1.0000000014426114e+00  1.0000000019826725e+00  1.0000000027249205e+00  1.0000000037450723e+00  1.0000000051471833e+00  1.0000000070742676e+00  1.0000000097229167e+00  1.0000000133633198e+00  1.0000000183668536e+00  1.0000000252439842e+00  1.0000000346963283e+00  1.0000000476882718e+00  1.0000000655453452e+00  1.0000000900894930e+00  1.0000001238249161e+00  1.0000001701935888e+00  1.0000002339263172e+00  1.0000003215251705e+00  1.0000004419264366e+00  1.0000006074113648e+00  1.0000008348572629e+00  1.0000011474556965e+00  1.0000015770715565e+00  1.0000021674807940e+00  1.0000029788120501e+00  1.0000040936358545e+00  1.0000056253058358e+00  1.0000077293723619e+00  1.0000106191783737e+00  1.0000145871301689e+00  1.0000200336370937e+00  1.0000275063571373e+00  1.0000377531879163e+00  1.0000517934003224e+00  1.0000710123688714e+00  1.0000972863428015e+00  1.0001331442369557e+00  1.0001819726833370e+00  1.0002482669427228e+00  1.0003379205813439e+00  1.0004585251301876e+00  1.0006196062123078e+00  1.0008326345123262e+00  1.0011104813297846e+00  1.0014656718340900e+00  1.0019062024271810e+00  1.0024266114687608e+00  1.0029900280249402e+00  1.0034933565766828e+00  1.0037013001516719e+00  1.0031232715649590e+00  1.0007862988916463e+00  9.9481832837266959e-01  9.8167597701438636e-01  9.5487746079373115e-01  9.0540316440732194e-01  8.1592198414405737e-01  3.5269277925722547e-01  2.6989184790246762e-01  5.3046337099262961e-03  -4.6099901721722999e-02  2.0839128536882350e-02  1.8061285992589052e-02  -2.7102788351341570e-02  9.0087408945259042e-03  9.2522281930325165e-03  -1.0467456423399158e-02  -3.7327523779751335e-04  8.6644827041960689e-03  -7.2167678770391859e-03  4.6606519663161652e-04  3.5970909777319304e-03  -2.1063406433172605e-03  -1.6678040272008567e-03  3.3707725289263521e-03  -1.9866509524954145e-03  -2.8088853498623757e-04  1.0908101899885960e-03  -1.9209172307428450e-04  -1.0005445675872141e-03  1.2453221515923865e-03  -5.7251774599154158e-04  -1.4147972961077934e-04  2.5072611725058272e-04  1.3351538059601446e-04  -4.8060281455195920e-04  4.6062678684758048e-04  -1.8645459873918834e-04  -2.7641478438768125e-05  1.7966568156049491e-05  1.2434266400272755e-04  -2.1569619017019530e-04  1.7709570947310060e-04  -7.4202171659081039e-05  1.2355864458232906e-05  -2.7728307708208017e-05  7.5481816896510090e-05  -9.5707595136911158e-05  7.2750831105398024e-05  -3.5770043214234367e-05  1.8230897991358543e-05  -2.6014595652032559e-05  4.0542338715735580e-05  -4.3210912549463242e-05  3.2284259230884837e-05  -1.9215434090785264e-05  1.4127518676920563e-05  -1.7009989258759720e-05  2.0846728235094785e-05  -2.0128074483839629e-05  1.5354211234083260e-05  -1.0696876779426211e-05  9.0674503430213223e-06  -9.8627708419476793e-06  1.0592070993149369e-05  -9.7030048310654032e-06  7.6793089796620604e-06  -5.9593410386476514e-06  5.3329028631345471e-06  -5.4252265886958203e-06  5.3923339524310072e-06  -4.8213926745432323e-06  3.9611673362864991e-06  -3.2857289998194997e-06  2.9934240537849373e-06  -2.9116918451351259e-06  2.7652223183641090e-06  -2.4520256021976017e-06  2.0771972493328995e-06  -1.7907165957240571e-06  1.6366746193151976e-06  -1.5453293879810906e-06  1.4297349788537121e-06  -1.2672232204226820e-06  1.0976728963026826e-06  -9.6661623519698716e-07  8.8159650439451616e-07  -8.1649469609202078e-07  7.4459974754761227e-07  -6.6170241456189458e-07  5.8181800145030236e-07  -5.1813963029475533e-07  4.7093138222651295e-07  -4.3089147900376467e-07  3.8998908725391823e-07  -3.4771484657770742e-07  3.0867219962224788e-07  -2.7645674036484007e-07  2.5046078178302019e-07  -2.2748070425830247e-07  2.0512915201415064e-07  -1.8343374597148758e-07  1.6379832265659479e-07  -1.4711110464973124e-07  1.3295290120015820e-07  -1.2024014681761861e-07  1.0825751870928456e-07  -9.7036652414093648e-08  8.6962999571249454e-08  -7.8213762073914793e-08  7.0578555725238636e-08  -6.3690681281961206e-08  5.7326931014014367e-08  -5.1486604168533513e-08  4.6256024515627000e-08  -4.1647591608018509e-08  3.7566280344809613e-08  -3.3884223609356140e-08  3.0526368731276356e-08  -2.7479207939847433e-08  2.4752595925689945e-08  -2.2328446389286132e-08  2.0165971510743001e-08  -1.8210554197792579e-08  1.6432165252572682e-08  -1.4801311883783162e-08  1.3302084529877684e-08  -1.1885920270822075e-08  1.0502558076796717e-08  -9.0780324511277349e-09  7.5187209378181944e-09  -5.7765468520493347e-09  3.6490393313205539e-09  -1.2705050645629788e-09  -1.8942642941704150e-09  4.9731595809876967e-09  -9.6246001241211806e-09  1.2538384407568739e-08  -1.9296996559918020e-08  1.8951388448454586e-08  -3.0222902354615545e-08  1.8407325941588729e-08  -4.4124974035281481e-08  0.0000000000000000e+00  0.0000000000000000e+00  0.0000000000000000e+00  0.0000000000000000e+00  0.0000000000000000e+00  0.0000000000000000e+00  0.0000000000000000e+00  0.0000000000000000e+00  0.0000000000000000e+00  0.0000000000000000e+00  0.0000000000000000e+00  0.0000000000000000e+00  0.0000000000000000e+00  0.0000000000000000e+00  0.0000000000000000e+00  0.0000000000000000e+00  0.0000000000000000e+00  0.0000000000000000e+00  0.0000000000000000e+00  0.0000000000000000e+00  0.0000000000000000e+00  0.0000000000000000e+00  0.0000000000000000e+00  0.0000000000000000e+00  0.0000000000000000e+00  0.0000000000000000e+00  0.0000000000000000e+00  0.0000000000000000e+00  0.0000000000000000e+00  0.0000000000000000e+00  0.0000000000000000e+00  0.0000000000000000e+00  0.0000000000000000e+00  0.0000000000000000e+00  0.0000000000000000e+00  0.0000000000000000e+00  0.0000000000000000e+00  0.0000000000000000e+00  0.0000000000000000e+00  0.0000000000000000e+00  0.0000000000000000e+00  0.0000000000000000e+00  0.0000000000000000e+00  0.0000000000000000e+00  0.0000000000000000e+00  0.0000000000000000e+00  0.0000000000000000e+00  0.0000000000000000e+00  0.0000000000000000e+00  0.0000000000000000e+00  0.0000000000000000e+00  0.0000000000000000e+00  0.0000000000000000e+00  0.0000000000000000e+00  0.0000000000000000e+00  0.0000000000000000e+00  0.0000000000000000e+00  0.0000000000000000e+00  0.0000000000000000e+00  0.0000000000000000e+00  0.0000000000000000e+00  0.0000000000000000e+00  0.0000000000000000e+00  0.0000000000000000e+00  0.0000000000000000e+00  0.0000000000000000e+00  0.0000000000000000e+00  0.0000000000000000e+00  0.0000000000000000e+00  0.0000000000000000e+00  0.0000000000000000e+00  0.0000000000000000e+00  0.0000000000000000e+00  0.0000000000000000e+00  0.0000000000000000e+00  0.0000000000000000e+00  0.0000000000000000e+00  0.0000000000000000e+00  0.0000000000000000e+00  0.0000000000000000e+00  0.0000000000000000e+00  0.0000000000000000e+00  0.0000000000000000e+00  0.0000000000000000e+00  0.0000000000000000e+00  0.0000000000000000e+00  0.0000000000000000e+00  0.0000000000000000e+00  1.0430752536283793e-13  -2.9710485587241274e-13  3.9988767046278452e-14  -3.6709119871386964e-13  2.2002755356437601e-13  -4.0101487982974989e-13  -4.0117901910342345e-14  -1.4508646912060173e-13  2.3613126214890403e-13  -9.9159375079219604e-13  8.6010973770363911e-13  -4.8286273023477957e-13  -5.2176634157584070e-13  8.4683336567353222e-14  1.0940764361737032e-12  -2.5392862176994251e-12  1.5413987258620643e-12  4.8459784896180618e-13  -1.6046681180961038e-12  -1.0476819543233753e-12  4.2511847682851711e-12  -4.4206189470036331e-12  -2.3757546564811808e-13  3.2948508417124418e-12  -3.8230795832148865e-15  -7.6060116991685429e-12  8.4313722020585350e-12  -9.9409024296583050e-14  -6.9338714349270247e-12  -4.1490001234462291e-13  1.4076802231444989e-11  -1.4475986626808736e-11  -3.0065104078034863e-12  1.2415161301696439e-11  5.2907541798744132e-12  -2.8705266390778957e-11  1.7788870345942165e-11  1.5839660997991110e-11  -1.5949227750741518e-11  -2.9531835732707216e-11  4.9237461135462009e-11  -6.7984537413961830e-13  -4.0943637812000513e-11  -1.1915051067275302e-11  8.4568718884484501e-11  -3.8556291441571505e-11  -6.3295970908736502e-11  1.9589213422578711e-11  1.2373013354414070e-10  -9.5176232257179626e-11  -9.0117400670476538e-11  6.2115823416172415e-11  1.9043214446260118e-10  -1.6535797738615192e-10  -1.5372870500720161e-10  9.3183893182728075e-11  3.2730884785349503e-10  -2.1253317137745564e-10  -3.1251125184248761e-10  3.3417554130458076e-11  5.9579039501122388e-10  -7.0312368654986978e-11  -5.7566726922778769e-10  -3.7032318821740067e-10  8.2922149839372063e-10  6.2889266847095042e-10  -4.9997677283016874e-10  -1.3239544707394902e-09  -1.7898626380521602e-11  1.6269821080748184e-09  1.1661617355431177e-09  -9.2461963108286531e-10  -2.8787600497183451e-09  -4.1391201797416021e-10  1.7375184728375716e-09  4.7989835117129223e-09  -5.5624944137356712e-10  -1.8352699795508512e-09  -8.6471637229313893e-09  6.7109235961583217e-10  -6.8272275993216311e-10  1.5276365566025708e-08  2.3506979946888527e-09  1.2459368907024382e-08  -1.7968455485354649e-08  -3.5841872595888056e-09  -3.9931318406993267e-08  -6.6960028000794400e-09  -7.0513609922827064e-15  1.5150406287908953e-13  -1.7238487924946349e-14  6.2325247531475549e-14  -5.8714510276662751e-14  3.1989114240508537e-13  -2.3289174430186616e-13  3.8986683296883312e-14  3.6163213152026240e-13  -1.2741778691388795e-13  -4.4802946053130550e-13  1.0797028928351631e-12  -5.7693142327327053e-13  -5.3731053252514098e-13  1.2146992696241700e-12  8.1330188346942866e-14  -1.9982969563265644e-12  2.3260148193561645e-12  2.3934338734835292e-13  -2.5997448228543229e-12  1.4721367039156367e-12  2.9890166074782727e-12  -5.0088384695009233e-12  1.1087871241465220e-12  4.8183274472775239e-12  -3.7375426967142421e-12  -4.6950718277991921e-12  9.6001620814159312e-12  -1.8490885429018639e-12  -9.1369672692931194e-12  6.2485816245858860e-12  1.0243749038284860e-11  -1.6485890966875254e-11  -7.4464376731629940e-13  1.8343239998161065e-11  -4.5195844620822509e-12  -2.5240802963214703e-11  2.1965868376838984e-11  1.7403774741986490e-11  -2.8824578790006386e-11  -1.7663154553194608e-11  5.0934057140891394e-11  -2.9050997821641427e-12  -5.4440226383357937e-11  7.5094747377767834e-12  8.0001252266263785e-11  -4.0165845335012802e-11  -7.8075108891911848e-11  4.5279018137960323e-11  1.1444946859161844e-10  -9.1417244268876459e-11  -1.1545723015995670e-10  8.9539291733041752e-11  1.8166928717240469e-10  -1.4285544430291185e-10  -1.9912775058507001e-10  1.1046296635540420e-10  3.2882888716289712e-10  -1.3732411290726133e-10  -3.7933944322443263e-10  -1.1552817824296236e-11  5.7404482531886231e-10  1.1795658031630538e-10  -5.6086817561052194e-10  -5.4514992498199238e-10  5.9741720391947252e-10  8.4555255150193565e-10  -4.6599961812475561e-11  -1.3369238638442845e-09  -6.2955097993840119e-10  9.2945364237567638e-10  1.8780782290304004e-09  1.3722632557853590e-10  -1.8994319618258767e-09  -2.4320801809078370e-09  1.22195306903427