<?xml version="1.0"?>
<VTKFile type="UnstructuredGrid"  version="0.1"  >
<UnstructuredGrid>
<Piece  NumberOfPoints="21600" NumberOfCells="42542">
<Points>
<DataArray  type="Float64"  NumberOfComponents="3"  format="ascii">0 0 0  0.77 0 0  0.77 0.15 0  0 0.15 0  0.003221757322170014 0 0  0.006443514644340046 0 0  0.009665271966510193 0 0  0.01288702928868034 0 0  0.01610878661085048 0 0  0.01933054393302049 0 0  0.02255230125519027 0 0  0.02577405857735967 0 0  0.02899581589952872 0 0  0.03221757322169801 0 0  0.03543933054386744 0 0  0.03866108786603686 0 0  0.04188284518820627 0 0  0.0451046025103757 0 0  0.04832635983254521 0 0  0.05154811715471607 0 0  0.05476987447688695 0 0  0.05799163179905782 0 0  0.06121338912122846 0 0  0.06443514644339859 0 0  0.06765690376556875 0 0  0.0708786610877389 0 0  0.07410041840990904 0 0  0.0773221757320792 0 0  0.08054393305425039 0 0  0.08376569037642198 0 0  0.0869874476985936 0 0  0.09020920502076518 0 0  0.0934309623429339 0 0  0.0966527196651024 0 0  0.09987447698726967 0 0  0.1030962343094369 0 0  0.1063179916316041 0 0  0.1095397489537714 0 0  0.1127615062759386 0 0  0.1159832635981051 0 0  0.1192050209202709 0 0  0.1224267782424358 0 0  0.1256485355646001 0 0  0.1288702928867644 0 0  0.1320920502089288 0 0  0.1353138075310958 0 0  0.1385355648532632 0 0  0.1417573221754333 0 0  0.1449790794976035 0 0  0.1482008368197736 0 0  0.1514225941419428 0 0  0.1546443514641101 0 0  0.157866108786276 0 0  0.1610878661084403 0 0  0.1643096234306047 0 0  0.167531380752769 0 0  0.1707531380749333 0 0  0.1739748953970977 0 0  0.177196652719262 0 0  0.1804184100414264 0 0  0.1836401673635935 0 0  0.1868619246857611 0 0  0.1900836820079313 0 0  0.1933054393301014 0 0  0.1965271966522716 0 0  0.1997489539744406 0 0  0.2029707112966078 0 0  0.2061924686187736 0 0  0.209414225940938 0 0  0.2126359832631022 0 0  0.2158577405852666 0 0  0.219079497907431 0 0  0.2223012552295953 0 0  0.2255230125517597 0 0  0.2287447698739242 0 0  0.2319665271960914 0 0  0.2351882845182592 0 0  0.2384100418404293 0 0  0.2416317991625994 0 0  0.2448535564847696 0 0  0.2480753138069371 0 0  0.2512970711291014 0 0  0.2545188284512658 0 0  0.2577405857734302 0 0  0.2609623430955986 0 0  0.2641841004177688 0 0  0.2674058577399389 0 0  0.270627615062109 0 0  0.2738493723842792 0 0  0.2770711297064487 0 0  0.280292887028613 0 0  0.2835146443507774 0 0  0.2867364016729417 0 0  0.2899581589951061 0 0  0.2931799163172705 0 0  0.2964016736394348 0 0  0.2996234309615992 0 0  0.3028451882837672 0 0  0.3060669456059373 0 0  0.3092887029281075 0 0  0.3125104602502776 0 0  0.3157322175724478 0 0  0.3189539748946177 0 0  0.322175732216782 0 0  0.3253974895389464 0 0  0.3286192468611107 0 0  0.3318410041832751 0 0  0.3350627615054395 0 0  0.3382845188276038 0 0  0.3415062761497681 0 0  0.3447280334719325 0 0  0.3479497907940968 0 0  0.3511715481162612 0 0  0.3543933054384255 0 0  0.3576150627605947 0 0  0.3608368200827649 0 0  0.364058577404935 0 0  0.3672803347271051 0 0  0.3705020920492753 0 0  0.373723849371444 0 0  0.3769456066936084 0 0  0.3801673640157748 0 0  0.383389121337945 0 0  0.3866108786601209 0 0  0.3898326359823028 0 0  0.3930543933044846 0 0  0.3962761506266662 0 0  0.399497907948848 0 0  0.4027196652710298 0 0  0.4059414225932116 0 0  0.4091631799153934 0 0  0.4123849372375751 0 0  0.4156066945597569 0 0  0.4188284518819387 0 0  0.4220502092041222 0 0  0.4252719665263097 0 0  0.4284937238484974 0 0  0.4317154811706849 0 0  0.4349372384928725 0 0  0.4381589958150601 0 0  0.4413807531372476 0 0  0.4446025104594352 0 0  0.4478242677816181 0 0  0.4510460251037998 0 0  0.4542677824259815 0 0  0.4574895397481634 0 0  0.4607112970703451 0 0  0.4639330543925269 0 0  0.4671548117147087 0 0  0.4703765690368904 0 0  0.4735983263590722 0 0  0.4768200836812568 0 0  0.4800418410034444 0 0  0.483263598325632 0 0  0.4864853556478196 0 0  0.4897071129700028 0 0  0.4929288702921845 0 0  0.4961506276143663 0 0  0.4993723849365479 0 0  0.5025941422587239 0 0  0.5058158995809008 0 0  0.5090376569030826 0 0  0.5122594142252677 0 0  0.515481171547461 0 0  0.5187029288696494 0 0  0.5219246861918312 0 0  0.525146443514013 0 0  0.5283682008361947 0 0  0.5315899581583845 0 0  0.5348117154805778 0 0  0.5380334728027617 0 0  0.5412552301249435 0 0  0.5444769874471141 0 0  0.5476987447692853 0 0  0.550920502091467 0 0  0.5541422594136513 0 0  0.5573640167358447 0 0  0.560585774058034 0 0  0.5638075313802158 0 0  0.5670292887023975 0 0  0.5702510460245793 0 0  0.5734728033467682 0 0  0.5766945606689615 0 0  0.579916317991155 0 0  0.5831380753133483 0 0  0.5863598326355314 0 0  0.5895815899577131 0 0  0.5928033472798949 0 0  0.5960251046020785 0 0  0.5992468619242718 0 0  0.6024686192464619 0 0  0.6056903765686437 0 0  0.6089121338908206 0 0  0.6121338912129908 0 0  0.6153556485351673 0 0  0.618577405857349 0 0  0.6217991631795386 0 0  0.625020920501732 0 0  0.6282426778239159 0 0  0.6314644351460976 0 0  0.6346861924682795 0 0  0.6379079497904622 0 0  0.6411297071126555 0 0  0.6443514644348465 0 0  0.6475732217570283 0 0  0.650794979079206 0 0  0.6540167364013761 0 0  0.6572384937235518 0 0  0.6604602510457335 0 0  0.6636820083679225 0 0  0.6669037656901158 0 0  0.6701255230123004 0 0  0.6733472803344823 0 0  0.6765690376566641 0 0  0.6797907949788459 0 0  0.6830125523010393 0 0  0.686234309623231 0 0  0.6894560669454127 0 0  0.6926778242675914 0 0  0.6958995815897615 0 0  0.6991213389119363 0 0  0.7023430962341181 0 0  0.7055648535563062 0 0  0.7087866108784994 0 0  0.712008368200685 0 0  0.7152301255228668 0 0  0.7184518828450486 0 0  0.7216736401672305 0 0  0.724895397489423 0 0  0.7281171548116155 0 0  0.7313389121337973 0 0  0.7345606694559768 0 0  0.7377824267781468 0 0  0.7410041841003209 0 0  0.7442259414225026 0 0  0.7474476987446899 0 0  0.7506694560668832 0 0  0.7538912133890696 0 0  0.7571129707112513 0 0  0.760334728033433 0 0  0.7635564853556149 0 0  0.7667782426778067 0 0  0.77 0.001685393258423789 0  0.77 0.003370786516847669 0  0.77 0.005056179775271247 0  0.77 0.006741573033694517 0  0.77 0.008426966292117821 0  0.77 0.01011235955054176 0  0.77 0.01179775280896623 0  0.77 0.0134831460673904 0  0.77 0.01516853932581489 0  0.77 0.01685393258423891 0  0.77 0.01853932584266291 0  0.77 0.02022471910108589 0  0.77 0.02191011235950794 0  0.77 0.02359550561792999 0  0.77 0.02528089887635205 0  0.77 0.02696629213477411 0  0.77 0.02865168539319714 0  0.77 0.03033707865161956 0  0.77 0.03202247191004162 0  0.77 0.03370786516846367 0  0.77 0.03539325842688572 0  0.77 0.03707865168530778 0  0.77 0.03876404494372984 0  0.77 0.0404494382021519 0  0.77 0.04213483146057394 0  0.77 0.04382022471899601 0  0.77 0.04550561797741807 0  0.77 0.04719101123584013 0  0.77 0.04887640449426219 0  0.77 0.05056179775268425 0  0.77 0.0522471910111063 0  0.77 0.05393258426952837 0  0.77 0.05561797752795105 0  0.77 0.05730337078637505 0  0.77 0.05898876404479723 0  0.77 0.0606741573032193 0  0.77 0.06235955056164135 0  0.77 0.06404494382006341 0  0.77 0.06573033707848548 0  0.77 0.06741573033690752 0  0.77 0.06910112359532959 0  0.77 0.07078651685375165 0  0.77 0.0724719101121737 0  0.77 0.07415730337059653 0  0.77 0.07584269662902443 0  0.77 0.07752808988745429 0  0.77 0.07921348314588413 0  0.77 0.08089887640431678 0  0.77 0.08258426966274923 0  0.77 0.08426966292117907 0  0.77 0.08595505617960987 0  0.77 0.08764044943804362 0  0.77 0.08932584269647403 0  0.77 0.09101123595490389 0  0.77 0.09269662921333673 0  0.77 0.09438202247176901 0  0.77 0.09606741573019884 0  0.77 0.09775280898862983 0  0.77 0.09943820224706355 0  0.77 0.1011235955054938 0  0.77 0.1028089887639236 0  0.77 0.1044943820223567 0  0.77 0.1061797752807888 0  0.77 0.1078651685392186 0  0.77 0.1095505617976498 0  0.77 0.1112359550560835 0  0.77 0.1129213483145136 0  0.77 0.1146067415729456 0  0.77 0.1162921348313787 0  0.77 0.1179775280898085 0  0.77 0.1196629213482387 0  0.77 0.1213483146066724 0  0.77 0.1230337078651035 0  0.77 0.1247191011235322 0  0.77 0.1264044943819605 0  0.77 0.1280898876403903 0  0.77 0.1297752808988242 0  0.77 0.1314606741572554 0  0.77 0.1331460674156853 0  0.77 0.1348314606741154 0  0.77 0.1365168539325504 0  0.77 0.1382022471909802 0  0.77 0.13988764044941 0  0.77 0.1415730337078443 0  0.77 0.1432584269662752 0  0.77 0.144943820224705 0  0.77 0.1466292134831355 0  0.77 0.1483146067415701 0  0.7667782426778414 0.15 0  0.7635564853556813 0.15 0  0.7603347280335111 0.15 0  0.757112970711341 0.15 0  0.7538912133891708 0.15 0  0.7506694560670005 0.15 0  0.7474476987448303 0.15 0  0.7442259414226602 0.15 0  0.74100418410049 0.15 0  0.7377824267783197 0.15 0  0.7345606694561496 0.15 0  0.7313389121339794 0.15 0  0.7281171548118092 0.15 0  0.724895397489639 0.15 0  0.7216736401674688 0.15 0  0.7184518828452986 0.15 0  0.7152301255231284 0.15 0  0.7120083682009583 0.15 0  0.708786610878788 0.15 0  0.7055648535566178 0.15 0  0.7023430962344477 0.15 0  0.6991213389122775 0.15 0  0.6958995815901072 0.15 0  0.692677824267937 0.15 0  0.6894560669457669 0.15 0  0.6862343096235967 0.15 0  0.6830125523014264 0.15 0  0.6797907949792563 0.15 0  0.6765690376570861 0.15 0  0.6733472803349159 0.15 0  0.6701255230127456 0.15 0  0.6669037656905755 0.15 0  0.6636820083684053 0.15 0  0.6604602510462351 0.15 0  0.657238493724065 0.15 0  0.6540167364018947 0.15 0  0.6507949790797245 0.15 0  0.6475732217575543 0.15 0  0.644351464435384 0.15 0  0.6411297071132231 0.15 0  0.6379079497910645 0.15 0  0.634686192468906 0.15 0  0.6314644351467468 0.15 0  0.6282426778245765 0.15 0  0.6250209205024085 0.15 0  0.62179916318025 0.15 0  0.6185774058580914 0.15 0  0.6153556485359328 0.15 0  0.6121338912137689 0.15 0  0.6089121338915987 0.15 0  0.6056903765694354 0.15 0  0.6024686192472768 0.15 0  0.5992468619251182 0.15 0  0.5960251046029597 0.15 0  0.5928033472807912 0.15 0  0.589581589958621 0.15 0  0.5863598326364508 0.15 0  0.5831380753142792 0.15 0  0.5799163179920974 0.15 0  0.57669456
[...]
<PointData  Scalars="concentration"> 
<DataArray  type="Float64"  Name="concentration"  format="ascii">0.0000000000000000e+00  1.0000000000004565e+00  1.0000000000004043e+00  0.0000000000000000e+00  -3.6976987660682990e-14  1.3843243532303978e-14  -2.7754281673679186e-14  2.3733910552879028e-14  -3.2536012905729782e-14  3.4646728362748106e-14  -3.9778692067134825e-14  4.1529961963706076e-14  -4.4427749850153745e-14  4.7677544660967915e-14  -5.4279278669268665e-14  6.4497092036238323e-14  -7.7254045222666312e-14  8.6926904611624614e-14  -8.8043496434409896e-14  8.2486950568579062e-14  -8.4585991891416601e-14  1.1128346044275211e-13  -1.6055111162170523e-13  1.9931123552198113e-13  -1.8680590799529346e-13  1.2596040783065883e-13  -9.0069004435353872e-14  1.6975902076943890e-13  -3.6079507198931962e-13  5.0952990052210656e-13  -4.2804669084994394e-13  1.2701077010955252e-13  7.9225748717547188e-14  1.8561870696107877e-13  -8.9379131891804865e-13  1.4209655834962704e-12  -1.0414382324927260e-12  -1.6514195532704674e-13  9.7782940014290246e-13  -2.9825662999188384e-14  -2.4665893550620993e-12  4.1646185378887612e-12  -2.5556206972389923e-12  -1.8102765817578993e-12  4.4653686413471395e-12  -8.9024154119095061e-13  -7.5670587008260460e-12  1.2485977968011105e-11  -5.8816072986828551e-12  -9.0603406326339328e-12  1.6562798594678055e-11  -2.7255532970992457e-12  -2.5226708115860926e-11  3.7925776217757548e-11  -1.1532854751131873e-11  -3.8093498805464211e-11  5.6570450363401238e-11  -3.5100558355178278e-12  -8.7394140896518375e-11  1.1612367972084967e-10  -1.5167446359563470e-11  -1.4582076451138851e-10  1.8426572313788332e-10  1.1065346023912606e-11  -2.9973117034274011e-10  3.5161914558723701e-10  1.2894433847070119e-11  -5.1621619663658523e-10  5.6766489054080918e-10  1.1483568018735287e-10  -9.9122261680877225e-10  1.0163700633978856e-09  2.3443788568425901e-10  -1.7219667594853913e-09  1.6162722955378604e-09  6.8308905215751345e-10  -3.1921768569301976e-09  2.7361813597744124e-09  1.4510655752986640e-09  -5.6067563979733987e-09  4.2637168127647022e-09  3.3797044859253978e-09  -1.0242420385245664e-08  6.9766500338378879e-09  6.8413982471409555e-09  -1.8022685860362735e-08  1.0727808863127755e-08  1.4046592185282811e-08  -3.2039495812855613e-08  1.6768454748307592e-08  2.6904175742440250e-08  -5.4885626568915700e-08  2.3686255114563191e-08  5.2456258549934169e-08  -9.4136239095120367e-08  3.1355453990765492e-08  1.0044200357288247e-07  -1.5915572668501591e-07  3.4283462429072386e-08  1.9362462314088347e-07  -2.7216028033970657e-07  3.0646819801559059e-08  3.5900108045431070e-07  -4.5369723253826414e-07  -1.0401050525724522e-09  6.5258339190109260e-07  -7.3324908398882286e-07  -1.1516577341618826e-07  1.1861586778049747e-06  -1.1626352162621588e-06  -4.1972941838682117e-07  2.1776669479552867e-06  -1.8786670686823258e-06  -9.9103304209243302e-07  3.7796607651246128e-06  -2.7629200375442640e-06  -2.4048974838189855e-06  6.7226148338061735e-06  -4.0845759671792309e-06  -5.1070695715915827e-06  1.1563449544611505e-05  -5.4864369688540921e-06  -1.0609260127308606e-05  1.9725454409012918e-05  -6.5728437471345245e-06  -2.1215553519383953e-05  3.2978102990730109e-05  -5.7540182287681224e-06  -4.1384841936049872e-05  5.3938424294324377e-05  6.4610432850221269e-07  -7.8974416256969424e-05  8.5679818226348808e-05  2.1043324991515177e-05  -1.4780143480307831e-04  1.3059858725112959e-04  7.3775874827505512e-05  -2.7156954526899439e-04  1.8646527936867958e-04  1.9799048307758292e-04  -4.8984296718676979e-04  2.3519273869923457e-04  4.7682672850325909e-04  -8.6604837033882819e-04  2.1167661745122339e-04  1.0897503240723391e-03  -1.4949540781779797e-03  -8.6433369616192705e-05  2.4454681729074376e-03  -2.4960094867022093e-03  -1.2982264019972566e-03  5.6083424632977557e-03  -3.9209335995594331e-03  -5.8530318659083596e-03  1.4525757633430133e-02  -4.7391890953825547e-03  -3.0715325864965028e-02  1.9658015993154665e-01  4.0269293671380396e-01  7.2278129072859931e-01  6.5059007138708247e-01  8.5799275294307475e-01  9.5753359647477843e-01  9.8456554749578884e-01  9.9708687290195319e-01  1.0026846044992679e+00  1.0046536832724351e+00  1.0048996808325366e+00  1.0044131551346471e+00  1.0036858752101541e+00  1.0029474659492605e+00  1.0022929947734869e+00  1.0017511995874426e+00  1.0013203033879976e+00  1.0009862905241473e+00  1.0007318317027487e+00  1.0005403227343070e+00  1.0003974453591331e+00  1.0002915300016435e+00  1.0002133862716318e+00  1.0001559366542858e+00  1.0001138138247043e+00  1.0000829913943035e+00  1.0000604725570605e+00  1.0000440396756369e+00  1.0000320587421516e+00  1.0000233296615404e+00  1.0000169731721971e+00  1.0000123462653756e+00  1.0000089793675342e+00  1.0000065299293552e+00  1.0000047482699619e+00  1.0000034525139170e+00  1.0000025102413119e+00  1.0000018250754146e+00  1.0000013268919345e+00  1.0000009646790500e+00  1.0000007013343741e+00  1.0000005098756404e+00  1.0000003706821832e+00  1.0000002694874668e+00  1.0000001959186229e+00  1.0000001424340463e+00  1.0000001035507744e+00  1.0000000752826252e+00  1.0000000547316170e+00  1.0000000397909419e+00  1.0000000289289532e+00  1.0000000210321600e+00  1.0000000152910722e+00  1.0000000111171845e+00  1.0000000080826672e+00  1.0000000058764840e+00  1.0000000042725150e+00  1.0000000031063636e+00  1.0000000022585240e+00  1.0000000016421025e+00  1.0000000011939301e+00  1.0000000008680816e+00  1.0000000006311680e+00  1.0000000004589156e+00  1.0000000003336769e+00  1.0000000002426146e+00  1.0000000001764053e+00  1.0000000001282712e+00  1.0000000000932665e+00  1.0000000000678104e+00  1.0000000000493163e+00  1.0000000000358586e+00  1.0000000000260632e+00  1.0000000000189671e+00  1.0000000000137899e+00  1.0000000000100124e+00  1.0000000000072988e+00  1.0000000000053149e+00  1.0000000000038276e+00  1.0000000000028149e+00  1.0000000000020752e+00  1.0000000000014311e+00  1.0000000000010802e+00  1.0000000000008882e+00  1.0000000000004206e+00  9.9999999999618727e-01  9.9999999999710332e-01  9.9999999999672784e-01  9.9999999999684619e-01  9.9999999999682776e-01  9.9999999999684464e-01  9.9999999999684819e-01  9.9999999999685274e-01  9.9999999999685574e-01  9.9999999999685796e-01  9.9999999999686040e-01  9.9999999999686084e-01  9.9999999999686218e-01  9.9999999999686306e-01  9.9999999999686462e-01  9.9999999999686418e-01  9.9999999999686562e-01  9.9999999999686540e-01  9.9999999999686606e-01  9.9999999999686640e-01  9.9999999999686628e-01  9.9999999999686706e-01  9.9999999999686706e-01  9.9999999999686828e-01  9.9999999999686462e-01  9.9999999999686884e-01  9.9999999999686728e-01  9.9999999999686795e-01  9.9999999999686762e-01  9.9999999999686839e-01  9.9999999999686806e-01  9.9999999999686784e-01  9.9999999999686806e-01  9.9999999999686817e-01  9.9999999999686817e-01  9.9999999999686828e-01  9.9999999999686795e-01  9.9999999999686862e-01  9.9999999999686884e-01  9.9999999999686850e-01  9.9999999999686817e-01  9.9999999999686884e-01  9.9999999999686839e-01  9.9999999999686839e-01  9.9999999999686895e-01  9.9999999999686984e-01  9.9999999999686917e-01  9.9999999999686906e-01  9.9999999999686850e-01  9.9999999999686895e-01  9.9999999999686862e-01  9.9999999999686839e-01  9.9999999999686895e-01  9.9999999999686862e-01  9.9999999999686839e-01  9.9999999999686917e-01  9.9999999999686806e-01  9.9999999999686962e-01  9.9999999999686850e-01  9.9999999999686839e-01  9.9999999999686873e-01  9.9999999999686839e-01  9.9999999999686850e-01  9.9999999999686862e-01  9.9999999999686873e-01  9.9999999999686817e-01  9.9999999999686817e-01  9.9999999999686828e-01  9.9999999999686895e-01  9.9999999999686784e-01  9.9999999999686795e-01  9.9999999999686795e-01  9.9999999999686817e-01  9.9999999999686717e-01  9.9999999999686784e-01  9.9999999999686640e-01  9.9999999999686795e-01  9.9999999999686440e-01  9.9999999999686962e-01  9.9999999999685840e-01  9.9999999999687317e-01  9.9999999999684519e-01  9.9999999999688438e-01  9.9999999999681255e-01  9.9999999999691935e-01  9.9999999999666933e-01  9.9999999999730527e-01  9.9999999999534839e-01  1.0000000000002318e+00  1.0000000000006568e+00  1.0000000000011320e+00  1.0000000000012192e+00  1.0000000000018219e+00  1.0000000000025335e+00  1.0000000000034375e+00  1.0000000000046743e+00  1.0000000000065377e+00  1.0000000000088871e+00  1.0000000000122473e+00  1.0000000000168336e+00  1.0000000000231410e+00  1.0000000000317602e+00  1.0000000000436984e+00  1.0000000000600160e+00  1.0000000000824916e+00  1.0000000001133598e+00  1.0000000001557976e+00  1.0000000002140919e+00  1.0000000002942468e+00  1.0000000004043732e+00  1.0000000005557459e+00  1.0000000007637715e+00  1.0000000010496923e+00  1.0000000014426305e+00  1.0000000019827004e+00  1.0000000027249520e+00  1.0000000037451182e+00  1.0000000051472349e+00  1.0000000070743429e+00  1.0000000097230068e+00  1.0000000133634359e+00  1.0000000183670030e+00  1.0000000252441756e+00  1.0000000346965758e+00  1.0000000476885877e+00  1.0000000655457484e+00  1.0000000900899995e+00  1.0000001238255651e+00  1.0000001701944186e+00  1.0000002339273710e+00  1.0000003215265159e+00  1.0000004419281514e+00  1.0000006074135432e+00  1.0000008348600351e+00  1.0000011474592174e+00  1.0000015770760180e+00  1.0000021674864537e+00  1.0000029788192124e+00  1.0000040936449097e+00  1.0000056253172653e+00  1.0000077293867615e+00  1.0000106191964839e+00  1.0000145871528940e+00  1.0000200336655432e+00  1.0000275063926451e+00  1.0000377532320943e+00  1.0000517934550806e+00  1.0000710124364240e+00  1.0000972864257018e+00  1.0001331443380241e+00  1.0001819728055743e+00  1.0002482670891093e+00  1.0003379207544660e+00  1.0004585253315987e+00  1.0006196064415567e+00  1.0008326347653764e+00  1.0011104815966674e+00  1.0014656720954429e+00  1.0019062026492778e+00  1.0024266115966178e+00  1.0029900279730597e+00  1.0034933562174277e+00  1.0037012993016674e+00  1.0031232699713701e+00  1.0007862962234659e+00  9.9481832422497030e-01  9.8167597094197523e-01  9.5487745240352528e-01  9.0540315352797818e-01  8.1592197081422502e-01  3.5269276853974979e-01  2.6989184023887153e-01  5.3046354003343224e-03  -4.6099902028438715e-02  2.0839127842677631e-02  1.8061286776504124e-02  -2.7102788512512660e-02  9.0087403781864087e-03  9.2522288364373876e-03  -1.0467456623362886e-02  -3.7327553890452339e-04  8.6644830936424364e-03  -7.2167679586352179e-03  4.6606496227602511e-04  3.5970912311387455e-03  -2.1063406705787726e-03  -1.6678041982443668e-03  3.3707726921622301e-03  -1.9866509644534546e-03  -2.8088863617055214e-04  1.0908102693361762e-03  -1.9209170247974774e-04  -1.0005446511791355e-03  1.2453222125367450e-03  -5.7251774373085330e-04  -1.4147976538533407e-04  2.5072613439889604e-04  1.3351540151043220e-04  -4.8060285155236991e-04  4.6062680902295470e-04  -1.8645459758487288e-04  -2.7641487739823103e-05  1.7966567856664909e-05  1.2434267700037167e-04  -2.1569620586897598e-04  1.7709571802587424e-04  -7.4202172455129704e-05  1.2355863860869805e-05  -2.7728311014747779e-05  7.5481823783319233e-05  -9.5707601755554156e-05  7.2750834801190163e-05  -3.5770044630931822e-05  1.8230899413837343e-05  -2.6014598342512976e-05  4.0542342083601130e-05  -4.3210915353356353e-05  3.2284261004173066e-05  -1.9215435341050686e-05  1.4127520063269071e-05  -1.7009990892670250e-05  2.0846729768533919e-05  -2.0128075646031419e-05  1.5354212117009716e-05  -1.0696877638550373e-05  9.0674512638002919e-06  -9.8627716809516674e-06  1.0592071602453712e-05  -9.7030052529633984e-06  7.6793093887536392e-06  -5.9593415314230089e-06  5.3329033552568752e-06  -5.4252269271240608e-06  5.3923340971180081e-06  -4.8213927419408748e-06  3.9611674682089270e-06  -3.2857292138530424e-06  2.9934242368964648e-06  -2.9116918852120976e-06  2.7652222237206697e-06  -2.4520254857712582e-06  2.0771972062724672e-06  -1.7907166101523278e-06  1.6366745926769609e-06  -1.5453292482476750e-06  1.4297347519241725e-06  -1.2672229956523166e-06  1.0976727317862028e-06  -9.6661610419383011e-07  8.8159633188315836e-07  -8.1649443938246183e-07  7.4459943564372111e-07  -6.6170211218637604e-07  5.8181774141833831e-07  -5.1813938547858706e-07  4.7093109926360037e-07  -4.3089113461195076e-07  3.8998870715395092e-07  -3.4771447541460369e-07  3.0867185386872331e-07  -2.7645639736022949e-07  2.5046040456428013e-07  -2.2748028258149221e-07  2.0512870471551697e-07  -1.8343330472133777e-07  1.6379789130442295e-07  -1.4711067021893916e-07  1.3295243329815766e-07  -1.2023965064356745e-07  1.0825699592910461e-07  -9.7036140246209953e-08  8.6962474349279800e-08  -7.8213247095328380e-08  7.0577987072882663e-08  -6.3690126880227457e-08  5.7326307337454580e-08  -5.1486052567398670e-08  4.6255367247847373e-08  -4.1647065532506823e-08  3.7565544072619563e-08  -3.3883735453780232e-08  3.0525517697563660e-08  -2.7478840560655041e-08  2.4751587522373695e-08  -2.2328294531418152e-08  2.0164698374588537e-08  -1.8210714462540478e-08  1.6430528387635250e-08  -1.4801771931394460e-08  1.3300135815216103e-08  -1.1885914932330054e-08  1.0501163867817361e-08  -9.0739582769761976e-09  7.5222956652759483e-09  -5.7552529081342812e-09  3.6754385965907075e-09  -1.1883185329501952e-09  -1.7795349701720018e-09  5.2556734235470016e-09  -9.1956224156630244e-09  1.3461134975418264e-08  -1.7809170420204931e-08  2.1897945310043534e-08  -2.5315757118432016e-08  2.7634112637444826e-08  -2.8480836579800606e-08  2.7620467834952929e-08  -2.5024318572134726e-08  2.0909456224184057e-08  -1.5731274740076805e-08  1.0122299055452654e-08  -4.7850211555099721e-09  3.5996176550141220e-10  2.7013469913303331e-09  -4.2205608028778135e-09  4.3209773388371477e-09  -3.3675464662193712e-09  1.8815154995226036e-09  -3.6332296144114895e-10  -7.5432691589423469e-10  1.3285506079449355e-09  -1.2602750053727434e-09  9.1804542810096977e-10  -2.0220872050654132e-10  -3.2231798105378951e-11  7.5497344784348130e-10  0.0000000000000000e+00  0.0000000000000000e+00  0.0000000000000000e+00  0.0000000000000000e+00  0.0000000000000000e+00  0.0000000000000000e+00  0.0000000000000000e+00  0.0000000000000000e+00  0.0000000000000000e+00  0.0000000000000000e+00  0.0000000000000000e+00  0.0000000000000000e+00  0.0000000000000000e+00  0.0000000000000000e+00  0.0000000000000000e+00  0.0000000000000000e+00  0.0000000000000000e+00  0.0000000000000000e+00  0.0000000000000000e+00  0.0000000000000000e+00  0.0000000000000000e+00  0.0000000000000000e+00  0.0000000000000000e+00  0.0000000000000000e+00  0.0000000000000000e+00  0.0000000000000000e+00  0.0000000000000000e+00  0.0000000000000000e+00  0.0000000000000000e+00  0.0000000000000000e+00  0.0000000000000000e+00  0.0000000000000000e+00  0.0000000000000000e+00  0.0000000000000000e+00  0.0000000000000000e+00  0.0000000000000000e+00  0.0000000000000000e+00  0.0000000000000000e+00  0.0000000000000000e+00  0.0000000000000000e+00  0.0000000000000000e+00  0.0000000000000000e+00  0.0000000000000000e+00  0.0000000000000000e+00  0.0000000000000000e+00  0.0000000000000000e+00  0.0000000000000000e+00  0.0000000000000000e+00  0.0000000000000000e+00  0.0000000000000000e+00  0.0000000000000000e+00  0.0000000000000000e+00  0.0000000000000000e+00  0.0000000000000000e+00  0.0000000000000000e+00  0.0000000000000000e+00  0.0000000000000000e+00  0.0000000000000000e+00  0.0000000000000000e+00  0.0000000000000000e+00  0.0000000000000000e+00  0.0000000000000000e+00  0.0000000000000000e+00  0.0000000000000000e+00  0.0000000000000000e+00  0.0000000000000000e+00  0.0000000000000000e+00  0.0000000000000000e+00  0.0000000000000000e+00  0.0000000000000000e+00  0.0000000000000000e+00  0.0000000000000000e+00  0.0000000000000000e+00  0.0000000000000000e+00  0.0000000000000000e+00  0.0000000000000000e+00  0.0000000000000000e+00  0.0000000000000000e+00  0.0000000000000000e+00  0.0000000000000000e+00  0.0000000000000000e+00  0.0000000000000000e+00  0.0000000000000000e+00  0.0000000000000000e+00  0.0000000000000000e+00  0.0000000000000000e+00  0.0000000000000000e+00  0.0000000000000000e+00  5.8958408872788920e-15  -3.5861142226707751e-14  9.1187530853246931e-15  -4.0403664633616601e-14  1.0878348286720591e-14  -3.9997864087539490e-14  1.8057829599706692e-14  -6.1445490002125226e-14  4.3083862931187426e-14  -6.5641185434954824e-14  1.9945397163816839e-14  -4.7250569891472668e-14  5.0148130402389739e-14  -1.2244967915541371e-13  1.0319070497017614e-13  -8.9990945360118566e-14  1.6606559284725667e-14  -6.9555839977573366e-14  1.3769574314036436e-13  -2.3648310618310206e-13  1.5325106852916758e-13  -4.9329336979081071e-14  -1.2293306171169135e-14  -1.6906286232086716e-13  3.1079132303203765e-13  -2.7130197786042675e-13  -4.9036467976683604e-14  1.9312966935468997e-13  -3.0499897595061474e-14  -2.8335225000120592e-13  9.6145779836575209e-14  5.3375098592011127e-13  -1.0565734158899200e-12  8.3920015706895726e-13  -5.5491326084547214e-13  1.1669133279635616e-12  -2.7555105508313429e-12  3.8220560782931762e-12  -3.7645086103896382e-12  3.9091618517123440e-12  -6.1612239439983872e-12  9.5660653651347532e-12  -1.1511109968901190e-11  1.1694119969052363e-11  -1.3823863144228185e-11  1.9695917642936105e-11  -2.5512119500436939e-11  2.7138709593691149e-11  -2.8283031098600688e-11  3.5222109083868842e-11  -4.5377300367606336e-11  4.9206159695588743e-11  -4.7232744500016892e-11  5.1473143684603959e-11  -6.3790381963097089e-11  6.7571190401941517e-11  -5.6958463019302403e-11  5.1768809817924077e-11  -6.1308547769685499e-11  5.9396508481988563e-11  -3.1266752901107002e-11  9.8214497686881747e-12  -1.5389648140057706e-11  3.5720735188925695e-12  4.8956789463868127e-11  -7.9543911726582829e-11  6.2406324290615838e-11  -8.0296857446321492e-11  1.4816838991002000e-10  -1.4796670313983540e-10  8.3131272571665322e-11  -1.0655748524003559e-10  1.5633171910961899e-10  -5.1318622122885037e-11  -5.5548560364237862e-11  -1.5111110775513979e-11  -2.4127172394218312e-11  2.4807752352596908e-10  -2.1467766400383752e-10  7.7941146270419605e-11  -3.1014016679861329e-10  3.4842766253506308e-10  3.0011966661699556e-11  1.0685347186244127e-10  -2.5999638594631055e-10  -3.6207606356476383e-10  2.8770720915822064e-10  9.1012315957047855e-11  -1.5994667280454747e-16  1.2485464758088645e-14  -3.1768377765117397e-15  1.7020420612240739e-14  -8.1705367986413774e-15  1.6277223719640149e-14  1.1537695426310307e-15  1.0119409239642645e-14  -1.3135682527548737e-14  4.2369860796857159e-14  -3.1598342519226987e-14  1.8163274956605578e-14  1.6144699779954644e-14  9.5690715680360965e-15  -5.0586234886268117e-14  9.8712907888256890e-14  -5.7551523142966804e-14  -6.7377569682067959e-15  4.3156621105738018e-14  5.3590305820627997e-14  -1.6324627646582077e-13  1.7586540143669648e-13  -1.6046061898781741e-14  -8.9092972109429987e-14  -1.0739441860253521e-14  2.7519489716711760e-13  -3.3573746421403792e-13  9.0360599389900957e-14  1.9394529489594467e-13  -4.1007109526012240e-14  -4.1975115381441335e-13  5.9357762309450386e-13  -8.9737724838664708e-14  -4.4017194259904703e-13  1.8236499240208708e-13  6.4854751782701384e-13  -7.1922370535818617e-13  -3.6974065414438158e-13  1.2656018157847776e-12  -5.7740559770424649e-13  -5.5881214295710118e-13  -1.8485486311182057e-13  2.6797348662568099e-12  -3.7139091404597647e-12  2.1411294176274138e-12  -1.6288307175964359e-12  5.3626888544712701e-12  -9.7418289372924937e-12  9.5210683713340682e-12  -7.5102294731235659e-12  1.1612349074454785e-11  -2.0527053529312859e-11  2.3660352476181075e-11  -1.9896475577213438e-11  2.3006558400199600e-11  -3.6819485422533423e-11  4.3759450196332978e-11  -3.5996071974227210e-11  3.5112228462967065e-11  -5.2488610925436115e-11  5.9991287092555815e-11  -4.0649593158609092e-11  3.0754804148887041e-11  -5.0248106754499393e-11  4.9000560901159090e-11  -5.3320639456232752e-12  -1.2848673270601261e-11  -1.1897065886289989e-11  -1.2114628068635528e-11  8.5429996169417608e-11  -8.3681128973925549e-11  4.2227124853146335e-11  -1.0656352702003477e-10  1.6983227376377260e-10  -7.9217406323505388e-11  4