<?xml version="1.0"?>
<VTKFile type="UnstructuredGrid"  version="0.1"  >
<UnstructuredGrid>
<Piece  NumberOfPoints="21600" NumberOfCells="42542">
<Points>
<DataArray  type="Float64"  NumberOfComponents="3"  format="ascii">0 0 0  0.77 0 0  0.77 0.15 0  0 0.15 0  0.003221757322170014 0 0  0.006443514644340046 0 0  0.009665271966510193 0 0  0.01288702928868034 0 0  0.01610878661085048 0 0  0.01933054393302049 0 0  0.02255230125519027 0 0  0.02577405857735967 0 0  0.02899581589952872 0 0  0.03221757322169801 0 0  0.03543933054386744 0 0  0.03866108786603686 0 0  0.04188284518820627 0 0  0.0451046025103757 0 0  0.04832635983254521 0 0  0.05154811715471607 0 0  0.05476987447688695 0 0  0.05799163179905782 0 0  0.06121338912122846 0 0  0.06443514644339859 0 0  0.06765690376556875 0 0  0.0708786610877389 0 0  0.07410041840990904 0 0  0.0773221757320792 0 0  0.08054393305425039 0 0  0.08376569037642198 0 0  0.0869874476985936 0 0  0.09020920502076518 0 0  0.0934309623429339 0 0  0.0966527196651024 0 0  0.09987447698726967 0 0  0.1030962343094369 0 0  0.1063179916316041 0 0  0.1095397489537714 0 0  0.1127615062759386 0 0  0.1159832635981051 0 0  0.1192050209202709 0 0  0.1224267782424358 0 0  0.1256485355646001 0 0  0.1288702928867644 0 0  0.1320920502089288 0 0  0.1353138075310958 0 0  0.1385355648532632 0 0  0.1417573221754333 0 0  0.1449790794976035 0 0  0.1482008368197736 0 0  0.1514225941419428 0 0  0.1546443514641101 0 0  0.157866108786276 0 0  0.1610878661084403 0 0  0.1643096234306047 0 0  0.167531380752769 0 0  0.1707531380749333 0 0  0.1739748953970977 0 0  0.177196652719262 0 0  0.1804184100414264 0 0  0.1836401673635935 0 0  0.1868619246857611 0 0  0.1900836820079313 0 0  0.1933054393301014 0 0  0.1965271966522716 0 0  0.1997489539744406 0 0  0.2029707112966078 0 0  0.2061924686187736 0 0  0.209414225940938 0 0  0.2126359832631022 0 0  0.2158577405852666 0 0  0.219079497907431 0 0  0.2223012552295953 0 0  0.2255230125517597 0 0  0.2287447698739242 0 0  0.2319665271960914 0 0  0.2351882845182592 0 0  0.2384100418404293 0 0  0.2416317991625994 0 0  0.2448535564847696 0 0  0.2480753138069371 0 0  0.2512970711291014 0 0  0.2545188284512658 0 0  0.2577405857734302 0 0  0.2609623430955986 0 0  0.2641841004177688 0 0  0.2674058577399389 0 0  0.270627615062109 0 0  0.2738493723842792 0 0  0.2770711297064487 0 0  0.280292887028613 0 0  0.2835146443507774 0 0  0.2867364016729417 0 0  0.2899581589951061 0 0  0.2931799163172705 0 0  0.2964016736394348 0 0  0.2996234309615992 0 0  0.3028451882837672 0 0  0.3060669456059373 0 0  0.3092887029281075 0 0  0.3125104602502776 0 0  0.3157322175724478 0 0  0.3189539748946177 0 0  0.322175732216782 0 0  0.3253974895389464 0 0  0.3286192468611107 0 0  0.3318410041832751 0 0  0.3350627615054395 0 0  0.3382845188276038 0 0  0.3415062761497681 0 0  0.3447280334719325 0 0  0.3479497907940968 0 0  0.3511715481162612 0 0  0.3543933054384255 0 0  0.3576150627605947 0 0  0.3608368200827649 0 0  0.364058577404935 0 0  0.3672803347271051 0 0  0.3705020920492753 0 0  0.373723849371444 0 0  0.3769456066936084 0 0  0.3801673640157748 0 0  0.383389121337945 0 0  0.3866108786601209 0 0  0.3898326359823028 0 0  0.3930543933044846 0 0  0.3962761506266662 0 0  0.399497907948848 0 0  0.4027196652710298 0 0  0.4059414225932116 0 0  0.4091631799153934 0 0  0.4123849372375751 0 0  0.4156066945597569 0 0  0.4188284518819387 0 0  0.4220502092041222 0 0  0.4252719665263097 0 0  0.4284937238484974 0 0  0.4317154811706849 0 0  0.4349372384928725 0 0  0.4381589958150601 0 0  0.4413807531372476 0 0  0.4446025104594352 0 0  0.4478242677816181 0 0  0.4510460251037998 0 0  0.4542677824259815 0 0  0.4574895397481634 0 0  0.4607112970703451 0 0  0.4639330543925269 0 0  0.4671548117147087 0 0  0.4703765690368904 0 0  0.4735983263590722 0 0  0.4768200836812568 0 0  0.4800418410034444 0 0  0.483263598325632 0 0  0.4864853556478196 0 0  0.4897071129700028 0 0  0.4929288702921845 0 0  0.4961506276143663 0 0  0.4993723849365479 0 0  0.5025941422587239 0 0  0.5058158995809008 0 0  0.5090376569030826 0 0  0.5122594142252677 0 0  0.515481171547461 0 0  0.5187029288696494 0 0  0.5219246861918312 0 0  0.525146443514013 0 0  0.5283682008361947 0 0  0.5315899581583845 0 0  0.5348117154805778 0 0  0.5380334728027617 0 0  0.5412552301249435 0 0  0.5444769874471141 0 0  0.5476987447692853 0 0  0.550920502091467 0 0  0.5541422594136513 0 0  0.5573640167358447 0 0  0.560585774058034 0 0  0.5638075313802158 0 0  0.5670292887023975 0 0  0.5702510460245793 0 0  0.5734728033467682 0 0  0.5766945606689615 0 0  0.579916317991155 0 0  0.5831380753133483 0 0  0.5863598326355314 0 0  0.5895815899577131 0 0  0.5928033472798949 0 0  0.5960251046020785 0 0  0.5992468619242718 0 0  0.6024686192464619 0 0  0.6056903765686437 0 0  0.6089121338908206 0 0  0.6121338912129908 0 0  0.6153556485351673 0 0  0.618577405857349 0 0  0.6217991631795386 0 0  0.625020920501732 0 0  0.6282426778239159 0 0  0.6314644351460976 0 0  0.6346861924682795 0 0  0.6379079497904622 0 0  0.6411297071126555 0 0  0.6443514644348465 0 0  0.6475732217570283 0 0  0.650794979079206 0 0  0.6540167364013761 0 0  0.6572384937235518 0 0  0.6604602510457335 0 0  0.6636820083679225 0 0  0.6669037656901158 0 0  0.6701255230123004 0 0  0.6733472803344823 0 0  0.6765690376566641 0 0  0.6797907949788459 0 0  0.6830125523010393 0 0  0.686234309623231 0 0  0.6894560669454127 0 0  0.6926778242675914 0 0  0.6958995815897615 0 0  0.6991213389119363 0 0  0.7023430962341181 0 0  0.7055648535563062 0 0  0.7087866108784994 0 0  0.712008368200685 0 0  0.7152301255228668 0 0  0.7184518828450486 0 0  0.7216736401672305 0 0  0.724895397489423 0 0  0.7281171548116155 0 0  0.7313389121337973 0 0  0.7345606694559768 0 0  0.7377824267781468 0 0  0.7410041841003209 0 0  0.7442259414225026 0 0  0.7474476987446899 0 0  0.7506694560668832 0 0  0.7538912133890696 0 0  0.7571129707112513 0 0  0.760334728033433 0 0  0.7635564853556149 0 0  0.7667782426778067 0 0  0.77 0.001685393258423789 0  0.77 0.003370786516847669 0  0.77 0.005056179775271247 0  0.77 0.006741573033694517 0  0.77 0.008426966292117821 0  0.77 0.01011235955054176 0  0.77 0.01179775280896623 0  0.77 0.0134831460673904 0  0.77 0.01516853932581489 0  0.77 0.01685393258423891 0  0.77 0.01853932584266291 0  0.77 0.02022471910108589 0  0.77 0.02191011235950794 0  0.77 0.02359550561792999 0  0.77 0.02528089887635205 0  0.77 0.02696629213477411 0  0.77 0.02865168539319714 0  0.77 0.03033707865161956 0  0.77 0.03202247191004162 0  0.77 0.03370786516846367 0  0.77 0.03539325842688572 0  0.77 0.03707865168530778 0  0.77 0.03876404494372984 0  0.77 0.0404494382021519 0  0.77 0.04213483146057394 0  0.77 0.04382022471899601 0  0.77 0.04550561797741807 0  0.77 0.04719101123584013 0  0.77 0.04887640449426219 0  0.77 0.05056179775268425 0  0.77 0.0522471910111063 0  0.77 0.05393258426952837 0  0.77 0.05561797752795105 0  0.77 0.05730337078637505 0  0.77 0.05898876404479723 0  0.77 0.0606741573032193 0  0.77 0.06235955056164135 0  0.77 0.06404494382006341 0  0.77 0.06573033707848548 0  0.77 0.06741573033690752 0  0.77 0.06910112359532959 0  0.77 0.07078651685375165 0  0.77 0.0724719101121737 0  0.77 0.07415730337059653 0  0.77 0.07584269662902443 0  0.77 0.07752808988745429 0  0.77 0.07921348314588413 0  0.77 0.08089887640431678 0  0.77 0.08258426966274923 0  0.77 0.08426966292117907 0  0.77 0.08595505617960987 0  0.77 0.08764044943804362 0  0.77 0.08932584269647403 0  0.77 0.09101123595490389 0  0.77 0.09269662921333673 0  0.77 0.09438202247176901 0  0.77 0.09606741573019884 0  0.77 0.09775280898862983 0  0.77 0.09943820224706355 0  0.77 0.1011235955054938 0  0.77 0.1028089887639236 0  0.77 0.1044943820223567 0  0.77 0.1061797752807888 0  0.77 0.1078651685392186 0  0.77 0.1095505617976498 0  0.77 0.1112359550560835 0  0.77 0.1129213483145136 0  0.77 0.1146067415729456 0  0.77 0.1162921348313787 0  0.77 0.1179775280898085 0  0.77 0.1196629213482387 0  0.77 0.1213483146066724 0  0.77 0.1230337078651035 0  0.77 0.1247191011235322 0  0.77 0.1264044943819605 0  0.77 0.1280898876403903 0  0.77 0.1297752808988242 0  0.77 0.1314606741572554 0  0.77 0.1331460674156853 0  0.77 0.1348314606741154 0  0.77 0.1365168539325504 0  0.77 0.1382022471909802 0  0.77 0.13988764044941 0  0.77 0.1415730337078443 0  0.77 0.1432584269662752 0  0.77 0.144943820224705 0  0.77 0.1466292134831355 0  0.77 0.1483146067415701 0  0.7667782426778414 0.15 0  0.7635564853556813 0.15 0  0.7603347280335111 0.15 0  0.757112970711341 0.15 0  0.7538912133891708 0.15 0  0.7506694560670005 0.15 0  0.7474476987448303 0.15 0  0.7442259414226602 0.15 0  0.74100418410049 0.15 0  0.7377824267783197 0.15 0  0.7345606694561496 0.15 0  0.7313389121339794 0.15 0  0.7281171548118092 0.15 0  0.724895397489639 0.15 0  0.7216736401674688 0.15 0  0.7184518828452986 0.15 0  0.7152301255231284 0.15 0  0.7120083682009583 0.15 0  0.708786610878788 0.15 0  0.7055648535566178 0.15 0  0.7023430962344477 0.15 0  0.6991213389122775 0.15 0  0.6958995815901072 0.15 0  0.692677824267937 0.15 0  0.6894560669457669 0.15 0  0.6862343096235967 0.15 0  0.6830125523014264 0.15 0  0.6797907949792563 0.15 0  0.6765690376570861 0.15 0  0.6733472803349159 0.15 0  0.6701255230127456 0.15 0  0.6669037656905755 0.15 0  0.6636820083684053 0.15 0  0.6604602510462351 0.15 0  0.657238493724065 0.15 0  0.6540167364018947 0.15 0  0.6507949790797245 0.15 0  0.6475732217575543 0.15 0  0.644351464435384 0.15 0  0.6411297071132231 0.15 0  0.6379079497910645 0.15 0  0.634686192468906 0.15 0  0.6314644351467468 0.15 0  0.6282426778245765 0.15 0  0.6250209205024085 0.15 0  0.62179916318025 0.15 0  0.6185774058580914 0.15 0  0.6153556485359328 0.15 0  0.6121338912137689 0.15 0  0.6089121338915987 0.15 0  0.6056903765694354 0.15 0  0.6024686192472768 0.15 0  0.5992468619251182 0.15 0  0.5960251046029597 0.15 0  0.5928033472807912 0.15 0  0.589581589958621 0.15 0  0.5863598326364508 0.15 0  0.5831380753142792 0.15 0  0.5799163179920974 0.15 0  0.57669456
[...]
<PointData  Scalars="concentration"> 
<DataArray  type="Float64"  Name="concentration"  format="ascii">0.0000000000000000e+00  1.0000000000000366e+00  1.0000000000000326e+00  0.0000000000000000e+00  -7.9945062837289413e-14  3.1217256081816400e-14  -6.4728045833405165e-14  5.9114475417203538e-14  -8.1237541414079347e-14  8.5295407985188304e-14  -8.9546895672582926e-14  8.2064055241599584e-14  -8.5373633914133912e-14  1.1147963763535571e-13  -1.6118383263024278e-13  1.9960222869842453e-13  -1.8711938529197902e-13  1.2609269345218639e-13  -9.0317411399982424e-14  1.7010492052039402e-13  -3.6126767041405046e-13  5.0992485760635112e-13  -4.2826336711413620e-13  1.2705401431174235e-13  7.9150079201048813e-14  1.8590301708409871e-13  -8.9428402889804159e-13  1.4214317683998990e-12  -1.0416324387206791e-12  -1.6523503123815784e-13  9.7793011741293920e-13  -2.9612733552403995e-14  -2.4671521763696504e-12  4.1651960665835247e-12  -2.5558082678595148e-12  -1.8105350870788012e-12  4.4656684006869410e-12  -8.9008433517572472e-13  -7.5677447838062978e-12  1.2486701834726265e-11  -5.8817676094860589e-12  -9.0608207855716124e-12  1.6563317515210441e-11  -2.7253938682218383e-12  -2.5227612434029359e-11  3.7926681456844074e-11  -1.1532912798104500e-11  -3.8094322471207192e-11  5.6571227035914827e-11  -3.5097844213887089e-12  -8.7395438788616089e-11  1.1612483972718146e-10  -1.5167286157533311e-11  -1.4582214164018967e-10  1.8426685897742043e-10  1.1065850222236784e-11  -2.9973310678876596e-10  3.5162070372847167e-10  1.2894904887248442e-11  -5.1621836288390145e-10  5.6766653535178982e-10  1.1483648786145550e-10  -9.9122539197395738e-10  1.0163721391625343e-09  2.3443872798502602e-10  -1.7219698424470762e-09  1.6162744624055854e-09  6.8309028778164296e-10  -3.1921805530171886e-09  2.7361838214692928e-09  1.4510670592803206e-09  -5.6067605101192478e-09  4.2637192445470823e-09  3.3797066285595264e-09  -1.0242425277293804e-08  6.9766526476426679e-09  6.8414009769386912e-09  -1.8022691494789756e-08  1.0727811554078266e-08  1.4046595702538351e-08  -3.2039502460308204e-08  1.6768457829803869e-08  2.6904179723792566e-08  -5.4885633973954553e-08  2.3686258497130516e-08  5.2456262919289259e-08  -9.4136247186617941e-08  3.1355457809683845e-08  1.0044200802868597e-07  -1.5915573534462159e-07  3.4283467046321899e-08  1.9362462709652384e-07  -2.7216028954944652e-07  3.0646826308440351e-08  3.5900108228129438e-07  -4.5369724158154597e-07  -1.0400956857691231e-09  6.5258339020070477e-07  -7.3324909349132635e-07  -1.1516575792554728e-07  1.1861586701310343e-06  -1.1626352301424332e-06  -4.1972938452275703e-07  2.1776669191073850e-06  -1.8786670776751234e-06  -9.9103299063499767e-07  3.7796607169259965e-06  -2.7629200584638496e-06  -2.4048973816997887e-06  6.7226147368781384e-06  -4.0845760003276933e-06  -5.1070693869593337e-06  1.1563449370874071e-05  -5.4864370337673302e-06  -1.0609259793253631e-05  1.9725454108232420e-05  -6.5728438843951887e-06  -2.1215552912119375e-05  3.2978102474726806e-05  -5.7540185150628285e-06  -4.1384840837427058e-05  5.3938423423146979e-05  6.4610372976018816e-07  -7.8974414262530631e-05  8.5679816767927154e-05  2.1043323743077717e-05  -1.4780143116235395e-04  1.3059858483429552e-04  7.3775872214842266e-05  -2.7156953856428734e-04  1.8646527543057280e-04  1.9799047754763370e-04  -4.8984295470348336e-04  2.3519273250821672e-04  4.7682671658158586e-04  -8.6604834683052547e-04  2.1167660851969741e-04  1.0897502977227163e-03  -1.4949540334854862e-03  -8.6433379575263762e-05  2.4454681128015863e-03  -2.4960094014367059e-03  -1.2982264010279263e-03  5.6083423200522665e-03  -3.9209334389048384e-03  -5.8530317963081599e-03  1.4525757262304109e-02  -4.7391888293748909e-03  -3.0715325322407231e-02  1.9658015670575124e-01  4.0269293225551911e-01  7.2278128415973975e-01  6.5059006643596307e-01  8.5799274658577507e-01  9.5753359134524452e-01  9.8456554373949445e-01  9.9708687028299559e-01  1.0026846027650482e+00  1.0046536821901455e+00  1.0048996802096060e+00  1.0044131548220787e+00  1.0036858750981421e+00  1.0029474659600375e+00  1.0022929948539108e+00  1.0017511997024473e+00  1.0013203035153762e+00  1.0009862906505012e+00  1.0007318318205904e+00  1.0005403228399703e+00  1.0003974454513360e+00  1.0002915300805173e+00  1.0002133863381075e+00  1.0001559367096573e+00  1.0001138138703973e+00  1.0000829914317282e+00  1.0000604725875242e+00  1.0000440397002957e+00  1.0000320587620275e+00  1.0000233296775056e+00  1.0000169731849744e+00  1.0000123462755681e+00  1.0000089793756475e+00  1.0000065299358030e+00  1.0000047482750711e+00  1.0000034525179615e+00  1.0000025102445058e+00  1.0000018250779319e+00  1.0000013268939245e+00  1.0000009646806114e+00  1.0000007013356003e+00  1.0000005098766052e+00  1.0000003706829370e+00  1.0000002694880619e+00  1.0000001959190881e+00  1.0000001424344112e+00  1.0000001035510593e+00  1.0000000752828455e+00  1.0000000547317918e+00  1.0000000397910767e+00  1.0000000289290578e+00  1.0000000210322431e+00  1.0000000152911346e+00  1.0000000111172349e+00  1.0000000080827056e+00  1.0000000058765151e+00  1.0000000042725383e+00  1.0000000031063832e+00  1.0000000022585376e+00  1.0000000016421136e+00  1.0000000011939378e+00  1.0000000008680869e+00  1.0000000006311742e+00  1.0000000004589216e+00  1.0000000003336769e+00  1.0000000002426204e+00  1.0000000001764082e+00  1.0000000001282690e+00  1.0000000000932661e+00  1.0000000000678160e+00  1.0000000000493119e+00  1.0000000000358562e+00  1.0000000000260720e+00  1.0000000000189588e+00  1.0000000000137854e+00  1.0000000000100264e+00  1.0000000000072906e+00  1.0000000000053009e+00  1.0000000000038556e+00  1.0000000000028049e+00  1.0000000000020399e+00  1.0000000000014833e+00  1.0000000000010798e+00  1.0000000000007843e+00  1.0000000000005724e+00  1.0000000000004170e+00  1.0000000000003015e+00  1.0000000000002196e+00  1.0000000000001619e+00  1.0000000000001124e+00  1.0000000000000855e+00  1.0000000000000708e+00  1.0000000000000342e+00  9.9999999999970257e-01  9.9999999999978106e-01  9.9999999999974920e-01  9.9999999999975875e-01  9.9999999999975753e-01  9.9999999999975819e-01  9.9999999999975864e-01  9.9999999999975930e-01  9.9999999999975986e-01  9.9999999999975919e-01  9.9999999999975986e-01  9.9999999999975986e-01  9.9999999999975919e-01  9.9999999999976008e-01  9.9999999999976008e-01  9.9999999999976019e-01  9.9999999999976030e-01  9.9999999999976030e-01  9.9999999999976064e-01  9.9999999999976008e-01  9.9999999999976064e-01  9.9999999999976030e-01  9.9999999999976019e-01  9.9999999999976019e-01  9.9999999999975864e-01  9.9999999999976041e-01  9.9999999999976075e-01  9.9999999999976030e-01  9.9999999999976019e-01  9.9999999999976041e-01  9.9999999999976064e-01  9.9999999999976052e-01  9.9999999999976041e-01  9.9999999999975997e-01  9.9999999999976041e-01  9.9999999999976041e-01  9.9999999999976064e-01  9.9999999999976064e-01  9.9999999999976008e-01  9.9999999999976030e-01  9.9999999999975986e-01  9.9999999999976108e-01  9.9999999999976019e-01  9.9999999999976086e-01  9.9999999999975997e-01  9.9999999999976064e-01  9.9999999999976064e-01  9.9999999999976097e-01  9.9999999999976008e-01  9.9999999999976052e-01  9.9999999999975964e-01  9.9999999999976030e-01  9.9999999999976064e-01  9.9999999999975986e-01  9.9999999999976064e-01  9.9999999999976052e-01  9.9999999999975941e-01  9.9999999999976030e-01  9.9999999999976008e-01  9.9999999999976086e-01  9.9999999999975930e-01  9.9999999999976108e-01  9.9999999999976041e-01  9.9999999999976052e-01  9.9999999999976041e-01  9.9999999999976064e-01  9.9999999999975964e-01  9.9999999999976064e-01  9.9999999999976064e-01  9.9999999999975964e-01  9.9999999999976041e-01  9.9999999999976019e-01  9.9999999999976064e-01  9.9999999999975997e-01  9.9999999999976108e-01  9.9999999999975964e-01  9.9999999999976019e-01  9.9999999999976041e-01  9.9999999999976097e-01  9.9999999999975897e-01  9.9999999999976075e-01  9.9999999999975830e-01  9.9999999999976219e-01  9.9999999999975564e-01  9.9999999999976519e-01  9.9999999999974332e-01  9.9999999999979905e-01  9.9999999999963485e-01  1.0000000000000187e+00  1.0000000000000522e+00  1.0000000000000895e+00  1.0000000000000973e+00  1.0000000000001432e+00  1.0000000000002003e+00  1.0000000000002720e+00  1.0000000000003695e+00  1.0000000000005138e+00  1.0000000000006988e+00  1.0000000000009654e+00  1.0000000000013258e+00  1.0000000000018210e+00  1.0000000000025000e+00  1.0000000000034357e+00  1.0000000000047184e+00  1.0000000000064864e+00  1.0000000000089106e+00  1.0000000000122489e+00  1.0000000000168299e+00  1.0000000000231291e+00  1.0000000000317839e+00  1.0000000000436775e+00  1.0000000000600235e+00  1.0000000000824885e+00  1.0000000001133624e+00  1.0000000001557872e+00  1.0000000002140996e+00  1.0000000002942353e+00  1.0000000004043752e+00  1.0000000005557366e+00  1.0000000007637677e+00  1.0000000010496783e+00  1.0000000014426229e+00  1.0000000019826814e+00  1.0000000027249374e+00  1.0000000037450916e+00  1.0000000051472078e+00  1.0000000070743027e+00  1.0000000097229564e+00  1.0000000133633706e+00  1.0000000183669209e+00  1.0000000252440675e+00  1.0000000346964375e+00  1.0000000476884114e+00  1.0000000655455235e+00  1.0000000900897148e+00  1.0000001238251992e+00  1.0000001701939554e+00  1.0000002339267775e+00  1.0000003215257596e+00  1.0000004419271844e+00  1.0000006074123191e+00  1.0000008348584755e+00  1.0000011474572379e+00  1.0000015770735107e+00  1.0000021674832735e+00  1.0000029788151850e+00  1.0000040936398276e+00  1.0000056253108429e+00  1.0000077293786771e+00  1.0000106191863154e+00  1.0000145871401325e+00  1.0000200336495706e+00  1.0000275063727115e+00  1.0000377532072926e+00  1.0000517934243405e+00  1.0000710123984993e+00  1.0000972863791664e+00  1.0001331442812855e+00  1.0001819727369510e+00  1.0002482670069277e+00  1.0003379206572725e+00  1.0004585252185145e+00  1.0006196063128316e+00  1.0008326346232659e+00  1.0011104814467648e+00  1.0014656719486172e+00  1.0019062025244319e+00  1.0024266115246117e+00  1.0029900280019042e+00  1.0034933564188098e+00  1.0037012997787327e+00  1.0031232708662907e+00  1.0007862977224240e+00  9.9481832655615043e-01  9.8167597435667775e-01  9.5487745712437111e-01  9.0540315965355478e-01  8.1592197832467828e-01  3.5269277457823583e-01  2.6989184456160209e-01  5.3046344475035385e-03  -4.6099901855591034e-02  2.0839128233141067e-02  1.8061286335792189e-02  -2.7102788422424934e-02  9.0087406697466257e-03  9.2522284729645160e-03  -1.0467456509610805e-02  -3.7327536984685654e-04  8.6644828741429449e-03  -7.2167679125292924e-03  4.6606509482844245e-04  3.5970910872798190e-03  -2.1063406543638777e-03  -1.6678041018981689e-03  3.3707725996726346e-03  -1.9866509575023955e-03  -2.8088857861746186e-04  1.0908102237431178e-03  -1.9209171364020612e-04  -1.0005446037883313e-03  1.2453221776522968e-03  -5.7251774489729438e-04  -1.4147974473470559e-04  2.5072612413419554e-04  1.3351538986131989e-04  -4.8060283031620913e-04  4.6062679609173269e-04  -1.8645459822056492e-04  -2.7641482107209079e-05  1.7966567663223567e-05  1.2434266963889668e-04  -2.1569619665169932e-04  1.7709571289307652e-04  -7.4202172038728998e-05  1.2355864479714573e-05  -2.7728309341695105e-05  7.5481819783052305e-05  -9.5707597709808660e-05  7.2750832501567228e-05  -3.5770043877004662e-05  1.8230898798483871e-05  -2.6014596902899018e-05  4.0542340035198552e-05  -4.3210913515874661e-05  3.2284259853001338e-05  -1.9215434672829267e-05  1.4127519390762099e-05  -1.7009989975560840e-05  2.0846728747449467e-05  -2.0128074782436378e-05  1.5354211506323458e-05  -1.0696877171703761e-05  9.0674507924199177e-06  -9.8627711646695734e-06  1.0592071105219912e-05  -9.7030048416743231e-06  7.6793090639173916e-06  -5.9593412466077391e-06  5.3329030768158138e-06  -5.4252266611155880e-06  5.3923338662676919e-06  -4.8213925522049280e-06  3.9611673039485159e-06  -3.2857290592101660e-06  2.9934240928864371e-06  -2.9116917637504630e-06  2.7652221296308175e-06  -2.4520254095127693e-06  2.0771971344610741e-06  -1.7907165398435434e-06  1.6366745328628058e-06  -1.5453292080250477e-06  1.4297347295058910e-06  -1.2672229800732777e-06  1.0976727143621426e-06  -9.6661608672312081e-07  8.8159632327125040e-07  -8.1649444527819940e-07  7.4459945244179551e-07  -6.6170213110764566e-07  5.8181775748149135e-07  -5.1813940176028010e-07  4.7093112265380381e-07  -4.3089116824311181e-07  3.8998874745115169e-07  -3.4771451617620170e-07  3.0867189251487301e-07  -2.7645643688610548e-07  2.5046044978580593e-07  -2.2748033505031190e-07  2.0512876150068434e-07  -1.8343336173926284e-07  1.6379794740075510e-07  -1.4711072783547239e-07  1.3295249560088370e-07  -1.2023971826083668e-07  1.0825706670482068e-07  -9.7036211613239870e-08  8.6962545964668380e-08  -7.8213320702030962e-08  7.0578064701328013e-08  -6.3690208559749570e-08  5.7326391723899638e-08  -5.1486137920591865e-08  4.6255453851253397e-08  -4.1647154116444318e-08  3.7565636318200583e-08  -3.3883830360583983e-08  3.0525615393309483e-08  -2.7478938514732695e-08  2.4751688018579726e-08  -2.2328395253217902e-08  2.0164804372595271e-08  -1.8210820574878613e-08  1.6430643955947344e-08  -1.4801889615288191e-08  1.3300278666106649e-08  -1.1886076773869470e-08  1.0501397865936923e-08  -9.0742647089860558e-09  7.5227896266362726e-09  -5.7559491764131813e-09  3.6765625160855158e-09  -1.1898848790771149e-09  -1.7771480198986111e-09  5.2525494242375163e-09  -9.1912301860377769e-09  1.3455930211515655e-08  -1.7802513505725783e-08  2.1891180888751595e-08  -2.5308051947383697e-08  2.7628425085147273e-08  -2.8475405844540449e-08  2.7620793336556527e-08  -2.5025413255482921e-08  2.0921195508293836e-08  -1.5740153967047993e-08  1.0148250755322188e-08  -4.7944563858178499e-09  4.0054381902492286e-10  2.7118508555972456e-09  -4.1560643189539032e-09  4.3919358209666950e-09  -3.2382842523087296e-09  2.0950905248450548e-09  0.0000000000000000e+00  0.0000000000000000e+00  0.0000000000000000e+00  0.0000000000000000e+00  0.0000000000000000e+00  0.0000000000000000e+00  0.0000000000000000e+00  0.0000000000000000e+00  0.0000000000000000e+00  0.0000000000000000e+00  0.0000000000000000e+00  0.0000000000000000e+00  0.0000000000000000e+00  0.0000000000000000e+00  0.0000000000000000e+00  0.0000000000000000e+00  0.0000000000000000e+00  0.0000000000000000e+00  0.0000000000000000e+00  0.0000000000000000e+00  0.0000000000000000e+00  0.0000000000000000e+00  0.0000000000000000e+00  0.0000000000000000e+00  0.0000000000000000e+00  0.0000000000000000e+00  0.0000000000000000e+00  0.0000000000000000e+00  0.0000000000000000e+00  0.0000000000000000e+00  0.0000000000000000e+00  0.0000000000000000e+00  0.0000000000000000e+00  0.0000000000000000e+00  0.0000000000000000e+00  0.0000000000000000e+00  0.0000000000000000e+00  0.0000000000000000e+00  0.0000000000000000e+00  0.0000000000000000e+00  0.0000000000000000e+00  0.0000000000000000e+00  0.0000000000000000e+00  0.0000000000000000e+00  0.0000000000000000e+00  0.0000000000000000e+00  0.0000000000000000e+00  0.0000000000000000e+00  0.0000000000000000e+00  0.0000000000000000e+00  0.0000000000000000e+00  0.0000000000000000e+00  0.0000000000000000e+00  0.0000000000000000e+00  0.0000000000000000e+00  0.0000000000000000e+00  0.0000000000000000e+00  0.0000000000000000e+00  0.0000000000000000e+00  0.0000000000000000e+00  0.0000000000000000e+00  0.0000000000000000e+00  0.0000000000000000e+00  0.0000000000000000e+00  0.0000000000000000e+00  0.0000000000000000e+00  0.0000000000000000e+00  0.0000000000000000e+00  0.0000000000000000e+00  0.0000000000000000e+00  0.0000000000000000e+00  0.0000000000000000e+00  0.0000000000000000e+00  0.0000000000000000e+00  0.0000000000000000e+00  0.0000000000000000e+00  0.0000000000000000e+00  0.0000000000000000e+00  0.0000000000000000e+00  0.0000000000000000e+00  0.0000000000000000e+00  0.0000000000000000e+00  0.0000000000000000e+00  0.0000000000000000e+00  0.0000000000000000e+00  0.0000000000000000e+00  0.0000000000000000e+00  0.0000000000000000e+00  1.2086406682990998e-14  -8.1221534772663011e-14  1.7516801053094409e-14  -9.9319014753740831e-14  4.7415982295713603e-14  -1.1305461749151499e-13  2.2660575990285552e-14  -8.1306054772041141e-14  5.8397651152298568e-14  -2.0397868843787232e-13  1.6839633624042728e-13  -1.6792712566170516e-13  1.1773913067732068e-15  -8.2050097168264804e-14  1.9643142372217604e-13  -4.5551621125764035e-13  3.5399984122489221e-13  -1.4976620697844225e-13  -8.9636766918366836e-14  -2.3065570853045500e-13  6.6931583621367603e-13  -8.8802081444141587e-13  3.4176641147110361e-13  1.2257489419730859e-13  7.5240061943656731e-14  -1.1243976436609488e-12  1.5737955054850557e-12  -8.5185490095090576e-13  -3.6957635901128009e-13  -1.9670591785596413e-14  1.8298662064544269e-12  -2.8949914930936684e-12  1.2131152279714293e-12  8.4600539238607319e-13  4.0295634132127120e-14  -3.5737306959409261e-12  4.4754237592326225e-12  -8.1610825864932758e-13  -2.3458132585319919e-12  -1.0651525642598431e-12  6.6819128073405055e-12  -4.9488591117912596e-12  -3.4915933609741337e-12  5.0331563728219622e-12  4.1582362131296308e-12  -8.3714958424679470e-12  -4.0496814064935667e-12  1.6162740767943104e-11  -7.9324291191356039e-12  -4.6462405381382059e-12  -1.0733115997340015e-11  4.0139217079823443e-11  -3.8964546061178919e-11  1.8058874160073885e-11  -3.9165342905577603e-11  9.6265364547160078e-11  -1.0912983992612406e-10  7.9644076563982168e-11  -1.1741164548659331e-10  2.2099816798358875e-10  -2.4501621422779540e-10  2.0248127096045844e-10  -2.8510280324538775e-10  4.5117017825426833e-10  -4.5150751283098640e-10  3.8628539732148764e-10  -5.6694391421263146e-10  7.6091719933444276e-10  -6.2374287109052920e-10  5.7360744965278273e-10  -9.0113401632779225e-10  8.9619466711507413e-10  -4.9890008171196189e-10  6.7838082653458314e-10  -9.4319285955381200e-10  2.7367363938259640e-10  -9.5855004240826088e-12  5.6050261027501535e-10  2.0192725458383015e-10  -1.0553221079055724e-09  1.4881915166910049e-10  -8.3507623940704786e-10  2.2290020210055476e-09  -6.0128538827374689e-10  1.2515815103526786e-09  -2.9374994130101767e-09  -1.6030887152205324e-10  -1.2426658148318289e-09  1.4321201638999978e-15  2.8596377476112653e-14  -1.5799520608498803e-15  2.4942220992640303e-14  -1.2206295330820159e-14  6.3026317640776048e-14  -4.4160879513214014e-14  3.5950370457587228e-14  3.4595049742651517e-14  3.3013620763489810e-15  -6.6328618480876597e-14  1.7618298355100136e-13  -1.1570845104697347e-13  -9.0805111312582287e-15  1.3299240596617214e-13  1.7449773999860031e-14  -2.6577888773158257e-13  3.9639996159168009e-13  -1.0456646688411930e-13  -2.4012635462209061e-13  2.1999019690936742e-13  3.5702677843852160e-13  -7.5816429076253708e-13  4.4295848159071344e-13  3.8657256589383446e-13  -5.2601169499590643e-13  -4.0189329469336965e-13  1.4109449906808004e-12  -9.1173817964807959e-13  -6.3613201559128117e-13  1.0773658443507525e-12  7.7721041619406282e-13  -2.5444166089084462e-12  1.4360374526257693e-12  1.4682915585618205e-12  -1.5844998911148379e-12  -2.1039358951794164e-12  4.4983374089996432e-12  -1.1085758403657282e-12  -3.4358665042375998e-12  1.1033534711612468e-12  6.0945852549934299e-12  -6.3388525415989873e-12  -2.4355792323684110e-12  5.8983234448526710e-12  4.3614125008273288e-12  -1.2453784407592156e-11  2.1529943348813580e-12  1.1144957058663289e-11  -1.2368564408484810e-12  -1.7841328305762122e-11  8.3663568834133466e-12  1.8783282100001144e-11  -1.2298035717454307e-11  -2.0377747262932841e-11  1.1146005949614939e-11  3.7409925064632008e-11  -3.5182712114657640e-11  -1.5798315095437556e-11  -4.8354270642077548e-12  8.9361507014721837e-11  -8.1165522495448878e-11  8.9018874947750752e-12  -7.5896917887353144e-11  2.1087458950563488e-10  -1.5875227016384439e-10  8.3489577391759972e-11  -2.7196894129269835e-10  4.1363821307896639e-10  -2.4200153623717165e-10  2.7958691013125599e-10  -6.3336167753217179e-10  5.5084768302594488e-10  -2.9610320012802365e-10  6.9801230538987440e-10  -8.559744292