<?xml version="1.0"?>
<VTKFile type="UnstructuredGrid"  version="0.1"  >
<UnstructuredGrid>
<Piece  NumberOfPoints="21600" NumberOfCells="42542">
<Points>
<DataArray  type="Float64"  NumberOfComponents="3"  format="ascii">0 0 0  0.77 0 0  0.77 0.15 0  0 0.15 0  0.003221757322170014 0 0  0.006443514644340046 0 0  0.009665271966510193 0 0  0.01288702928868034 0 0  0.01610878661085048 0 0  0.01933054393302049 0 0  0.02255230125519027 0 0  0.02577405857735967 0 0  0.02899581589952872 0 0  0.03221757322169801 0 0  0.03543933054386744 0 0  0.03866108786603686 0 0  0.04188284518820627 0 0  0.0451046025103757 0 0  0.04832635983254521 0 0  0.05154811715471607 0 0  0.05476987447688695 0 0  0.05799163179905782 0 0  0.06121338912122846 0 0  0.06443514644339859 0 0  0.06765690376556875 0 0  0.0708786610877389 0 0  0.07410041840990904 0 0  0.0773221757320792 0 0  0.08054393305425039 0 0  0.08376569037642198 0 0  0.0869874476985936 0 0  0.09020920502076518 0 0  0.0934309623429339 0 0  0.0966527196651024 0 0  0.09987447698726967 0 0  0.1030962343094369 0 0  0.1063179916316041 0 0  0.1095397489537714 0 0  0.1127615062759386 0 0  0.1159832635981051 0 0  0.1192050209202709 0 0  0.1224267782424358 0 0  0.1256485355646001 0 0  0.1288702928867644 0 0  0.1320920502089288 0 0  0.1353138075310958 0 0  0.1385355648532632 0 0  0.1417573221754333 0 0  0.1449790794976035 0 0  0.1482008368197736 0 0  0.1514225941419428 0 0  0.1546443514641101 0 0  0.157866108786276 0 0  0.1610878661084403 0 0  0.1643096234306047 0 0  0.167531380752769 0 0  0.1707531380749333 0 0  0.1739748953970977 0 0  0.177196652719262 0 0  0.1804184100414264 0 0  0.1836401673635935 0 0  0.1868619246857611 0 0  0.1900836820079313 0 0  0.1933054393301014 0 0  0.1965271966522716 0 0  0.1997489539744406 0 0  0.2029707112966078 0 0  0.2061924686187736 0 0  0.209414225940938 0 0  0.2126359832631022 0 0  0.2158577405852666 0 0  0.219079497907431 0 0  0.2223012552295953 0 0  0.2255230125517597 0 0  0.2287447698739242 0 0  0.2319665271960914 0 0  0.2351882845182592 0 0  0.2384100418404293 0 0  0.2416317991625994 0 0  0.2448535564847696 0 0  0.2480753138069371 0 0  0.2512970711291014 0 0  0.2545188284512658 0 0  0.2577405857734302 0 0  0.2609623430955986 0 0  0.2641841004177688 0 0  0.2674058577399389 0 0  0.270627615062109 0 0  0.2738493723842792 0 0  0.2770711297064487 0 0  0.280292887028613 0 0  0.2835146443507774 0 0  0.2867364016729417 0 0  0.2899581589951061 0 0  0.2931799163172705 0 0  0.2964016736394348 0 0  0.2996234309615992 0 0  0.3028451882837672 0 0  0.3060669456059373 0 0  0.3092887029281075 0 0  0.3125104602502776 0 0  0.3157322175724478 0 0  0.3189539748946177 0 0  0.322175732216782 0 0  0.3253974895389464 0 0  0.3286192468611107 0 0  0.3318410041832751 0 0  0.3350627615054395 0 0  0.3382845188276038 0 0  0.3415062761497681 0 0  0.3447280334719325 0 0  0.3479497907940968 0 0  0.3511715481162612 0 0  0.3543933054384255 0 0  0.3576150627605947 0 0  0.3608368200827649 0 0  0.364058577404935 0 0  0.3672803347271051 0 0  0.3705020920492753 0 0  0.373723849371444 0 0  0.3769456066936084 0 0  0.3801673640157748 0 0  0.383389121337945 0 0  0.3866108786601209 0 0  0.3898326359823028 0 0  0.3930543933044846 0 0  0.3962761506266662 0 0  0.399497907948848 0 0  0.4027196652710298 0 0  0.4059414225932116 0 0  0.4091631799153934 0 0  0.4123849372375751 0 0  0.4156066945597569 0 0  0.4188284518819387 0 0  0.4220502092041222 0 0  0.4252719665263097 0 0  0.4284937238484974 0 0  0.4317154811706849 0 0  0.4349372384928725 0 0  0.4381589958150601 0 0  0.4413807531372476 0 0  0.4446025104594352 0 0  0.4478242677816181 0 0  0.4510460251037998 0 0  0.4542677824259815 0 0  0.4574895397481634 0 0  0.4607112970703451 0 0  0.4639330543925269 0 0  0.4671548117147087 0 0  0.4703765690368904 0 0  0.4735983263590722 0 0  0.4768200836812568 0 0  0.4800418410034444 0 0  0.483263598325632 0 0  0.4864853556478196 0 0  0.4897071129700028 0 0  0.4929288702921845 0 0  0.4961506276143663 0 0  0.4993723849365479 0 0  0.5025941422587239 0 0  0.5058158995809008 0 0  0.5090376569030826 0 0  0.5122594142252677 0 0  0.515481171547461 0 0  0.5187029288696494 0 0  0.5219246861918312 0 0  0.525146443514013 0 0  0.5283682008361947 0 0  0.5315899581583845 0 0  0.5348117154805778 0 0  0.5380334728027617 0 0  0.5412552301249435 0 0  0.5444769874471141 0 0  0.5476987447692853 0 0  0.550920502091467 0 0  0.5541422594136513 0 0  0.5573640167358447 0 0  0.560585774058034 0 0  0.5638075313802158 0 0  0.5670292887023975 0 0  0.5702510460245793 0 0  0.5734728033467682 0 0  0.5766945606689615 0 0  0.579916317991155 0 0  0.5831380753133483 0 0  0.5863598326355314 0 0  0.5895815899577131 0 0  0.5928033472798949 0 0  0.5960251046020785 0 0  0.5992468619242718 0 0  0.6024686192464619 0 0  0.6056903765686437 0 0  0.6089121338908206 0 0  0.6121338912129908 0 0  0.6153556485351673 0 0  0.618577405857349 0 0  0.6217991631795386 0 0  0.625020920501732 0 0  0.6282426778239159 0 0  0.6314644351460976 0 0  0.6346861924682795 0 0  0.6379079497904622 0 0  0.6411297071126555 0 0  0.6443514644348465 0 0  0.6475732217570283 0 0  0.650794979079206 0 0  0.6540167364013761 0 0  0.6572384937235518 0 0  0.6604602510457335 0 0  0.6636820083679225 0 0  0.6669037656901158 0 0  0.6701255230123004 0 0  0.6733472803344823 0 0  0.6765690376566641 0 0  0.6797907949788459 0 0  0.6830125523010393 0 0  0.686234309623231 0 0  0.6894560669454127 0 0  0.6926778242675914 0 0  0.6958995815897615 0 0  0.6991213389119363 0 0  0.7023430962341181 0 0  0.7055648535563062 0 0  0.7087866108784994 0 0  0.712008368200685 0 0  0.7152301255228668 0 0  0.7184518828450486 0 0  0.7216736401672305 0 0  0.724895397489423 0 0  0.7281171548116155 0 0  0.7313389121337973 0 0  0.7345606694559768 0 0  0.7377824267781468 0 0  0.7410041841003209 0 0  0.7442259414225026 0 0  0.7474476987446899 0 0  0.7506694560668832 0 0  0.7538912133890696 0 0  0.7571129707112513 0 0  0.760334728033433 0 0  0.7635564853556149 0 0  0.7667782426778067 0 0  0.77 0.001685393258423789 0  0.77 0.003370786516847669 0  0.77 0.005056179775271247 0  0.77 0.006741573033694517 0  0.77 0.008426966292117821 0  0.77 0.01011235955054176 0  0.77 0.01179775280896623 0  0.77 0.0134831460673904 0  0.77 0.01516853932581489 0  0.77 0.01685393258423891 0  0.77 0.01853932584266291 0  0.77 0.02022471910108589 0  0.77 0.02191011235950794 0  0.77 0.02359550561792999 0  0.77 0.02528089887635205 0  0.77 0.02696629213477411 0  0.77 0.02865168539319714 0  0.77 0.03033707865161956 0  0.77 0.03202247191004162 0  0.77 0.03370786516846367 0  0.77 0.03539325842688572 0  0.77 0.03707865168530778 0  0.77 0.03876404494372984 0  0.77 0.0404494382021519 0  0.77 0.04213483146057394 0  0.77 0.04382022471899601 0  0.77 0.04550561797741807 0  0.77 0.04719101123584013 0  0.77 0.04887640449426219 0  0.77 0.05056179775268425 0  0.77 0.0522471910111063 0  0.77 0.05393258426952837 0  0.77 0.05561797752795105 0  0.77 0.05730337078637505 0  0.77 0.05898876404479723 0  0.77 0.0606741573032193 0  0.77 0.06235955056164135 0  0.77 0.06404494382006341 0  0.77 0.06573033707848548 0  0.77 0.06741573033690752 0  0.77 0.06910112359532959 0  0.77 0.07078651685375165 0  0.77 0.0724719101121737 0  0.77 0.07415730337059653 0  0.77 0.07584269662902443 0  0.77 0.07752808988745429 0  0.77 0.07921348314588413 0  0.77 0.08089887640431678 0  0.77 0.08258426966274923 0  0.77 0.08426966292117907 0  0.77 0.08595505617960987 0  0.77 0.08764044943804362 0  0.77 0.08932584269647403 0  0.77 0.09101123595490389 0  0.77 0.09269662921333673 0  0.77 0.09438202247176901 0  0.77 0.09606741573019884 0  0.77 0.09775280898862983 0  0.77 0.09943820224706355 0  0.77 0.1011235955054938 0  0.77 0.1028089887639236 0  0.77 0.1044943820223567 0  0.77 0.1061797752807888 0  0.77 0.1078651685392186 0  0.77 0.1095505617976498 0  0.77 0.1112359550560835 0  0.77 0.1129213483145136 0  0.77 0.1146067415729456 0  0.77 0.1162921348313787 0  0.77 0.1179775280898085 0  0.77 0.1196629213482387 0  0.77 0.1213483146066724 0  0.77 0.1230337078651035 0  0.77 0.1247191011235322 0  0.77 0.1264044943819605 0  0.77 0.1280898876403903 0  0.77 0.1297752808988242 0  0.77 0.1314606741572554 0  0.77 0.1331460674156853 0  0.77 0.1348314606741154 0  0.77 0.1365168539325504 0  0.77 0.1382022471909802 0  0.77 0.13988764044941 0  0.77 0.1415730337078443 0  0.77 0.1432584269662752 0  0.77 0.144943820224705 0  0.77 0.1466292134831355 0  0.77 0.1483146067415701 0  0.7667782426778414 0.15 0  0.7635564853556813 0.15 0  0.7603347280335111 0.15 0  0.757112970711341 0.15 0  0.7538912133891708 0.15 0  0.7506694560670005 0.15 0  0.7474476987448303 0.15 0  0.7442259414226602 0.15 0  0.74100418410049 0.15 0  0.7377824267783197 0.15 0  0.7345606694561496 0.15 0  0.7313389121339794 0.15 0  0.7281171548118092 0.15 0  0.724895397489639 0.15 0  0.7216736401674688 0.15 0  0.7184518828452986 0.15 0  0.7152301255231284 0.15 0  0.7120083682009583 0.15 0  0.708786610878788 0.15 0  0.7055648535566178 0.15 0  0.7023430962344477 0.15 0  0.6991213389122775 0.15 0  0.6958995815901072 0.15 0  0.692677824267937 0.15 0  0.6894560669457669 0.15 0  0.6862343096235967 0.15 0  0.6830125523014264 0.15 0  0.6797907949792563 0.15 0  0.6765690376570861 0.15 0  0.6733472803349159 0.15 0  0.6701255230127456 0.15 0  0.6669037656905755 0.15 0  0.6636820083684053 0.15 0  0.6604602510462351 0.15 0  0.657238493724065 0.15 0  0.6540167364018947 0.15 0  0.6507949790797245 0.15 0  0.6475732217575543 0.15 0  0.644351464435384 0.15 0  0.6411297071132231 0.15 0  0.6379079497910645 0.15 0  0.634686192468906 0.15 0  0.6314644351467468 0.15 0  0.6282426778245765 0.15 0  0.6250209205024085 0.15 0  0.62179916318025 0.15 0  0.6185774058580914 0.15 0  0.6153556485359328 0.15 0  0.6121338912137689 0.15 0  0.6089121338915987 0.15 0  0.6056903765694354 0.15 0  0.6024686192472768 0.15 0  0.5992468619251182 0.15 0  0.5960251046029597 0.15 0  0.5928033472807912 0.15 0  0.589581589958621 0.15 0  0.5863598326364508 0.15 0  0.5831380753142792 0.15 0  0.5799163179920974 0.15 0  0.57669456
[...]
<PointData  Scalars="pressure"> 
<DataArray  type="Float64"  Name="pressure"  format="ascii">1.9368691531148088e+04  4.0549184560203388e-01  -3.0042951910471910e-01  1.9354303045982873e+04  1.9230082046958854e+04  1.9121350424583183e+04  1.9013590478802624e+04  1.8906155000435207e+04  1.8799087585587797e+04  1.8692253791427454e+04  1.8585576643455930e+04  1.8479011949277810e+04  1.8372531204063089e+04  1.8266114957671398e+04  1.8159749391204277e+04  1.8053424356840598e+04  1.7947132200701599e+04  1.7840867022344060e+04  1.7734624189950442e+04  1.7628400012099304e+04  1.7522191509070075e+04  1.7415996249479169e+04  1.7309812231012922e+04  1.7203637791663532e+04  1.7097471542529860e+04  1.6991312316163632e+04  1.6885159126320159e+04  1.6779011136209665e+04  1.6672867633176898e+04  1.6566728008307105e+04  1.6460591739852669e+04  1.6354458379656704e+04  1.6248327541951603e+04  1.6142198894056794e+04  1.6036072148609879e+04  1.5929947057043904e+04  1.5823823404086283e+04  1.5717701003099917e+04  1.5611579692123272e+04  1.5505459330493646e+04  1.5399339795959406e+04  1.5293220982204135e+04  1.5187102796719191e+04  1.5080985158971975e+04  1.4974867998826059e+04  1.4868751255176379e+04  1.4762634874768921e+04  1.4656518811178081e+04  1.4550403023920626e+04  1.4444287477686295e+04  1.4338172141669989e+04  1.4232056988991195e+04  1.4125941996189154e+04  1.4019827142783613e+04  1.3913712410892387e+04  1.3807597784898402e+04  1.3701483251159438e+04  1.3595368797755238e+04  1.3489254414266945e+04  1.3383140091584790e+04  1.3277025821740188e+04  1.3170911597759547e+04  1.3064797413536122e+04  1.2958683263718694e+04  1.2852569143613769e+04  1.2746455049100543e+04  1.2640340976556306e+04  1.2534226922791271e+04  1.2428112884991573e+04  1.2321998860669300e+04  1.2215884847618712e+04  1.2109770843877868e+04  1.2003656847694765e+04  1.1897542857497687e+04  1.1791428871868929e+04  1.1685314889521609e+04  1.1579200909279305e+04  1.1473086930057520e+04  1.1366972950847556e+04  1.1260858970701658e+04  1.1154744988719851e+04  1.1048631004037652e+04  1.0942517015814903e+04  1.0836403023225621e+04  1.0730289025448021e+04  1.0624175021655597e+04  1.0518061011007932e+04  1.0411946992641917e+04  1.0305832965663076e+04  1.0199718929136876e+04  1.0093604882079784e+04  9.9874908234495615e+03  9.8813767521359878e+03  9.7752626669503534e+03  9.6691485666143526e+03  9.5630344497481110e+03  9.4569203148571214e+03  9.3508061603178321e+03  9.2446919843621708e+03  9.1385777850599352e+03  9.0324635602993585e+03  8.9263493077655075e+03  8.8202350249161391e+03  8.7141207089547552e+03  8.6080063567996058e+03  8.5018919650499793e+03  8.3957775299473087e+03  8.2896630473315709e+03  8.1835485125918422e+03  8.0774339206104160e+03  7.9713192656993333e+03  7.8652045415284238e+03  7.7590897410433936e+03  7.6529748563726935e+03  7.5468598787211931e+03  7.4407447982495214e+03  7.3346296039354065e+03  7.2285142834155404e+03  7.1223988228045100e+03  7.0162832064871836e+03  6.9101674168802510e+03  6.8040514341576572e+03  6.6979352359351433e+03  6.5918187969055898e+03  6.4857020884176309e+03  6.3795850779875345e+03  6.2734677287318400e+03  6.1673499987075356e+03  6.0612318401417351e+03  5.9551131985298098e+03  5.8489940115761246e+03  5.7428742079454632e+03  5.6367537057854370e+03  5.5306324109703855e+03  5.4245102150041739e+03  5.3183869925028666e+03  5.2122625981557912e+03  5.1061368630332609e+03  5.0000095900709894e+03  4.8938805485056646e+03  4.7877494669623820e+03  4.6816160247909220e+03  4.5754798411022393e+03  4.4693404607468447e+03  4.3631973361763030e+03  4.2570498036798836e+03  4.1508970518183287e+03  4.0447380788441615e+03  3.9385716342914643e+03  3.8323961373696347e+03  3.7262095604334536e+03  3.6200092577379510e+03  3.5137917074005586e+03  3.4075521227617810e+03  3.3012838439098869e+03  3.1949771439990500e+03  3.0886166877688047e+03  2.9821787438275219e+03  2.8756353322586033e+03  2.7689373772594208e+03  2.6618110822858030e+03  2.5533470244654145e+03  2.4391629511496221e+03  1.7009307877798440e+03  1.6309642319666148e+03  1.5613420194140706e+03  1.5085577852258334e+03  1.4921558522631517e+03  1.4717238561594665e+03  1.4515982932944517e+03  1.4315831197289829e+03  1.4116104586250390e+03  1.3916639152366956e+03  1.3717344737262576e+03  1.3518167599922438e+03  1.3319074582828048e+03  1.3120043993455331e+03  1.2921060977108834e+03  1.2722114997305757e+03  1.2523198362811152e+03  1.2324305323160297e+03  1.2125431490819153e+03  1.1926573459484305e+03  1.1727728544650377e+03  1.1528894602870462e+03  1.1330069903080744e+03  1.1131253033208834e+03  1.0932442831217929e+03  1.0733638333392262e+03  1.0534838735003693e+03  1.0336043360010365e+03  1.0137251637432664e+03  9.9384630827391754e+02  9.7396772830339262e+02  9.5408938851583230e+02  9.3421125860581935e+02  9.1433331249200683e+02  8.9445552767100173e+02  8.7457788468290983e+02  8.5470036666651038e+02  8.3482295898752193e+02  8.1494564892607195e+02  7.9506842541289427e+02  7.7519127880611939e+02  7.5531420070123784e+02  7.3543718376926518e+02  7.1556022161869009e+02  6.9568330867712211e+02  6.7580644009027708e+02  6.5592961163527366e+02  6.3605281964660594e+02  6.1617606095304905e+02  5.9629933282396576e+02  5.7642263292447956e+02  5.5654595927827359e+02  5.3666931023749976e+02  5.1679268445985508e+02  4.9691608089203703e+02  4.7703949876030669e+02  4.5716293756881134e+02  4.3728639710608633e+02  4.1740987746202507e+02  3.9753337905714346e+02  3.7765690268797141e+02  3.5778044959395010e+02  3.3790402155349256e+02  3.1802762102176951e+02  2.9815125132850596e+02  2.7827491696510640e+02  2.5839862400904792e+02  2.3852238076439704e+02  2.1864619875642390e+02  1.9877009432949723e+02  1.7889409132102386e+02  1.5901822577507184e+02  1.3914255478893486e+02  1.1926717406337445e+02  9.9392257189010621e+01  7.9518197445515682e+01  5.9646054764042255e+01  3.9775728335223533e+01  1.9905431516138314e+01  8.4075831208992230e-02  4.3198980484974109e-03  9.2469842461400471e-04  5.6854176914590798e-04  3.2496891631002912e-04  1.9102992328992819e-04  1.1947150830436086e-04  7.8916945656327755e-05  5.4538728890754928e-05  3.9134749602536769e-05  2.8979448437710124e-05  2.2037624994492296e-05  1.7143283274888831e-05  1.3599602729594358e-05  1.0974304263182065e-05  8.9902279843618108e-06  7.4644134853992631e-06  6.2729226416878949e-06  5.3298475702521022e-06  4.5744065581384086e-06  3.9627967675296067e-06  3.4629244477221381e-06  3.0509207784122684e-06  2.7087921409829378e-06  2.4228063567354242e-06  2.1823659072911004e-06  1.9792091543780151e-06  1.8068361490868526e-06  1.6600905226469550e-06  1.5348514744983407e-06  1.4278043762143545e-06  1.3362681994018597e-06  1.2580645604218837e-06  1.1914174934940097e-06  1.1348761976395265e-06  1.0872551595902556e-06  1.0475874663676633e-06  1.0150883589251321e-06  9.8912666511771539e-07  9.6920256075745111e-07  9.5493029226110991e-07  9.4602497835844762e-07  9.4229280687691110e-07  9.4362405483413980e-07  9.4998868277754653e-07  9.6143413080885754e-07  9.7808533931462094e-07  1.0001468277434413e-06  1.0279070199045051e-06  1.0617448523702578e-06  1.1021390420668660e-06  1.1496802925708943e-06  1.2050870608052160e-06  1.2692255008436383e-06  1.3431345568456545e-06  1.4280573827653954e-06  1.5254806646504273e-06  1.6371839179215066e-06  1.7653013590581512e-06  1.9124000357170798e-06  2.0815787077199721e-06  2.2765938357665611e-06  2.5020208900471883e-06  2.7634621803183005e-06  3.0678163295930670e-06  3.4236299174467228e-06  3.8415594570113354e-06  4.3349822759454541e-06  4.9208094771814369e-06  5.6205742154695266e-06  6.4618956503197194e-06  7.4804549330857389e-06  8.7226642156066618e-06  1.0249258412653756e-05  1.2140074303691871e-05  1.4500250861955027e-05  1.7467854891654243e-05  2.1222185908418781e-05  2.5990061087312651e-05  3.2043465352109607e-05  3.9680433715692456e-05  4.9228204882590897e-05  6.1722682436477069e-05  9.1618899488480460e-05  3.6483631373902397e-04  3.3469992208886184e-03  2.3683345481577748e-02  1.3918308004033894e-02  1.9712034672455435e+01  3.9716732847141635e+01  5.9604505443856951e+01  7.9486470717287077e+01  9.9366967098360419e+01  1.1924616042163565e+02  1.3912458846433103e+02  1.5900254424914431e+02  1.7888018485045797e+02  1.9875760427984287e+02  2.1863486239759689e+02  2.3851199907100059e+02  2.5838904187129668e+02  2.7826601047900726e+02  2.9814291932688815e+02  3.1801977925220137e+02  3.3789659856666935e+02  3.5777338377096169e+02  3.7765014004508191e+02  3.9752687159348437e+02  4.1740358189377707e+02  4.3728027388013425e+02  4.5715695008178102e+02  4.7703361273021733e+02  4.9691026384453920e+02  5.1678690530145116e+02  5.3666353889470781e+02  5.5654016638751523e+02  5.7641678956057660e+02  5.9629341025792098e+02  6.1617003043230545e+02  6.3604665219172671e+02  6.5592327784849135e+02  6.7579990997220443e+02  6.9567655144811522e+02  7.1555320554229820e+02  7.3542987597531589e+02  7.5530656700622671e+02  7.7518328352907417e+02  7.9506003118430169e+02  8.1493681648834900e+02  8.3481364698451046e+02  8.5469053141982897e+02  8.7456747995323633e+02  8.9444450440120590e+02  9.1432161852973059e+02  9.3419883840241823e+02  9.5407618279760811e+02  9.7395367371162217e+02  9.9383133696922857e+02  1.0137092029694332e+03  1.0335873076036214e+03  1.0534656933944912e+03  1.0733444109217983e+03  1.0932235206244909e+03  1.1131030951020646e+03  1.1329832220877620e+03  1.1528640083369264e+03  1.1727455847816066e+03  1.1926281134650687e+03  1.2125117970237247e+03  1.2323968918847661e+03  1.2522837270029522e+03  1.2721727310539695e+03  1.2920644728894549e+03  1.3119597234275304e+03  1.3318595533963937e+03  1.3517654934291104e+03  1.3716798073035004e+03  1.3916059792067974e+03  1.4115496373145734e+03  1.4315205099089269e+03  1.4515355276207263e+03  1.4716094431610557e+03  1.4918006630295854e+03  1.5142473349251466e+03  1.5498024254384816e+03  1.6256105516495838e+03  2.3365409211359001e+03  2.4490344095642008e+03  2.5566259736729935e+03  2.6635374134697631e+03  2.7701305541186616e+03  2.8765962976861051e+03  2.9829721364515735e+03  3.0892834828917721e+03  3.1955500680482951e+03  3.3017845611312373e+03  3.4079950948400715e+03  3.5141872761582131e+03  3.6203651490224242e+03  3.7265316951067048e+03  3.8326891566868894e+03  3.9388392527700707e+03  4.0449833232257902e+03  4.1511224271041419e+03  4.2572574116519409e+03  4.3633889618217263e+03  4.4695176364240642e+03  4.5756438949660378e+03  4.6817681178831563e+03  4.7878906220028812e+03  4.8940116725159669e+03  5.0001314923521795e+03  5.1062502696024385e+03  5.2123681634523928e+03  5.3184853089689350e+03  5.4246018209934400e+03  5.5307177973321732e+03  5.6368333213888354e+03  5.7429484643502956e+03  5.8490632870107847e+03  5.9551778413032589e+03  6.0612921715895573e+03  6.1674063157520295e+03  6.2735203061203601e+03  6.3796341702608588e+03  6.4857479316508234e+03  6.5918616102548312e+03  6.6979752230194799e+03  6.8040887842980710e+03  6.9102023062157768e+03  7.0163157989845604e+03  7.1224292711739790e+03  7.2285427299449011e+03  7.3346561812511272e+03  7.4407696300133548e+03  7.5468830802693647e+03  7.6529965353035850e+03  7.7591099977589693e+03  7.8652234697334579e+03  7.9713369528631993e+03  8.0774504483939882e+03  8.1835639572433356e+03  8.2896774800535259e+03  8.3957910172372849e+03  8.5019045690170515e+03  8.6080181354586421e+03  8.7141317165000546e+03  8.8202453119765360e+03  8.9263589216414621e+03  9.0324725451844206e+03  9.1385861822467286e+03  9.2446998324345659e+03  9.3508134953302397e+03  9.4569271705018073e+03  9.5630408575112488e+03  9.6691545559216502e+03  9.7752682653030643e+03  9.8813819852378438e+03  9.9874957153254163e+03  1.0093609455186292e+04  1.0199723204466174e+04  1.0305836962839252e+04  1.0411950730011615e+04  1.0518064505724502e+04  1.0624178289758311e+04  1.0730292081935775e+04  1.0836405882125768e+04  1.0942519690247918e+04  1.1048633506276650e+04  1.1154747330247468e+04  1.1260861162262969e+04  1.1366975002499308e+04  1.1473088851214674e+04  1.1579202708757792e+04  1.1685316575578530e+04  1.1791430452241069e+04  1.1897544339436590e+04  1.2003658238000568e+04  1.2109772148930522e+04  1.2215886073406728e+04  1.2322000012817667e+04  1.2428113968786998e+04  1.2534227943206719e+04  1.2640341938274209e+04  1.2746455956534097e+04  1.2852570000927442e+04  1.2958684074847115e+04  1.3064798182202148e+04  1.3170912327491527e+04  1.3277026515888010e+04  1.3383140753335847e+04  1.3489255046660826e+04  1.3595369403697723e+04  1.3701483833436354e+04  1.3807598346188041e+04  1.3913712953778422e+04  1.4019827669767734e+04  1.4125942509702947e+04  1.4232057491408492e+04  1.4338172635318271e+04  1.4444287964858606e+04  1.4550403506887311e+04  1.4656519292198689e+04  1.4762635356105342e+04  1.4868751739105879e+04  1.4974868487654818e+04  1.5080985655050245e+04  1.5187103302456278e+04  1.5293221500086105e+04  1.5399340328568756e+04  1.5505459880530641e+04  1.5611580262431076e+04  1.5717701596692406e+04  1.5823824024180787e+04  1.5929947707099491e+04  1.6036072832372454e+04  1.6142199615614061e+04  1.6248328305798532e+04  1.6354459190775287e+04  1.6460592603810099e+04  1.6566728931376427e+04  1.6672868622488510e+04  1.6779012199942721e+04  1.6885160273945017e+04  1.6991313558754409e+04  1.7097472893169437e+04  1.7203639265975988e+04  1.7309813847872112e+04  1.7415998031964675e+04  1.7522193485778414e+04  1.7628402218971696e+04  1.7734626672871731e+04  1.7840869840921565e+04  1.7947135433896845e+04  1.8053428111612138e+04  1.8159753816220295e+04  1.8266120265930418e+04  1.8372537711953704e+04  1.8479020147610430e+04  1.8585587336467488e+04  1.8692268406443090e+04  1.8799108804550768e+04  1.8906186832074382e+04  1.9013647144090199e+04  1.9121628870658038e+04  1.9230862480611810e+04  1.9341953816136371e+04  1.9336984085880536e+04  1.9334500896615853e+04  1.9332846033723992e+04  1.9331569602881085e+04  1.9330526225084974e+04  1.9329646708492906e+04  1.9328889146434249e+04  1.9328225770276153e+04  1.9327637338624769e+04  1.9327110039604551e+04  1.9326633649131785e+04  1.9326200397157088e+04  1.9325804245549050e+04  1.9325440412322816e+04  1.9325105048346395e+04  1.9324795011619299e+04  1.9324507705898257e+04  1.9324240962902935e+04  1.9323992954738664e+04  1.9323762127712278e+04  1.9323547151580078e+04  1.9323346880115991e+04  1.9323160320111656e+04  1.9322986606744165e+04  1.9322824983814109e+04  1.9322674787752625e+04  1.9322535434576581e+04  1.9322406409173156e+04  1.9322287256442709e+04  1.9322177573937301e+04  1.9322077005713287e+04  1.9321985237177785e+04  1.9321901990755563e+04  1.9321827022238263e+04  1.9321760117706588e+04  1.9321701090936996e+04  1.9321649781222757e+04  1.9321606051552022e+04  1.9321569787097589e+04  1.9321540893981757e+04  1.9321519298287214e+04  1.9321504945291654e+04  1.9321497798908724e+04  1.9321497841323519e+04  1.9321505072814183e+04  1.9321519511756385e+04  1.9321541194810354e+04  1.9321570177294838e+04  1.9321606533755952e+04  1.9321650358743533e+04  1.9321701767812425e+04  1.9321760898771659e+04  1.9321827913210942e+04  1.9321902998341800e+04  1.9321986369199411e+04  1.9322078271263585e+04  1.9322178983570269e+04  1.9322288822403712e+04  1.9322408145681093e+04  1.9322537358170444e+04  1.9322676917719316e+04  1.9322827342719771e+04  1.9322989221098720e+04  1.9323163221206029e+04  1.9323350105085778e+04  1.9323550744769498e+04  1.9323766142440316e+04  1.9323997455611130e+04  1.9324246028875543e+04  1.9324513434387103e+04  1.9324801524095965e+04  1.9325112498073100e+04  1.9325448995230301e+04  1.9325814215824688e+04  1.9326212090052039e+04  1.9326647515109464e+04  1.9327126696814601e+04  1.9327657656008570e+04  1.9328251004074893e+04  1.9328921173555329e+04  1.9329688429632901e+04  1.9330582150620354e+04  1.9331645812688494e+04  1.9332944617125886e+04  1.9334597149497939e+04  1.9337056626225924e+04  1.9343135199075034e+04  1.9232115929923260e+04  1.9230160061890321e+04  1.9228292476423532e+04  1.9226822671651582e+04  1.9225638824359023e+04  1.9224652062215886e+04  1.9223809114465730e+04  1.9223076078540158e+04  1.9222429793503292e+04  1.9221853699989602e+04  1.9221335582167892e+04  1.9220866200330900e+04  1.9220438414935856e+04  1.9220046605843345e+04  1.9219686276644090e+04  1.9219353778501671e+04  1.9219046113166609e+04  1.9218760789678643e+04  1.9218495718265109e+04  1.9218249130517099e+04  1.9218019518463152e+04  1.9217805587454644e+04  1.9217606219297162e+04  1.9217420443086405e+04  1.9217247411910917e+04  1.9217086384074388e+04  1.9216936707837202e+04  1.9216797808926251e+04  1.9216669180242730e+04  1.9216550373330858e+04  1.9216440991269414e+04  1.9216340682722443e+04  1.9216249136941704e+04  1.9216166079556999e+04  1.9216091269023596e+04  1.9216024493622641e+04  1.9215965568930129e+04  1.9215914335687401e+04  1.9215870658018241e+04  1.9215834421948890e+04  1.9215805534195817e+04  1.9215783921193197e+04  1.9215769528338384e+04  1.9215762319438680e+04  1.9215762276347552e+04  1.9215769398782530e+04  1.9215783704320686e+04  1.9215805228571950e+04  1.9215834025533557e+04  1.9215870168133217e+04  1.9215913748972765e+04  1.9215964881288317e+04  1.9216023700148551e+04  1.9216090363918356e+04  1.9216165056022553e+04  1.9216247987052680e+04  1.9216339397270425e+04  1.9216439559573944e+04  1.9216548783009446e+04  1.9216667416930290e+04  1.9216795855931363e+04  1.9216934545719138e+04  1.9217083990119489e+04  1.9217244759480327e+04  1.9217417500797914e+04  1.9217602949990986e+04  1.9217801946874948e+04  1.9218015453561798e+04  1.9218244577249625e+04  1.9218490598695800e+04  1.9218755008133448e+04  1.9219039551055062e+04  1.9219346287250082e+04  1.9219677667903350e+04  1.9220036637692370e+04  1.9220426772081904e+04  1.9220852465107546e+04  1.9221319191075436e+04  1.9221833876949389e+04  1.9222405444922391e+04  1.9223045625815157e+04  1.9223770223760610e+04  1.9224601154942895e+04  1.9225569587713424e+04  1.9226718212029249e+04  1.9228083628397577e+04  1.9229566274211295e+04  1.9230468777331345e+04  1.9121556226669891e+04  1.9121241556240595e+04  1.9120552354716703e+04  1.9119751336335336e+04  1.9118960155312070e+04  1.9118220078790659e+04  1.9117540940554671e+04  1.9116921410385334e+04  1.9116356534599334e+04  1.9115840552030069e+04  1.9115367937234631e+04  1.9114933747054405e+04  1.9114533688774798e+04  1.9114164081577779e+04  1.9113821783205218e+04  1.9113504111442933e+04  1.9113208771777008e+04  1.9112933794738095e+04  1.9112677483200627e+04  1.9112438368675885e+04  1.9112215175287594e+04  1.9112006790131312e+04  1.9111812238866532e+04  1.9111630665570643e+04  1.9111461316057481e+04  1.9111303524014202e+04  1.9111156699436055e+04  1.9111020318941260e+04  1.9110893917630270e+04  1.9110777082219793e+04  1.9110669445233838e+04  1.9110570680076245e+04  1.9110480496842054e+04  1.9110398638751954e+04  1.9110324879115327e+04  1.9110259018744797e+04  1.9110200883758946e+04  1.9110150323721809e+04  1.9110107210076552e+04  1.9110071434839101e+04  1.9110042909523618e+04  1.9110021564277577e+04  1.9110007347208633e+04  1.9110000223889943e+04  1.9110000177034071e+04  1.9110007206329094e+04  1.9110021328433773e+04  1.9110042577131560e+04  1.9110071003646415e+04  1.9110106677126514e+04  1.9110149685305289e+04  1.9110200135352945e+04  1.9110258154935651e+04  1.9110323893504090e+04  1.9110397523838954e+04  1.9110479243886799e+04  1.9110569278927611e+04  1.9110667884124392e+04  1.9110775347516374e+04  1.9110891993530659e+04  1.9111018187104084e+04  1.9111154338527278e+04  1.9111300909148544e+04  1.9111458418106664e+04  1.9111627450301065e+04  1.9111808665857141e+04  1.9112002811405058e+04  1.9112210733566695e+04  1.9112433395137170e+04  1.9112671894559637e+04  1.9112927489420246e+04  1.9113201624829966e+04  1.9113495967686307e+04  1.9113812447867185e+04  1.9114153307273351e+04  1.9114521157023868e+04  1.9114919041400546e+04  1.9115350502952526e+04  1.9115819633385283e+04  1.9116331072141129e+04  1.9116889861063199e+04  1.9117500934921212e+04  1.9118167722731901e+04  1.9118888706965598e+04  1.9119650141967384e+04  1.91204157