<?xml version="1.0"?>
<VTKFile type="UnstructuredGrid"  version="0.1"  >
<UnstructuredGrid>
<Piece  NumberOfPoints="21600" NumberOfCells="42542">
<Points>
<DataArray  type="Float64"  NumberOfComponents="3"  format="ascii">0 0 0  0.77 0 0  0.77 0.15 0  0 0.15 0  0.003221757322170014 0 0  0.006443514644340046 0 0  0.009665271966510193 0 0  0.01288702928868034 0 0  0.01610878661085048 0 0  0.01933054393302049 0 0  0.02255230125519027 0 0  0.02577405857735967 0 0  0.02899581589952872 0 0  0.03221757322169801 0 0  0.03543933054386744 0 0  0.03866108786603686 0 0  0.04188284518820627 0 0  0.0451046025103757 0 0  0.04832635983254521 0 0  0.05154811715471607 0 0  0.05476987447688695 0 0  0.05799163179905782 0 0  0.06121338912122846 0 0  0.06443514644339859 0 0  0.06765690376556875 0 0  0.0708786610877389 0 0  0.07410041840990904 0 0  0.0773221757320792 0 0  0.08054393305425039 0 0  0.08376569037642198 0 0  0.0869874476985936 0 0  0.09020920502076518 0 0  0.0934309623429339 0 0  0.0966527196651024 0 0  0.09987447698726967 0 0  0.1030962343094369 0 0  0.1063179916316041 0 0  0.1095397489537714 0 0  0.1127615062759386 0 0  0.1159832635981051 0 0  0.1192050209202709 0 0  0.1224267782424358 0 0  0.1256485355646001 0 0  0.1288702928867644 0 0  0.1320920502089288 0 0  0.1353138075310958 0 0  0.1385355648532632 0 0  0.1417573221754333 0 0  0.1449790794976035 0 0  0.1482008368197736 0 0  0.1514225941419428 0 0  0.1546443514641101 0 0  0.157866108786276 0 0  0.1610878661084403 0 0  0.1643096234306047 0 0  0.167531380752769 0 0  0.1707531380749333 0 0  0.1739748953970977 0 0  0.177196652719262 0 0  0.1804184100414264 0 0  0.1836401673635935 0 0  0.1868619246857611 0 0  0.1900836820079313 0 0  0.1933054393301014 0 0  0.1965271966522716 0 0  0.1997489539744406 0 0  0.2029707112966078 0 0  0.2061924686187736 0 0  0.209414225940938 0 0  0.2126359832631022 0 0  0.2158577405852666 0 0  0.219079497907431 0 0  0.2223012552295953 0 0  0.2255230125517597 0 0  0.2287447698739242 0 0  0.2319665271960914 0 0  0.2351882845182592 0 0  0.2384100418404293 0 0  0.2416317991625994 0 0  0.2448535564847696 0 0  0.2480753138069371 0 0  0.2512970711291014 0 0  0.2545188284512658 0 0  0.2577405857734302 0 0  0.2609623430955986 0 0  0.2641841004177688 0 0  0.2674058577399389 0 0  0.270627615062109 0 0  0.2738493723842792 0 0  0.2770711297064487 0 0  0.280292887028613 0 0  0.2835146443507774 0 0  0.2867364016729417 0 0  0.2899581589951061 0 0  0.2931799163172705 0 0  0.2964016736394348 0 0  0.2996234309615992 0 0  0.3028451882837672 0 0  0.3060669456059373 0 0  0.3092887029281075 0 0  0.3125104602502776 0 0  0.3157322175724478 0 0  0.3189539748946177 0 0  0.322175732216782 0 0  0.3253974895389464 0 0  0.3286192468611107 0 0  0.3318410041832751 0 0  0.3350627615054395 0 0  0.3382845188276038 0 0  0.3415062761497681 0 0  0.3447280334719325 0 0  0.3479497907940968 0 0  0.3511715481162612 0 0  0.3543933054384255 0 0  0.3576150627605947 0 0  0.3608368200827649 0 0  0.364058577404935 0 0  0.3672803347271051 0 0  0.3705020920492753 0 0  0.373723849371444 0 0  0.3769456066936084 0 0  0.3801673640157748 0 0  0.383389121337945 0 0  0.3866108786601209 0 0  0.3898326359823028 0 0  0.3930543933044846 0 0  0.3962761506266662 0 0  0.399497907948848 0 0  0.4027196652710298 0 0  0.4059414225932116 0 0  0.4091631799153934 0 0  0.4123849372375751 0 0  0.4156066945597569 0 0  0.4188284518819387 0 0  0.4220502092041222 0 0  0.4252719665263097 0 0  0.4284937238484974 0 0  0.4317154811706849 0 0  0.4349372384928725 0 0  0.4381589958150601 0 0  0.4413807531372476 0 0  0.4446025104594352 0 0  0.4478242677816181 0 0  0.4510460251037998 0 0  0.4542677824259815 0 0  0.4574895397481634 0 0  0.4607112970703451 0 0  0.4639330543925269 0 0  0.4671548117147087 0 0  0.4703765690368904 0 0  0.4735983263590722 0 0  0.4768200836812568 0 0  0.4800418410034444 0 0  0.483263598325632 0 0  0.4864853556478196 0 0  0.4897071129700028 0 0  0.4929288702921845 0 0  0.4961506276143663 0 0  0.4993723849365479 0 0  0.5025941422587239 0 0  0.5058158995809008 0 0  0.5090376569030826 0 0  0.5122594142252677 0 0  0.515481171547461 0 0  0.5187029288696494 0 0  0.5219246861918312 0 0  0.525146443514013 0 0  0.5283682008361947 0 0  0.5315899581583845 0 0  0.5348117154805778 0 0  0.5380334728027617 0 0  0.5412552301249435 0 0  0.5444769874471141 0 0  0.5476987447692853 0 0  0.550920502091467 0 0  0.5541422594136513 0 0  0.5573640167358447 0 0  0.560585774058034 0 0  0.5638075313802158 0 0  0.5670292887023975 0 0  0.5702510460245793 0 0  0.5734728033467682 0 0  0.5766945606689615 0 0  0.579916317991155 0 0  0.5831380753133483 0 0  0.5863598326355314 0 0  0.5895815899577131 0 0  0.5928033472798949 0 0  0.5960251046020785 0 0  0.5992468619242718 0 0  0.6024686192464619 0 0  0.6056903765686437 0 0  0.6089121338908206 0 0  0.6121338912129908 0 0  0.6153556485351673 0 0  0.618577405857349 0 0  0.6217991631795386 0 0  0.625020920501732 0 0  0.6282426778239159 0 0  0.6314644351460976 0 0  0.6346861924682795 0 0  0.6379079497904622 0 0  0.6411297071126555 0 0  0.6443514644348465 0 0  0.6475732217570283 0 0  0.650794979079206 0 0  0.6540167364013761 0 0  0.6572384937235518 0 0  0.6604602510457335 0 0  0.6636820083679225 0 0  0.6669037656901158 0 0  0.6701255230123004 0 0  0.6733472803344823 0 0  0.6765690376566641 0 0  0.6797907949788459 0 0  0.6830125523010393 0 0  0.686234309623231 0 0  0.6894560669454127 0 0  0.6926778242675914 0 0  0.6958995815897615 0 0  0.6991213389119363 0 0  0.7023430962341181 0 0  0.7055648535563062 0 0  0.7087866108784994 0 0  0.712008368200685 0 0  0.7152301255228668 0 0  0.7184518828450486 0 0  0.7216736401672305 0 0  0.724895397489423 0 0  0.7281171548116155 0 0  0.7313389121337973 0 0  0.7345606694559768 0 0  0.7377824267781468 0 0  0.7410041841003209 0 0  0.7442259414225026 0 0  0.7474476987446899 0 0  0.7506694560668832 0 0  0.7538912133890696 0 0  0.7571129707112513 0 0  0.760334728033433 0 0  0.7635564853556149 0 0  0.7667782426778067 0 0  0.77 0.001685393258423789 0  0.77 0.003370786516847669 0  0.77 0.005056179775271247 0  0.77 0.006741573033694517 0  0.77 0.008426966292117821 0  0.77 0.01011235955054176 0  0.77 0.01179775280896623 0  0.77 0.0134831460673904 0  0.77 0.01516853932581489 0  0.77 0.01685393258423891 0  0.77 0.01853932584266291 0  0.77 0.02022471910108589 0  0.77 0.02191011235950794 0  0.77 0.02359550561792999 0  0.77 0.02528089887635205 0  0.77 0.02696629213477411 0  0.77 0.02865168539319714 0  0.77 0.03033707865161956 0  0.77 0.03202247191004162 0  0.77 0.03370786516846367 0  0.77 0.03539325842688572 0  0.77 0.03707865168530778 0  0.77 0.03876404494372984 0  0.77 0.0404494382021519 0  0.77 0.04213483146057394 0  0.77 0.04382022471899601 0  0.77 0.04550561797741807 0  0.77 0.04719101123584013 0  0.77 0.04887640449426219 0  0.77 0.05056179775268425 0  0.77 0.0522471910111063 0  0.77 0.05393258426952837 0  0.77 0.05561797752795105 0  0.77 0.05730337078637505 0  0.77 0.05898876404479723 0  0.77 0.0606741573032193 0  0.77 0.06235955056164135 0  0.77 0.06404494382006341 0  0.77 0.06573033707848548 0  0.77 0.06741573033690752 0  0.77 0.06910112359532959 0  0.77 0.07078651685375165 0  0.77 0.0724719101121737 0  0.77 0.07415730337059653 0  0.77 0.07584269662902443 0  0.77 0.07752808988745429 0  0.77 0.07921348314588413 0  0.77 0.08089887640431678 0  0.77 0.08258426966274923 0  0.77 0.08426966292117907 0  0.77 0.08595505617960987 0  0.77 0.08764044943804362 0  0.77 0.08932584269647403 0  0.77 0.09101123595490389 0  0.77 0.09269662921333673 0  0.77 0.09438202247176901 0  0.77 0.09606741573019884 0  0.77 0.09775280898862983 0  0.77 0.09943820224706355 0  0.77 0.1011235955054938 0  0.77 0.1028089887639236 0  0.77 0.1044943820223567 0  0.77 0.1061797752807888 0  0.77 0.1078651685392186 0  0.77 0.1095505617976498 0  0.77 0.1112359550560835 0  0.77 0.1129213483145136 0  0.77 0.1146067415729456 0  0.77 0.1162921348313787 0  0.77 0.1179775280898085 0  0.77 0.1196629213482387 0  0.77 0.1213483146066724 0  0.77 0.1230337078651035 0  0.77 0.1247191011235322 0  0.77 0.1264044943819605 0  0.77 0.1280898876403903 0  0.77 0.1297752808988242 0  0.77 0.1314606741572554 0  0.77 0.1331460674156853 0  0.77 0.1348314606741154 0  0.77 0.1365168539325504 0  0.77 0.1382022471909802 0  0.77 0.13988764044941 0  0.77 0.1415730337078443 0  0.77 0.1432584269662752 0  0.77 0.144943820224705 0  0.77 0.1466292134831355 0  0.77 0.1483146067415701 0  0.7667782426778414 0.15 0  0.7635564853556813 0.15 0  0.7603347280335111 0.15 0  0.757112970711341 0.15 0  0.7538912133891708 0.15 0  0.7506694560670005 0.15 0  0.7474476987448303 0.15 0  0.7442259414226602 0.15 0  0.74100418410049 0.15 0  0.7377824267783197 0.15 0  0.7345606694561496 0.15 0  0.7313389121339794 0.15 0  0.7281171548118092 0.15 0  0.724895397489639 0.15 0  0.7216736401674688 0.15 0  0.7184518828452986 0.15 0  0.7152301255231284 0.15 0  0.7120083682009583 0.15 0  0.708786610878788 0.15 0  0.7055648535566178 0.15 0  0.7023430962344477 0.15 0  0.6991213389122775 0.15 0  0.6958995815901072 0.15 0  0.692677824267937 0.15 0  0.6894560669457669 0.15 0  0.6862343096235967 0.15 0  0.6830125523014264 0.15 0  0.6797907949792563 0.15 0  0.6765690376570861 0.15 0  0.6733472803349159 0.15 0  0.6701255230127456 0.15 0  0.6669037656905755 0.15 0  0.6636820083684053 0.15 0  0.6604602510462351 0.15 0  0.657238493724065 0.15 0  0.6540167364018947 0.15 0  0.6507949790797245 0.15 0  0.6475732217575543 0.15 0  0.644351464435384 0.15 0  0.6411297071132231 0.15 0  0.6379079497910645 0.15 0  0.634686192468906 0.15 0  0.6314644351467468 0.15 0  0.6282426778245765 0.15 0  0.6250209205024085 0.15 0  0.62179916318025 0.15 0  0.6185774058580914 0.15 0  0.6153556485359328 0.15 0  0.6121338912137689 0.15 0  0.6089121338915987 0.15 0  0.6056903765694354 0.15 0  0.6024686192472768 0.15 0  0.5992468619251182 0.15 0  0.5960251046029597 0.15 0  0.5928033472807912 0.15 0  0.589581589958621 0.15 0  0.5863598326364508 0.15 0  0.5831380753142792 0.15 0  0.5799163179920974 0.15 0  0.57669456
[...]
<PointData  Scalars="pressure"> 
<DataArray  type="Float64"  Name="pressure"  format="ascii">1.1958824361244320e+04  4.0549110807255029e-01  -3.0042996156309898e-01  1.1944450640172099e+04  1.1820214861948816e+04  1.1711483179262772e+04  1.1603723128857457e+04  1.1496287500617760e+04  1.1389219889463498e+04  1.1282385851016523e+04  1.1175708408843300e+04  1.1069143368197996e+04  1.0962662221455268e+04  1.0856245515198920e+04  1.0749879426732070e+04  1.0643553803863149e+04  1.0537260987713385e+04  1.0430995072143252e+04  1.0324751418865508e+04  1.0218526329126780e+04  1.0112316814910004e+04  1.0006120435453031e+04  9.8999351778464224e+03  9.7937593681140825e+03  9.6875916038355972e+03  9.5814307022871708e+03  9.4752756599560380e+03  9.3691256205195150e+03  9.2629798492106056e+03  9.1568377120610276e+03  9.0506986589079079e+03  8.9445622093305356e+03  8.8384279408831317e+03  8.7322954791337979e+03  8.6261644891263186e+03  8.5200346679565391e+03  8.4139057382129013e+03  8.3077774420697442e+03  8.2016495358505399e+03  8.0955217848956900e+03  7.9893939585781663e+03  7.8832658253108530e+03  7.7771371473803656e+03  7.6710076754237452e+03  7.5648771423332255e+03  7.4587452563272391e+03  7.3526116928577449e+03  7.2464760849239674e+03  7.1403380112227305e+03  7.0341969813578771e+03  6.9280524170334447e+03  6.8219036277096047e+03  6.7157497785312371e+03  6.6095898473086536e+03  6.5034225657242332e+03  6.3972463373925420e+03  6.2910591210391585e+03  6.1848582590015094e+03  6.0786402189688224e+03  5.9724002051485304e+03  5.8661315496209154e+03  5.7598245185071528e+03  5.6534637703548951e+03  5.5470255683054820e+03  5.4404819276113076e+03  5.3337837681551855e+03  5.2266572892100121e+03  5.1181930633586271e+03  5.0040088292972659e+03  3.5693272328515291e+03  3.4993605921599637e+03  3.4297382990053343e+03  3.3769540060693962e+03  3.3605520567846779e+03  3.3401200419217939e+03  3.3199944624261884e+03  3.2999792738214014e+03  3.2800065989424916e+03  3.2600600428039147e+03  3.2401305893615408e+03  3.2202128643329952e+03  3.2003035518060146e+03  3.1804004823847235e+03  3.1605021704699957e+03  3.1406075622956396e+03  3.1207158886299981e+03  3.1008265743263119e+03  3.0809391805373357e+03  3.0610533665439261e+03  3.0411688638106566e+03  3.0212854579108571e+03  3.0014029756579512e+03  2.9815212757657000e+03  2.9616402419516157e+03  2.9417597777648152e+03  2.9218798026520285e+03  2.9020002489266312e+03  2.8821210594057620e+03  2.8622421855483685e+03  2.8423635859732062e+03  2.8224852252685341e+03  2.8026070730280444e+03  2.7827291030639708e+03  2.7628512927602792e+03  2.7429736225374127e+03  2.7230960754070120e+03  2.7032186365991920e+03  2.6833412932491628e+03  2.6634640341325312e+03  2.6435868494408114e+03  2.6237097305903526e+03  2.6038326700591606e+03  2.5839556612471119e+03  2.5640786983559037e+03  2.5442017762856658e+03  2.5243248905458377e+03  2.5044480371780046e+03  2.4845712126890953e+03  2.4646944139934494e+03  2.4448176383624786e+03  2.4249408833808538e+03  2.4050641469082784e+03  2.3851874270462963e+03  2.3653107221092014e+03  2.3454340305986575e+03  2.3255573511815110e+03  2.3056806826702682e+03  2.2858040240060905e+03  2.2659273742438522e+03  2.2460507325390222e+03  2.2261740981361449e+03  2.2062974703587174e+03  2.1864208486002772e+03  2.1665442323165685e+03  2.1466676210186242e+03  2.1267910142666842e+03  2.1069144116648667e+03  2.0870378128563707e+03  2.0671612175193050e+03  2.0472846253629900e+03  2.0274080361246790e+03  2.0075314495666626e+03  1.9876548654737232e+03  1.9677782836507804e+03  1.9479017039209336e+03  1.9280251261236549e+03  1.9081485501131979e+03  1.8882719757571656e+03  1.8683954029352592e+03  1.8485188315381492e+03  1.8286422614664764e+03  1.8087656926299435e+03  1.7888891249465532e+03  1.7690125583419040e+03  1.7491359927485171e+03  1.7292594281053268e+03  1.7093828643570969e+03  1.6895063014540342e+03  1.6696297393513896e+03  1.6497531780091292e+03  1.6298766173915142e+03  1.6100000574669139e+03  1.5901234982075769e+03  1.5702469395893513e+03  1.5503703815916374e+03  1.5304938241970578e+03  1.5106172673913295e+03  1.4907407111632406e+03  1.4708641555044660e+03  1.4509876004096134e+03  1.4311110458761395e+03  1.4112344919041323e+03  1.3913579384965005e+03  1.3714813856587450e+03  1.3516048333990884e+03  1.3317282817286011e+03  1.3118517306610277e+03  1.2919751802130456e+03  1.2720986304041448e+03  1.2522220812566927e+03  1.2323455327961340e+03  1.2124689850510074e+03  1.1925924380531656e+03  1.1727158918378577e+03  1.1528393464438454e+03  1.1329628019136524e+03  1.1130862582935702e+03  1.0932097156340255e+03  1.0733331739897521e+03  1.0534566334199992e+03  1.0335800939889627e+03  1.0137035557659032e+03  9.9382701882545825e+02  9.7395048324807715e+02  9.5407394912028383e+02  9.3419741653527194e+02  9.1432088559326201e+02  8.9444435640208121e+02  8.7456782907774266e+02  8.5469130374490430e+02  8.3481478053773310e+02  8.1493825960068295e+02  7.9506174108933692e+02  7.7518522517163001e+02  7.5530871202885635e+02  7.3543220185699090e+02  7.1555569486839534e+02  6.9567919129351037e+02  6.7580269138320568e+02  6.5592619541127078e+02  6.3604970367751594e+02  6.1617321651149234e+02  5.9629673427677039e+02  5.7642025737649908e+02  5.5654378626004745e+02  5.3666732143112404e+02  5.1679086345818587e+02  4.9691441298701324e+02  4.7703797075673242e+02  4.5716153762042882e+02  4.3728511457117929e+02  4.1740870277615778e+02  3.9753230362094598e+02  3.7765591876815392e+02  3.5777955023596354e+02  3.3790320050444939e+02  3.1802687266242299e+02  2.9815057061323449e+02  2.7827429936898579e+02  2.5839806548121163e+02  2.3852187768698636e+02  2.1864574790852114e+02  1.9876969285551272e+02  1.7889373670307620e+02  1.5901791580896329e+02  1.3914228756337266e+02  1.1926694794212973e+02  9.9392070795726923e+01  7.9518049650769655e+01  5.9645944673985845e+01  3.9775655285832464e+01  1.9905395068735622e+01  8.4075679726224706e-02  4.3198869377683935e-03  9.2468853652622396e-04  5.6852751001431874e-04  3.2495011880158815e-04  1.9100642832820558e-04  1.1944325593358447e-04  7.8883946028677891e-05  5.4501031182998213e-05  3.9092427477355120e-05  2.8932593289184911e-05  2.1986342419810079e-05  1.7087691065433662e-05  1.3539829550098695e-05  1.0910488704817395e-05  8.9225177576414484e-06  7.3929647221599274e-06  6.1978992332767702e-06  5.2514204964085274e-06  4.4927532466034225e-06  3.8781004467655368e-06  3.3753734747459205e-06  2.9607079827725426e-06  2.6161141534991330e-06  2.3278629293068943e-06  2.0853592402251756e-06  1.8803432289708430e-06  1.7063160301176241e-06  1.5581217244343718e-06  1.4316392862918748e-06  1.3235532070450906e-06  1.2311809618675397e-06  1.1523420439447305e-06  1.0852577724248562e-06  1.0284740427680599e-06  9.8080150109980805e-07  9.4126885556363318e-07  9.0908646958471494e-07  8.8361783685982050e-07  8.6435734003019120e-07  8.5091304422807936e-07  8.4299351208033312e-07  8.4039803558880405e-07  8.4300971197545869e-07  8.5079104565554568e-07  8.6378181846505465e-07  8.8209911244862756e-07  9.0593946522415731e-07  9.3558319769003700e-07  9.7140109589824517e-07  1.0138636951656056e-06  1.0635535322286064e-06  1.1211809533106356e-06  1.1876040874311150e-06  1.2638539847218282e-06  1.3511660686146815e-06  1.4510194864368885e-06  1.5651864359670485e-06  1.6957940932962102e-06  1.8454027385611919e-06  2.0171046791735887e-06  2.2146502640017082e-06  2.4426092179279657e-06  2.7065784862218169e-06  3.0134517183638617e-06  3.3717709478264888e-06  3.7921885702521385e-06  4.2880782230086931e-06  4.8763477910097168e-06  5.5785276546617849e-06  6.4222346573241959e-06  7.4431481030972263e-06  8.6876787583105012e-06  1.0216560620906572e-05  1.2109630016292642e-05  1.4472025912910221e-05  1.7441815598550815e-05  2.1198299507903473e-05  2.5968296211808682e-05  3.2023792456348814e-05  3.9662825488977217e-05  4.9212636657914142e-05  6.1709133650642353e-05  9.1607374166655347e-05  3.6482715111025454e-04  3.3469963188753867e-03  2.3683373332388968e-02  1.3918325624028087e-02  1.9712063469415686e+01  3.9716790953564832e+01  5.9604592855259440e+01  7.9486587669822455e+01  9.9367113914526001e+01  1.1924633750093707e+02  1.3912479628063022e+02  1.5900278334629542e+02  1.7888045583708961e+02  1.9875790782309099e+02  2.1863519921553055e+02  2.3851236992348964e+02  2.5838944754904037e+02  2.7826645179040281e+02  2.9814339708236696e+02  3.1802029424560067e+02  3.3789715155314036e+02  3.5777397544083328e+02  3.7765077099301158e+02  3.9752754228212137e+02  4.1740429261104083e+02  4.3728102468907599e+02  4.5715774076183152e+02  4.7703444270844318e+02  4.9691113211531052e+02  5.1678781033268183e+02  5.3666447851853832e+02  5.5654113767297645e+02  5.7641778866538846e+02  5.9629443225612761e+02  6.1617106911392420e+02  6.3604769982998243e+02  6.5592432492947671e+02  6.7580094488098212e+02  6.9567756010427172e+02  7.1555417097679504e+02  7.3543077783908950e+02  7.5530738099933899e+02  7.7518398073722324e+02  7.9506057730713530e+02  8.1493717094113538e+02  8.3481376185122429e+02  8.5469035023144181e+02  8.7456693625972650e+02  8.9444352009928673e+02  9.1432010190014648e+02  9.3419668180041856e+02  9.5407325992720769e+02  9.7394983639764075e+02  9.9382641131964078e+02  1.0137029847926144e+03  1.0335795569082964e+03  1.0534561277512671e+03  1.0733326973994458e+03  1.0932092659246593e+03  1.1130858333929079e+03  1.1329623998649040e+03  1.1528389653964105e+03  1.1727155300385850e+03  1.1925920938381128e+03  1.2124686568376399e+03  1.2323452190759297e+03  1.2522217805881130e+03  1.2720983414059301e+03  1.2919749015578070e+03  1.3118514610690033e+03  1.3317280199618717e+03  1.3516045782559227e+03  1.3714811359679061e+03  1.3913576931119999e+03  1.4112342496997110e+03  1.4311108057400697e+03  1.4509873612398385e+03  1.4708639162033776e+03  1.4907404706327702e+03  1.5106170245278583e+03  1.5304935778861627e+03  1.5503701307030935e+03  1.5702466829719854e+03  1.5901232346839531e+03  1.6099997858280183e+03  1.6298763363910502e+03  1.6497528863577813e+03  1.6696294357110012e+03  1.6895059844314185e+03  1.7093825324976947e+03  1.7292590798864796e+03  1.7491356265725244e+03  1.7690121725286506e+03  1.7888887177258478e+03  1.8087652621333598e+03  1.8286418057187993e+03  1.8485183484482893e+03  1.8683948902866587e+03  1.8882714311976065e+03  1.9081479711440004e+03  1.9280245100882175e+03  1.9479010479925305e+03  1.9677775848195849e+03  1.9876541205329436e+03  2.0075306550978710e+03  2.0274071884820594e+03  2.0472837206566280e+03  2.0671602515972768e+03  2.0870367812856516e+03  2.1069133097109393e+03  2.1267898368717470e+03  2.1466663627783128e+03  2.1665428874550807e+03  2.1864194109437190e+03  2.2062959333066638e+03  2.2261724546311339e+03  2.2460489750339739e+03  2.2659254946671822e+03  2.2858020137243511e+03  2.3056785324481261e+03  2.3255550511388769e+03  2.3454315701648125e+03  2.3653080899735360e+03  2.3851846111055547e+03  2.4050611342098800e+03  2.4249376600620762e+03  2.4448141895852377e+03  2.4646907238741792e+03  2.4845672642234654e+03  2.5044438121598782e+03  2.5243203694800400e+03  2.5441969382940192e+03  2.5640735210759308e+03  2.5839501207226963e+03  2.6038267406223472e+03  2.6237033847335315e+03  2.6435800576781699e+03  2.6634567648497687e+03  2.6833335125401122e+03  2.7032103080879142e+03  2.7230871600536875e+03  2.7429640784261092e+03  2.7628410748663714e+03  2.7827181629987808e+03  2.8025953587576391e+03  2.8224726808035857e+03  2.8423501510259721e+03  2.8622277951526994e+03  2.8821056434955149e+03  2.9019837318675091e+03  2.9218621027217614e+03  2.9417408065768745e+03  2.9616199038188088e+03  2.9814994670023129e+03  3.0013795838240053e+03  3.0212603610108090e+03  3.0411419294747766e+03  3.0610244512480217e+03  3.0809081289648748e+03  3.1007932190601218e+03  3.1206800505065212e+03  3.1405690520088783e+03  3.1604607924601451e+03  3.1803560428332462e+03  3.2002558739258739e+03  3.2201618164572833e+03  3.2400761343103177e+03  3.2600023117985916e+03  3.2799459772491773e+03  3.2999168591255916e+03  3.3199318882767466e+03  3.3400058176622924e+03  3.3601970541111532e+03  3.3826437479545225e+03  3.4181988774790498e+03  3.4940070904189920e+03  4.9013869208852802e+03  5.0138805574410853e+03  5.1214722768251631e+03  5.2283838869078527e+03  5.3349772163243470e+03  5.4414431708174961e+03  5.5478192465285811e+03  5.6541308602540848e+03  5.7603977479053710e+03  5.8666325841941734e+03  5.9728435080576310e+03  6.0790361335691941e+03  6.1852145127400363e+03  6.2913816364524546e+03  6.3975397574938052e+03  6.5036906068812259e+03  6.6098355382155823e+03  6.7159756262535457e+03  6.8221117362160740e+03  6.9282445736310783e+03  7.0343747208700524e+03  7.1405026644270556e+03  7.2466288156562277e+03  7.3527535268187121e+03  7.4588771037224278e+03  7.5649998158686822e+03  7.6711219047626973e+03  7.7772435908704965e+03  7.8833650795891690e+03  7.9894865665075586e+03  8.0956082421789451e+03  8.2017302965897343e+03  8.3078529234757643e+03  8.4139763246284219e+03  8.5201007143194747e+03  8.6262263239754848e+03  8.7323534072398616e+03  8.8384822455696994e+03  8.9446131545410790e+03  9.0507464910647814e+03  9.1568826617550349e+03  9.2630221327577474e+03  9.3691654414172608e+03  9.4753132102696873e+03  9.5814661640015202e+03  9.6876251502077303e+03  9.7937911650738315e+03  9.8999653855029428e+03  1.0006149209786932e+04  1.0112344309766131e+04  1.0218552698675216e+04  1.0324776820790637e+04  1.0431019671974391e+04  1.0537284964974304e+04  1.0643577361202140e+04  1.0749902804094767e+04  1.0856269012885070e+04  1.0962686239593195e+04  1.1069168478172196e+04  1.1175735492678399e+04  1.1282416411403774e+04  1.1389256681643117e+04  1.1496334604888176e+04  1.1603794836364830e+04  1.1711776506238944e+04  1.1821010083464560e+04  1.1932101408207502e+04  1.1927131669261114e+04  1.1924648464694184e+04  1.1922993579919068e+04  1.1921717120618570e+04  1.1920673707786063e+04  1.1919794149570673e+04  1.1919036539292176e+04  1.1918373108307273e+04  1.1917784615211251e+04  1.1917257248117816e+04  1.1916780782932939e+04  1.1916347449598021e+04  1.1915951209973906e+04  1.1915587282070081e+04  1.1915251816751635e+04  1.1914941672018425e+04  1.1914654251631435e+04  1.1914387387319179e+04  1.1914139251201072e+04  1.1913908289603949e+04  1.1913693172310655e+04  1.1913492753128983e+04  1.1913306038892306e+04  1.1913132164828068e+04  1.1912970374796494e+04  1.1912820005298203e+04  1.1912680472430029e+04  1.1912551261170187e+04  1.1912431916521755e+04  1.1912322036151643e+04  1.1912221264243712e+04  1.1912129286345706e+04  1.1912045825036461e+04  1.1911970636275570e+04  1.1911903506325778e+04  1.1911844249160056e+04  1.1911792704282707e+04  1.1911748734907649e+04  1.1911712226448217e+04  1.1911683085282022e+04  1.1911661237761818e+04  1.1911646629449906e+04  1.1911639224559016e+04  1.1911639005587365e+04  1.1911645973140108e+04  1.1911660145933285e+04  1.1911681560980483e+04  1.1911710273966191e+04  1.1911746359814073e+04  1.1911789913462673e+04  1.1911841050865969e+04  1.1911899910241737e+04  1.1911966653597261e+04  1.1912041468569450e+04  1.1912124570625880e+04  1.1912216205684617e+04  1.1912316653224765e+04  1.1912426229977507e+04  1.1912545294309601e+04  1.1912674251440127e+04  1.1912813559667924e+04  1.1912963737835486e+04  1.1913125374317946e+04  1.1913299137909886e+04  1.1913485791095472e+04  1.1913686206340290e+04  1.1913901386254263e+04  1.1914132488768590e+04  1.1914380858885337e+04  1.1914648069155515e+04  1.1914935971914547e+04  1.1915246767605136e+04  1.1915583095496248e+04  1.1915948156186450e+04  1.1916345880196115e+04  1.1916781165029153e+04  1.1917260216791086e+04  1.1917791056591193e+04  1.1918384296060512e+04  1.1919054367966794e+04  1.1919821537696916e+04  1.1920715183744609e+04  1.1921778782438198e+04  1.1923077535199587e+04  1.1924730027698361e+04  1.1927189476401792e+04  1.1933268032962293e+04  1.1822248748632021e+04  1.1820292896664536e+04  1.1818425339252537e+04  1.1816955574461153e+04  1.1815771778987895e+04  1.1814785080393789e+04  1.1813942207788668e+04  1.1813209258446088e+04  1.1812563071248458e+04  1.1811987086625548e+04  1.1811469088519152e+04  1.1810999836973479e+04  1.1810572192176462e+04  1.1810180533699573e+04  1.1809820364825478e+04  1.1809488036391804e+04  1.1809180549806222e+04  1.1808895413749849e+04  1.1808630538076732e+04  1.1808384153991221e+04  1.1808154753122781e+04  1.1807941040412705e+04  1.1807741897246662e+04  1.1807556352291907e+04  1.1807383558201274e+04  1.1807222772836742e+04  1.1807073344012302e+04  1.1806934697005019e+04  1.1806806324264086e+04  1.1806687776880803e+04  1.1806578657481359e+04  1.1806478614278718e+04  1.1806387336076259e+04  1.1806304548059188e+04  1.1806230008243179e+04  1.1806163504475677e+04  1.1806104851906048e+04  1.1806053890856911e+04  1.1806010485042196e+04  1.1805974520088010e+04  1.1805945902321180e+04  1.1805924557797469e+04  1.1805910431547713e+04  1.1805903487025191e+04  1.1805903705742392e+04  1.1805911087089322e+04  1.1805925648329481e+04  1.1805947424773425e+04  1.1805976470133504e+04  1.1806012857067230e+04  1.1806056677921037e+04  1.1806108045690520e+04  1.1806167095218674e+04  1.1806233984659530e+04  1.1806308897241657e+04  1.1806392043374861e+04  1.1806483663153269e+04  1.1806584029321415e+04  1.1806693450785431e+04  1.1806812276771738e+04  1.1806940901761009e+04  1.1807079771357694e+04  1.1807229389297325e+04  1.1807390325848612e+04  1.1807563227939128e+04  1.1807748831428831e+04  1.1807947976083600e+04  1.1808161623974536e+04  1.1808390882266771e+04  1.1808637031691962e+04  1.1808901562464147e+04  1.1809186220062593e+04  1.1809493064268749e+04  1.1809824546264033e+04  1.1810183610726417e+04  1.1810573833124410e+04  1.1810999607499976e+04  1.1811466408167724e+04  1.1811981162101403e+04  1.1812552791504932e+04  1.1813193027210380e+04  1.1813917673362086e+04  1.1814748646155149e+04  1.1815717113951192e+04  1.1816865766716566e+04  1.1818231204967749e+04  1.1819713866110413e+04  1.1820616378023302e+04  1.1711688985230187e+04  1.1711374331071780e+04  1.1710685157905084e+04  1.1709884179932234e+04  1.1709093051282607e+04  1.1708353038988034e+04  1.1707673976695527e+04  1.1707054534025430e+04  1.1706489757109643e+04  1.1705973884573445e+04  1.1705501390743158e+04  1.1705067332207538e+04  1.1704667415978320e+04  1.1704297960943606e+04  1.1703955824532251e+04  1.1703638324198886e+04  1.1703343165081276e+04  1.1703068377345764e+04  1.1702812263487634e+04  1.1702573354625418e+04  1.1702350374477608e+04  1.1702142209723423e+04  1.1701947885596117e+04  1.1701766545738243e+04  1.1701597435521524e+04  1.1701439888184999e+04  1.1701293313271144e+04  1.1701157186942011e+04  1.1701031043839830e+04  1.1700914470222249e+04  1.1700807098154675e+04  1.1700708600584003e+04  1.1700618687151191e+04  1.1700537100626882e+04  1.1700463613875554e+04  1.1700398027271120e+04  1.1700340166500737e+04  1.1700289880705193e+04  1.1700247040913575e+04  1.1700211538737722e+04  1.1700183285298539e+04  1.1700162210361757e+04  1.1700148261665538e+04  1.1700141404426364e+04  1.1700141621013479e+04  1.1700148910785501e+04  1.1700163290085962e+04  1.1700184792397651e+04  1.1700213468658707e+04  1.1700249387746469e+04  1.1700292637138728e+04  1.1700343323765213e+04  1.1700401575066771e+04  1.1700467540283889e+04  1.1700541392002024e+04  1.1700623327987243e+04  1.1700713573353514e+04  1.1700812383111999e+04  1.1700920045163894e+04  1.1701036883811637e+04  1.1701163263880304e+04  1.1701299595561168e+04  1.1701446340115021e+04  1.1701604016604399e+04  1.1701773209863151e+04  1.1701954579961077e+04  1.1702148873482154e+04  1.1702356937010667e+04  1.1702579733312201e+04  1.1702818360807609e+04  1.1703074077067346e+04  1.1703348327192540e+04  1.1703642778076044e+04  1.1703959359595625e+04  1.1704300313655682e+04  1.1704668251382096e+04  1.1705066217066007e+04  1.1705497753267813e+04  1.1705966951705597e+04  1.1706478451835070e+04  1.1707037295513052e+04  1.1707648417522789e+04  1.1708315246893993e+04  1.1709036266109057e+04  1.1709797729524002e+04  1.17105633