<?xml version="1.0"?>
<VTKFile type="UnstructuredGrid"  version="0.1"  >
<UnstructuredGrid>
<Piece  NumberOfPoints="21600" NumberOfCells="42542">
<Points>
<DataArray  type="Float64"  NumberOfComponents="3"  format="ascii">0 0 0  0.77 0 0  0.77 0.15 0  0 0.15 0  0.003221757322170014 0 0  0.006443514644340046 0 0  0.009665271966510193 0 0  0.01288702928868034 0 0  0.01610878661085048 0 0  0.01933054393302049 0 0  0.02255230125519027 0 0  0.02577405857735967 0 0  0.02899581589952872 0 0  0.03221757322169801 0 0  0.03543933054386744 0 0  0.03866108786603686 0 0  0.04188284518820627 0 0  0.0451046025103757 0 0  0.04832635983254521 0 0  0.05154811715471607 0 0  0.05476987447688695 0 0  0.05799163179905782 0 0  0.06121338912122846 0 0  0.06443514644339859 0 0  0.06765690376556875 0 0  0.0708786610877389 0 0  0.07410041840990904 0 0  0.0773221757320792 0 0  0.08054393305425039 0 0  0.08376569037642198 0 0  0.0869874476985936 0 0  0.09020920502076518 0 0  0.0934309623429339 0 0  0.0966527196651024 0 0  0.09987447698726967 0 0  0.1030962343094369 0 0  0.1063179916316041 0 0  0.1095397489537714 0 0  0.1127615062759386 0 0  0.1159832635981051 0 0  0.1192050209202709 0 0  0.1224267782424358 0 0  0.1256485355646001 0 0  0.1288702928867644 0 0  0.1320920502089288 0 0  0.1353138075310958 0 0  0.1385355648532632 0 0  0.1417573221754333 0 0  0.1449790794976035 0 0  0.1482008368197736 0 0  0.1514225941419428 0 0  0.1546443514641101 0 0  0.157866108786276 0 0  0.1610878661084403 0 0  0.1643096234306047 0 0  0.167531380752769 0 0  0.1707531380749333 0 0  0.1739748953970977 0 0  0.177196652719262 0 0  0.1804184100414264 0 0  0.1836401673635935 0 0  0.1868619246857611 0 0  0.1900836820079313 0 0  0.1933054393301014 0 0  0.1965271966522716 0 0  0.1997489539744406 0 0  0.2029707112966078 0 0  0.2061924686187736 0 0  0.209414225940938 0 0  0.2126359832631022 0 0  0.2158577405852666 0 0  0.219079497907431 0 0  0.2223012552295953 0 0  0.2255230125517597 0 0  0.2287447698739242 0 0  0.2319665271960914 0 0  0.2351882845182592 0 0  0.2384100418404293 0 0  0.2416317991625994 0 0  0.2448535564847696 0 0  0.2480753138069371 0 0  0.2512970711291014 0 0  0.2545188284512658 0 0  0.2577405857734302 0 0  0.2609623430955986 0 0  0.2641841004177688 0 0  0.2674058577399389 0 0  0.270627615062109 0 0  0.2738493723842792 0 0  0.2770711297064487 0 0  0.280292887028613 0 0  0.2835146443507774 0 0  0.2867364016729417 0 0  0.2899581589951061 0 0  0.2931799163172705 0 0  0.2964016736394348 0 0  0.2996234309615992 0 0  0.3028451882837672 0 0  0.3060669456059373 0 0  0.3092887029281075 0 0  0.3125104602502776 0 0  0.3157322175724478 0 0  0.3189539748946177 0 0  0.322175732216782 0 0  0.3253974895389464 0 0  0.3286192468611107 0 0  0.3318410041832751 0 0  0.3350627615054395 0 0  0.3382845188276038 0 0  0.3415062761497681 0 0  0.3447280334719325 0 0  0.3479497907940968 0 0  0.3511715481162612 0 0  0.3543933054384255 0 0  0.3576150627605947 0 0  0.3608368200827649 0 0  0.364058577404935 0 0  0.3672803347271051 0 0  0.3705020920492753 0 0  0.373723849371444 0 0  0.3769456066936084 0 0  0.3801673640157748 0 0  0.383389121337945 0 0  0.3866108786601209 0 0  0.3898326359823028 0 0  0.3930543933044846 0 0  0.3962761506266662 0 0  0.399497907948848 0 0  0.4027196652710298 0 0  0.4059414225932116 0 0  0.4091631799153934 0 0  0.4123849372375751 0 0  0.4156066945597569 0 0  0.4188284518819387 0 0  0.4220502092041222 0 0  0.4252719665263097 0 0  0.4284937238484974 0 0  0.4317154811706849 0 0  0.4349372384928725 0 0  0.4381589958150601 0 0  0.4413807531372476 0 0  0.4446025104594352 0 0  0.4478242677816181 0 0  0.4510460251037998 0 0  0.4542677824259815 0 0  0.4574895397481634 0 0  0.4607112970703451 0 0  0.4639330543925269 0 0  0.4671548117147087 0 0  0.4703765690368904 0 0  0.4735983263590722 0 0  0.4768200836812568 0 0  0.4800418410034444 0 0  0.483263598325632 0 0  0.4864853556478196 0 0  0.4897071129700028 0 0  0.4929288702921845 0 0  0.4961506276143663 0 0  0.4993723849365479 0 0  0.5025941422587239 0 0  0.5058158995809008 0 0  0.5090376569030826 0 0  0.5122594142252677 0 0  0.515481171547461 0 0  0.5187029288696494 0 0  0.5219246861918312 0 0  0.525146443514013 0 0  0.5283682008361947 0 0  0.5315899581583845 0 0  0.5348117154805778 0 0  0.5380334728027617 0 0  0.5412552301249435 0 0  0.5444769874471141 0 0  0.5476987447692853 0 0  0.550920502091467 0 0  0.5541422594136513 0 0  0.5573640167358447 0 0  0.560585774058034 0 0  0.5638075313802158 0 0  0.5670292887023975 0 0  0.5702510460245793 0 0  0.5734728033467682 0 0  0.5766945606689615 0 0  0.579916317991155 0 0  0.5831380753133483 0 0  0.5863598326355314 0 0  0.5895815899577131 0 0  0.5928033472798949 0 0  0.5960251046020785 0 0  0.5992468619242718 0 0  0.6024686192464619 0 0  0.6056903765686437 0 0  0.6089121338908206 0 0  0.6121338912129908 0 0  0.6153556485351673 0 0  0.618577405857349 0 0  0.6217991631795386 0 0  0.625020920501732 0 0  0.6282426778239159 0 0  0.6314644351460976 0 0  0.6346861924682795 0 0  0.6379079497904622 0 0  0.6411297071126555 0 0  0.6443514644348465 0 0  0.6475732217570283 0 0  0.650794979079206 0 0  0.6540167364013761 0 0  0.6572384937235518 0 0  0.6604602510457335 0 0  0.6636820083679225 0 0  0.6669037656901158 0 0  0.6701255230123004 0 0  0.6733472803344823 0 0  0.6765690376566641 0 0  0.6797907949788459 0 0  0.6830125523010393 0 0  0.686234309623231 0 0  0.6894560669454127 0 0  0.6926778242675914 0 0  0.6958995815897615 0 0  0.6991213389119363 0 0  0.7023430962341181 0 0  0.7055648535563062 0 0  0.7087866108784994 0 0  0.712008368200685 0 0  0.7152301255228668 0 0  0.7184518828450486 0 0  0.7216736401672305 0 0  0.724895397489423 0 0  0.7281171548116155 0 0  0.7313389121337973 0 0  0.7345606694559768 0 0  0.7377824267781468 0 0  0.7410041841003209 0 0  0.7442259414225026 0 0  0.7474476987446899 0 0  0.7506694560668832 0 0  0.7538912133890696 0 0  0.7571129707112513 0 0  0.760334728033433 0 0  0.7635564853556149 0 0  0.7667782426778067 0 0  0.77 0.001685393258423789 0  0.77 0.003370786516847669 0  0.77 0.005056179775271247 0  0.77 0.006741573033694517 0  0.77 0.008426966292117821 0  0.77 0.01011235955054176 0  0.77 0.01179775280896623 0  0.77 0.0134831460673904 0  0.77 0.01516853932581489 0  0.77 0.01685393258423891 0  0.77 0.01853932584266291 0  0.77 0.02022471910108589 0  0.77 0.02191011235950794 0  0.77 0.02359550561792999 0  0.77 0.02528089887635205 0  0.77 0.02696629213477411 0  0.77 0.02865168539319714 0  0.77 0.03033707865161956 0  0.77 0.03202247191004162 0  0.77 0.03370786516846367 0  0.77 0.03539325842688572 0  0.77 0.03707865168530778 0  0.77 0.03876404494372984 0  0.77 0.0404494382021519 0  0.77 0.04213483146057394 0  0.77 0.04382022471899601 0  0.77 0.04550561797741807 0  0.77 0.04719101123584013 0  0.77 0.04887640449426219 0  0.77 0.05056179775268425 0  0.77 0.0522471910111063 0  0.77 0.05393258426952837 0  0.77 0.05561797752795105 0  0.77 0.05730337078637505 0  0.77 0.05898876404479723 0  0.77 0.0606741573032193 0  0.77 0.06235955056164135 0  0.77 0.06404494382006341 0  0.77 0.06573033707848548 0  0.77 0.06741573033690752 0  0.77 0.06910112359532959 0  0.77 0.07078651685375165 0  0.77 0.0724719101121737 0  0.77 0.07415730337059653 0  0.77 0.07584269662902443 0  0.77 0.07752808988745429 0  0.77 0.07921348314588413 0  0.77 0.08089887640431678 0  0.77 0.08258426966274923 0  0.77 0.08426966292117907 0  0.77 0.08595505617960987 0  0.77 0.08764044943804362 0  0.77 0.08932584269647403 0  0.77 0.09101123595490389 0  0.77 0.09269662921333673 0  0.77 0.09438202247176901 0  0.77 0.09606741573019884 0  0.77 0.09775280898862983 0  0.77 0.09943820224706355 0  0.77 0.1011235955054938 0  0.77 0.1028089887639236 0  0.77 0.1044943820223567 0  0.77 0.1061797752807888 0  0.77 0.1078651685392186 0  0.77 0.1095505617976498 0  0.77 0.1112359550560835 0  0.77 0.1129213483145136 0  0.77 0.1146067415729456 0  0.77 0.1162921348313787 0  0.77 0.1179775280898085 0  0.77 0.1196629213482387 0  0.77 0.1213483146066724 0  0.77 0.1230337078651035 0  0.77 0.1247191011235322 0  0.77 0.1264044943819605 0  0.77 0.1280898876403903 0  0.77 0.1297752808988242 0  0.77 0.1314606741572554 0  0.77 0.1331460674156853 0  0.77 0.1348314606741154 0  0.77 0.1365168539325504 0  0.77 0.1382022471909802 0  0.77 0.13988764044941 0  0.77 0.1415730337078443 0  0.77 0.1432584269662752 0  0.77 0.144943820224705 0  0.77 0.1466292134831355 0  0.77 0.1483146067415701 0  0.7667782426778414 0.15 0  0.7635564853556813 0.15 0  0.7603347280335111 0.15 0  0.757112970711341 0.15 0  0.7538912133891708 0.15 0  0.7506694560670005 0.15 0  0.7474476987448303 0.15 0  0.7442259414226602 0.15 0  0.74100418410049 0.15 0  0.7377824267783197 0.15 0  0.7345606694561496 0.15 0  0.7313389121339794 0.15 0  0.7281171548118092 0.15 0  0.724895397489639 0.15 0  0.7216736401674688 0.15 0  0.7184518828452986 0.15 0  0.7152301255231284 0.15 0  0.7120083682009583 0.15 0  0.708786610878788 0.15 0  0.7055648535566178 0.15 0  0.7023430962344477 0.15 0  0.6991213389122775 0.15 0  0.6958995815901072 0.15 0  0.692677824267937 0.15 0  0.6894560669457669 0.15 0  0.6862343096235967 0.15 0  0.6830125523014264 0.15 0  0.6797907949792563 0.15 0  0.6765690376570861 0.15 0  0.6733472803349159 0.15 0  0.6701255230127456 0.15 0  0.6669037656905755 0.15 0  0.6636820083684053 0.15 0  0.6604602510462351 0.15 0  0.657238493724065 0.15 0  0.6540167364018947 0.15 0  0.6507949790797245 0.15 0  0.6475732217575543 0.15 0  0.644351464435384 0.15 0  0.6411297071132231 0.15 0  0.6379079497910645 0.15 0  0.634686192468906 0.15 0  0.6314644351467468 0.15 0  0.6282426778245765 0.15 0  0.6250209205024085 0.15 0  0.62179916318025 0.15 0  0.6185774058580914 0.15 0  0.6153556485359328 0.15 0  0.6121338912137689 0.15 0  0.6089121338915987 0.15 0  0.6056903765694354 0.15 0  0.6024686192472768 0.15 0  0.5992468619251182 0.15 0  0.5960251046029597 0.15 0  0.5928033472807912 0.15 0  0.589581589958621 0.15 0  0.5863598326364508 0.15 0  0.5831380753142792 0.15 0  0.5799163179920974 0.15 0  0.57669456
[...]
<PointData  Scalars="pressure"> 
<DataArray  type="Float64"  Name="pressure"  format="ascii">1.2116482006760274e+04  4.0549110823841550e-01  -3.0042996143803691e-01  1.2102106411993384e+04  1.1977872509763443e+04  1.1869140836258026e+04  1.1761380801796880e+04  1.1653945196436067e+04  1.1546877615318348e+04  1.1440043614357272e+04  1.1333366217485946e+04  1.1226801230405606e+04  1.1120320146025069e+04  1.1013903511557355e+04  1.0907537505039309e+04  1.0801211975128750e+04  1.0694919263925000e+04  1.0588653466410540e+04  1.0482409945581658e+04  1.0376185004150473e+04  1.0269975655771063e+04  1.0163779461585411e+04  1.0057594410852817e+04  9.9514188320672201e+03  9.8452513256218335e+03  9.7390907119992717e+03  9.6329359913429707e+03  9.5267863115024993e+03  9.4206409424763133e+03  9.3144992557448459e+03  9.2083607073825751e+03  9.1022248241182933e+03  8.9960911917132653e+03  8.8899594451717330e+03  8.7838292604060025e+03  8.6777003470545478e+03  8.5715724422113799e+03  8.4654453048659725e+03  8.3593187108847924e+03  8.2531924483865423e+03  8.1470663133773760e+03  8.0409401055194394e+03  7.9348136239067417e+03  7.8286866627164391e+03  7.7225590065902288e+03  7.6164304255778561e+03  7.5103006694414171e+03  7.4041694610685136e+03  7.2980364886737834e+03  7.1919013963660327e+03  7.0857637725167397e+03  6.9796231351583938e+03  6.8734789133407421e+03  6.7673304229282039e+03  6.6611768346509671e+03  6.5550171311921877e+03  6.4488500484870947e+03  6.3426739938633718e+03  6.2364869292901176e+03  6.1302861999395718e+03  6.0240682759802576e+03  5.9178283637901031e+03  5.8115597973515387e+03  5.7052528444554209e+03  5.5988921651186183e+03  5.4924540237787314e+03  5.3859104368327680e+03  5.2792123251846397e+03  5.1720858890946383e+03  5.0636217022111041e+03  4.9494375052357263e+03  3.5295740391310524e+03  3.4596074178008080e+03  3.3899851429353398e+03  3.3372008632442103e+03  3.3207989175514367e+03  3.3003669067150477e+03  3.2802413306560434e+03  3.2602261450202172e+03  3.2402534727166726e+03  3.2203069188134200e+03  3.2003774673116586e+03  3.1804597439678391e+03  3.1605504329032215e+03  3.1406473647509583e+03  3.1207490539371547e+03  3.1008544467175707e+03  3.0809627738796071e+03  3.0610734602930888e+03  3.0411860671252343e+03  3.0213002536695126e+03  3.0014157514014223e+03  2.9815323459038168e+03  2.9616498639984657e+03  2.9417681644063728e+03  2.9218871308513585e+03  2.9020066668880340e+03  2.8821266919678906e+03  2.8622471384084770e+03  2.8423679490305944e+03  2.8224890752963420e+03  2.8026104758272063e+03  2.7827321152138470e+03  2.7628539630520718e+03  2.7429759931558929e+03  2.7230981829108255e+03  2.7032205127387265e+03  2.6833429656524372e+03  2.6634655268831216e+03  2.6435881835669061e+03  2.6237109244801923e+03  2.6038337398151998e+03  2.5839566209888931e+03  2.5640795604798163e+03  2.5442025516882932e+03  2.5243255888164654e+03  2.5044486667648735e+03  2.4845717810432752e+03  2.4646949276935434e+03  2.4448181032228922e+03  2.4249413045459319e+03  2.4050645289342528e+03  2.3851877739727147e+03  2.3653110375212500e+03  2.3454343176816078e+03  2.3255576127683175e+03  2.3056809212832277e+03  2.2858042418933269e+03  2.2659275734113025e+03  2.2460509147785033e+03  2.2261742650499855e+03  2.2062976233814147e+03  2.1864209890175302e+03  2.1665443612820368e+03  2.1466677395686802e+03  2.1267911233334189e+03  2.1069145120875601e+03  2.0870379053916140e+03  2.0671613028499473e+03  2.0472847041060447e+03  2.0274081088383218e+03  2.0075315167564256e+03  1.9876549275979883e+03  1.9677783411256505e+03  1.9479017571245599e+03  1.9280251754000783e+03  1.9081485957757689e+03  1.8882720180915928e+03  1.8683954422023232e+03  1.8485188679761188e+03  1.8286422952932769e+03  1.8087657240450892e+03  1.7888891541328765e+03  1.7690125854671057e+03  1.7491360179665633e+03  1.7292594515576898e+03  1.7093828861738843e+03  1.6895063217549982e+03  1.6696297582468360e+03  1.6497531956007415e+03  1.6298766337730942e+03  1.6100000727250524e+03  1.5901235124222642e+03  1.5702469528345232e+03  1.5503703939356783e+03  1.5304938357032524e+03  1.5106172781182759e+03  1.4907407211652258e+03  1.4708641648318091e+03  1.4509876091089779e+03  1.4311110539908161e+03  1.4112344994743009e+03  1.3913579455594711e+03  1.3714813922491721e+03  1.3516048395491748e+03  1.3317282874682796e+03  1.3118517360181315e+03  1.2919751852134621e+03  1.2720986350719591e+03  1.2522220856143192e+03  1.2323455368644375e+03  1.2124689888494158e+03  1.1925924415997704e+03  1.1727158951495121e+03  1.1528393495362502e+03  1.1329628048014386e+03  1.1130862609903747e+03  1.0932097181525594e+03  1.0733331763418655e+03  1.0534566356167413e+03  1.0335800960406373e+03  1.0137035576821196e+03  9.9382702061518012e+02  9.7395048491966611e+02  9.5407395068153971e+02  9.3419741799347253e+02  9.1432088695519735e+02  8.9444435767408663e+02  8.7456783026573135e+02  8.5469130485439325e+02  8.3481478157387050e+02  8.1493826056827311e+02  7.9506174199286386e+02  7.7518522601527820e+02  7.5530871281653037e+02  7.3543220259233362e+02  7.1555569555480645e+02  6.9567919193416230e+02  6.7580269198105657e+02  6.5592619596908116e+02  6.3604970419786036e+02  6.1617321699677086e+02  5.9629673472922104e+02  5.7642025779820756e+02  5.5654378665295792e+02  5.3666732179704638e+02  5.1679086379880573e+02  4.9691441330389904e+02  4.7703797105134316e+02  4.5716153789412095e+02  4.3728511482521230e+02  4.1740870301169991e+02  3.9753230383908158e+02  3.7765591896988622e+02  3.5777955042222021e+02  3.3790320067608707e+02  3.1802687282023084e+02  2.9815057075793800e+02  2.7827429950125014e+02  2.5839806560164487e+02  2.3852187779614206e+02  2.1864574800690107e+02  1.9876969294356869e+02  1.7889373678121297e+02  1.5901791587753993e+02  1.3914228762270443e+02  1.1926694799248925e+02  9.9392070837345713e+01  7.9518049683839337e+01  5.9645944698659029e+01  3.9775655302223157e+01  1.9905395076919412e+01  8.4075679760334587e-02  4.3198869400961756e-03  9.2468853831782294e-04  5.6852751252610076e-04  3.2495012207677372e-04  1.9100643240798270e-04  1.1944326083764567e-04  7.8883951764297566e-05  5.4501037747758551e-05  3.9092434870446380e-05  2.8932601504671362e-05  2.1986351444561745e-05  1.7087700888293205e-05  1.3539840160557707e-05  1.0910500090735137e-05  8.9225299087493779e-06  7.3929776192255035e-06  6.1979128598341569e-06  5.2514348375431898e-06  4.4927682831896776e-06  3.8781161584805469e-06  3.3753898400582190e-06  2.9607249862680233e-06  2.6161317724087941e-06  2.3278811416756154e-06  2.0853780192877485e-06  1.8803625530403605e-06  1.7063358789585501e-06  1.5581420711257907e-06  1.4316601009125034e-06  1.3235744650049358e-06  1.2312026423335749e-06  1.1523641137588845e-06  1.0852802035260501e-06  1.0284968089507950e-06  9.8082457379953778e-07  9.4129220646040570e-07  9.0911007028432906e-07  8.8364165123503491e-07  8.6438134445820408e-07  8.5093720531696571e-07  8.4301780290665868e-07  8.4042242624938986e-07  8.4303416632835219e-07  8.5081553759515881e-07  8.6380631518321516e-07  8.8212358270008309e-07  9.0596387745804453e-07  9.3560752476174220e-07  9.7142530667364893e-07  1.0138877549363367e-06  1.0635774166008306e-06  1.1212046306388028e-06  1.1876275260010878e-06  1.2638771587640432e-06  1.3511889449402879e-06  1.4510420380262891e-06  1.5652086351295206e-06  1.6958159141590476e-06  1.8454241483615580e-06  2.0171256522836320e-06  2.2146707795673454e-06  2.4426292469186777e-06  2.7065980019518392e-06  3.0134706971075007e-06  3.3717893671651665e-06  3.7922064022654961e-06  4.2880954553888709e-06  4.8763643975851845e-06  5.5785436105363053e-06  6.4222499461997937e-06  7.4431627040614179e-06  8.6876926545876220e-06  1.0216573796230602e-05  1.2109642447201400e-05  1.4472037595149981e-05  1.7441826505536328e-05  2.1198309634521500e-05  2.5968305536477943e-05  3.2023800972732369e-05  3.9662833183829825e-05  4.9212643521333392e-05  6.1709139673863975e-05  9.1607379334693586e-05  3.6482715531390060e-04  3.3469963209990165e-03  2.3683373325530332e-02  1.3918325619583317e-02  1.9712063461319364e+01  3.9716790937213382e+01  5.9604592830625428e+01  7.9486587636795576e+01  9.9367113872955514e+01  1.1924633745063286e+02  1.3912479622136223e+02  1.5900278327779216e+02  1.7888045575903755e+02  1.9875790773513242e+02  2.1863519911726263e+02  2.3851236981446229e+02  2.5838944742875407e+02  2.7826645165830683e+02  2.9814339693785615e+02  3.1802029408801366e+02  3.3789715138175535e+02  3.5777397525486555e+02  3.7765077079161011e+02  3.9752754206436390e+02  4.1740429237593133e+02  4.3728102443553826e+02  4.5715774048870600e+02  4.7703444241448040e+02  4.9691113179916601e+02  5.1678780999291041e+02  5.3666447815358674e+02  5.5654113728117693e+02  5.7641778824495100e+02  5.9629443180513192e+02  6.1617106863031108e+02  6.3604769931154419e+02  6.5592432437384798e+02  6.7580094428562859e+02  6.9567755946647935e+02  7.1555417029365640e+02  7.3543077710749310e+02  7.5530738021595414e+02  7.7518397989848495e+02  7.9506057640922938e+02  8.1493716997998024e+02  8.3481376082245447e+02  8.5469034913038820e+02  8.7456693508139529e+02  8.9444351883833792e+02  9.1432010055087073e+02  9.3419668035671248e+02  9.5407325838254758e+02  9.7394983474505307e+02  9.9382640955167449e+02  1.0137029829013081e+03  1.0335795548851434e+03  1.0534561255871818e+03  1.0733326950847236e+03  1.0932092634489381e+03  1.1130858307451235e+03  1.1329623970332459e+03  1.1528389623682729e+03  1.1727155268005174e+03  1.1925920903757651e+03  1.2124686531357067e+03  1.2323452151180916e+03  1.2522217763569718e+03  1.2720983368829443e+03  1.2919748967232219e+03  1.3118514559017797e+03  1.3317280144396107e+03  1.3516045723547852e+03  1.3714811296625317e+03  1.3913576863754240e+03  1.4112342425032734e+03  1.4311107980533277e+03  1.4509873530304726e+03  1.4708639074370981e+03  1.4907404612732237e+03  1.5106170145365277e+03  1.5304935672222746e+03  1.5503701193235238e+03  1.5702466708311697e+03  1.5901232217337974e+03  1.6099997720178173e+03  1.6298763216674170e+03  1.6497528706645855e+03  1.6696294189893217e+03  1.6895059666195077e+03  1.7093825135309812e+03  1.7292590596975760e+03  1.7491356050912855e+03  1.7690121496822633e+03  1.7888886934389664e+03  1.8087652363283064e+03  1.8286417783158277e+03  1.8485183193659241e+03  1.8683948594421379e+03  1.8882713985074345e+03  1.9081479365246266e+03  1.9280244734568789e+03  1.9479010092682649e+03  1.9677775439244645e+03  1.9876540773935481e+03  2.0075306096470533e+03  2.0274071406610381e+03  2.0472836704174767e+03  2.0671601989058568e+03  2.0870367261250690e+03  2.1069132520856037e+03  2.1267897768121402e+03  2.1466663003465610e+03  2.1665428227514594e+03  2.1864193441142525e+03  2.2062958645519711e+03  2.2261723842167225e+03  2.2460489033022041e+03  2.2659254220511616e+03  2.2858019407640586e+03  2.3056784598091058e+03  2.3255549796339092e+03  2.3454315007790156e+03  2.3653080238934308e+03  2.3851845497527274e+03  2.4050610792799412e+03  2.4249376135697553e+03  2.4448141539166131e+03  2.4646907018471406e+03  2.4845672591577636e+03  2.5044438279583192e+03  2.5243204107226416e+03  2.5441970103473222e+03  2.5640736302199934e+03  2.5839502742988416e+03  2.6038269472052934e+03  2.6237036543322688e+03  2.6435804019708307e+03  2.6634571974588894e+03  2.6833340493560404e+03  2.7032109676499094e+03  2.7230879640005091e+03  2.7429650520307432e+03  2.7628422476733035e+03  2.7827195695870464e+03  2.8025970396592675e+03  2.8224746836155150e+03  2.8423525317648500e+03  2.8622306199172885e+03  2.8821089905224026e+03  2.9019876940947711e+03  2.9218667910157778e+03  2.9417463538349762e+03  2.9616264702430144e+03  2.9815072469599963e+03  3.0013888148901560e+03  3.0212713360566590e+03  3.0411550130836599e+03  3.0610401023943286e+03  3.0809269329480576e+03  3.1008159334343427e+03  3.1207076727287244e+03  3.1406029217841378e+03  3.1605027513754449e+03  3.1804086921956559e+03  3.2003230080973181e+03  3.2202491833592608e+03  3.2401928462683350e+03  3.2601637252411788e+03  3.2801787510715540e+03  3.3002526766570686e+03  3.3204439087456785e+03  3.3428905970120350e+03  3.3784457168057602e+03  3.4542539082297121e+03  4.8468156120796557e+03  4.9593092123231108e+03  5.0669008938536199e+03  5.1738124626219324e+03  5.2804057464302341e+03  5.3868716501426989e+03  5.4932476689797659e+03  5.5995592187090897e+03  5.7058260340824927e+03  5.8120607885024365e+03  5.9182716194218146e+03  6.0244641392271978e+03  6.1306423980094914e+03  6.2368093844605846e+03  6.3429673488677226e+03  6.4491180193909358e+03  6.5552627463626977e+03  6.6614026008003157e+03  6.7675384436436352e+03  6.8736709755175625e+03  6.9798007731761691e+03  7.0859283166744071e+03  7.1920540099833815e+03  7.2981781968943133e+03  7.4043011734955126e+03  7.5104231981306557e+03  7.6165444994892496e+03  7.7226652833108556e+03  7.8287857380598243e+03  7.9349060398415713e+03  8.0410263567766278e+03  8.1471468530004731e+03  8.2532676924312073e+03  8.3593890424302299e+03  8.4655110774638488e+03  8.5716339828748260e+03  8.6777579588678382e+03  8.7838832248203980e+03  8.8900100240425090e+03  8.9961386291204853e+03  9.1022693480096896e+03  9.2084025310707257e+03  9.3145385792861252e+03  9.4206779539592444e+03  9.5268211882707146e+03  9.6329689011774517e+03  9.7391218142904145e+03  9.8452807725632356e+03  9.9514467699145571e+03  1.0057620981303617e+04  1.0163804803356998e+04  1.0269999906490015e+04  1.0376208302719499e+04  1.0482432435282622e+04  1.0588675299155981e+04  1.0694940606334496e+04  1.0801233017591141e+04  1.0907558475822179e+04  1.1013924699804411e+04  1.1120341941174709e+04  1.1226824193565546e+04  1.1333391220766880e+04  1.1440072150851192e+04  1.1546912430934648e+04  1.1653990362366205e+04  1.1761450600260665e+04  1.1869432274701163e+04  1.1978665854581013e+04  1.2089757180201723e+04  1.2084787441963959e+04  1.2082304238646548e+04  1.2080649355662976e+04  1.2079372898700683e+04  1.2078329488760082e+04  1.2077449933999123e+04  1.2076692327747896e+04  1.2076028901374890e+04  1.2075440413488459e+04  1.2074913052216551e+04  1.2074436593480508e+04  1.2074003267238002e+04  1.2073607035367002e+04  1.2073243115894717e+04  1.2072907659704502e+04  1.2072597524814770e+04  1.2072310115005221e+04  1.2072043262023086e+04  1.2071795138006262e+04  1.2071564189299685e+04  1.2071349085703721e+04  1.2071148681042903e+04  1.2070961982166435e+04  1.2070788124316365e+04  1.2070626351366238e+04  1.2070475999828472e+04  1.2070336485809978e+04  1.2070207294297192e+04  1.2070087970299362e+04  1.2069978111487360e+04  1.2069877362046655e+04  1.2069785407524087e+04  1.2069701970494936e+04  1.2069626806912489e+04  1.2069559703030322e+04  1.2069500472809235e+04  1.2069448955738282e+04  1.2069405015013008e+04  1.2069368536025169e+04  1.2069339425127540e+04  1.2069317608644764e+04  1.2069303032107729e+04  1.2069295659694464e+04  1.2069295473865199e+04  1.2069302475183844e+04  1.2069316682322002e+04  1.2069338132245686e+04  1.2069366880588752e+04  1.2069403002221263e+04  1.2069446592025311e+04  1.2069497765895698e+04  1.2069556661988438e+04  1.2069623442246630e+04  1.2069698294240729e+04  1.2069781433369782e+04  1.2069873105481449e+04  1.2069973589982745e+04  1.2070083203531305e+04  1.2070202304419096e+04  1.2070331297789435e+04  1.2070470641864631e+04  1.2070620855410154e+04  1.2070782526723851e+04  1.2070956324523066e+04  1.2071143011214996e+04  1.2071343459188804e+04  1.2071558670978842e+04  1.2071789804441803e+04  1.2072038204506618e+04  1.2072305443652785e+04  1.2072593374146109e+04  1.2072904196361813e+04  1.2073240549503804e+04  1.2073605634108197e+04  1.2074003380635837e+04  1.2074438686534155e+04  1.2074917757855559e+04  1.2075448615659720e+04  1.2076041871531770e+04  1.2076711958197493e+04  1.2077479141005797e+04  1.2078372798416658e+04  1.2079436406729021e+04  1.2080735167339841e+04  1.2082387665899028e+04  1.2084847118863914e+04  1.2090925677902025e+04  1.1979906395880795e+04  1.1977950541468061e+04  1.1976082979787239e+04  1.1974613208915220e+04  1.1973429405565734e+04  1.1972442697320237e+04  1.1971599813313611e+04  1.1970866850848932e+04  1.1970220648842518e+04  1.1969644647762279e+04  1.1969126631592226e+04  1.1968657360422671e+04  1.1968229694491416e+04  1.1967838013423328e+04  1.1967477820557808e+04  1.1967145466792312e+04  1.1966837953597264e+04  1.1966552789719168e+04  1.1966287885079870e+04  1.1966041470953680e+04  1.1965812039041895e+04  1.1965598294359297e+04  1.1965399118366407e+04  1.1965213539806422e+04  1.1965040711408925e+04  1.1964879891113205e+04  1.1964730426810858e+04  1.1964591743856558e+04  1.1964463334776858e+04  1.1964344750739905e+04  1.1964235594447991e+04  1.1964135514189153e+04  1.1964044198840615e+04  1.1963961373659960e+04  1.1963886796733528e+04  1.1963820255977551e+04  1.1963761566608071e+04  1.1963710569012126e+04  1.1963667126965598e+04  1.1963631126153961e+04  1.1963602472960645e+04  1.1963581093495161e+04  1.1963566932839094e+04  1.1963559954493410e+04  1.1963560140015123e+04  1.1963567488835521e+04  1.1963582018256147e+04  1.1963603763622281e+04  1.1963632778677667e+04  1.1963669136107927e+04  1.1963712928284272e+04  1.1963764268223827e+04  1.1963823290787890e+04  1.1963890154145609e+04  1.1963965041537636e+04  1.1964048163382806e+04  1.1964139759781421e+04  1.1964240103481392e+04  1.1964349503389574e+04  1.1964468308730593e+04  1.1964596913980977e+04  1.1964735764738776e+04  1.1964885364731103e+04  1.1965046284216347e+04  1.1965219170110051e+04  1.1965404758258628e+04  1.1965603888413072e+04  1.1965817522628457e+04  1.1966046768052904e+04  1.1966292905400314e+04  1.1966557424866369e+04  1.1966842071911607e+04  1.1967148906298549e+04  1.1967480379189650e+04  1.1967839435244099e+04  1.1968229649911946e+04  1.1968655417217193e+04  1.1969122211457163e+04  1.1969636959589134e+04  1.1970208583801503e+04  1.1970848814911908e+04  1.1971573457051478e+04  1.1972404426403424e+04  1.1973372891318902e+04  1.1974521541755292e+04  1.1975886978221577e+04  1.1977369638117152e+04  1.1978272149315648e+04  1.1869346641633436e+04  1.1869031984992156e+04  1.1868342807499828e+04  1.1867541823366031e+04  1.1866750686736337e+04  1.1866010664663576e+04  1.1865331590820373e+04  1.1864712134857227e+04  1.1864147342940620e+04  1.1863631453734715e+04  1.1863158941608868e+04  1.1862724863198860e+04  1.1862324925567238e+04  1.1861955447656539e+04  1.1861613286953432e+04  1.1861295760973540e+04  1.1861000574918547e+04  1.1860725759021419e+04  1.1860469615846512e+04  1.1860230676583606e+04  1.1860007665024363e+04  1.1859799467922827e+04  1.1859605110588443e+04  1.1859423736741061e+04  1.1859254591830520e+04  1.1859097009174529e+04  1.1858950398394492e+04  1.1858814235731383e+04  1.1858688055906097e+04  1.1858571445254385e+04  1.1858464035918978e+04  1.1858365500923046e+04  1.1858275549982523e+04  1.1858193925941518e+04  1.1858120401736218e+04  1.1858054777810288e+04  1.1857996879918481e+04  1.1857946557266847e+04  1.1857903680947202e+04  1.1857868142631449e+04  1.1857839853497735e+04  1.1857818743366090e+04  1.1857804760025909e+04  1.1857797868741736e+04  1.1857798051927666e+04  1.1857805308983838e+04  1.1857819656291971e+04  1.1857841127369655e+04  1.1857869773186416e+04  1.1857905662647621e+04  1.1857948883255671e+04  1.1857999541961588e+04  1.1858057766224205e+04  1.1858123705298764e+04  1.1858197531782327e+04  1.1858279443449499e+04  1.1858369665419834e+04  1.1858468452707251e+04  1.1858576093212972e+04  1.1858692911236916e+04  1.1858819271599221e+04  1.1858955584483956e+04  1.1859102311142624e+04  1.1859259970626561e+04  1.1859429147756686e+04  1.1859610502588315e+04  1.1859804781689598e+04  1.1860012831627842e+04  1.1860235615150661e+04  1.1860474230660195e+04  1.1860729935707606e+04  1.1861004175374350e+04  1.1861298616533435e+04  1.1861615189042768e+04  1.1861956134787099e+04  1.1862324064873001e+04  1.1862722023572880e+04  1.1863153553429080e+04  1.1863622746142490e+04  1.1864134241152640e+04  1.1864693080301306e+04  1.1865304198357971e+04  1.1865971024339946e+04  1.1866692040718703e+04  1.1867453501840913e+04  1.18682191