<?xml version="1.0"?>
<VTKFile type="UnstructuredGrid"  version="0.1"  >
<UnstructuredGrid>
<Piece  NumberOfPoints="21600" NumberOfCells="42542">
<Points>
<DataArray  type="Float64"  NumberOfComponents="3"  format="ascii">0 0 0  0.77 0 0  0.77 0.15 0  0 0.15 0  0.003221757322170014 0 0  0.006443514644340046 0 0  0.009665271966510193 0 0  0.01288702928868034 0 0  0.01610878661085048 0 0  0.01933054393302049 0 0  0.02255230125519027 0 0  0.02577405857735967 0 0  0.02899581589952872 0 0  0.03221757322169801 0 0  0.03543933054386744 0 0  0.03866108786603686 0 0  0.04188284518820627 0 0  0.0451046025103757 0 0  0.04832635983254521 0 0  0.05154811715471607 0 0  0.05476987447688695 0 0  0.05799163179905782 0 0  0.06121338912122846 0 0  0.06443514644339859 0 0  0.06765690376556875 0 0  0.0708786610877389 0 0  0.07410041840990904 0 0  0.0773221757320792 0 0  0.08054393305425039 0 0  0.08376569037642198 0 0  0.0869874476985936 0 0  0.09020920502076518 0 0  0.0934309623429339 0 0  0.0966527196651024 0 0  0.09987447698726967 0 0  0.1030962343094369 0 0  0.1063179916316041 0 0  0.1095397489537714 0 0  0.1127615062759386 0 0  0.1159832635981051 0 0  0.1192050209202709 0 0  0.1224267782424358 0 0  0.1256485355646001 0 0  0.1288702928867644 0 0  0.1320920502089288 0 0  0.1353138075310958 0 0  0.1385355648532632 0 0  0.1417573221754333 0 0  0.1449790794976035 0 0  0.1482008368197736 0 0  0.1514225941419428 0 0  0.1546443514641101 0 0  0.157866108786276 0 0  0.1610878661084403 0 0  0.1643096234306047 0 0  0.167531380752769 0 0  0.1707531380749333 0 0  0.1739748953970977 0 0  0.177196652719262 0 0  0.1804184100414264 0 0  0.1836401673635935 0 0  0.1868619246857611 0 0  0.1900836820079313 0 0  0.1933054393301014 0 0  0.1965271966522716 0 0  0.1997489539744406 0 0  0.2029707112966078 0 0  0.2061924686187736 0 0  0.209414225940938 0 0  0.2126359832631022 0 0  0.2158577405852666 0 0  0.219079497907431 0 0  0.2223012552295953 0 0  0.2255230125517597 0 0  0.2287447698739242 0 0  0.2319665271960914 0 0  0.2351882845182592 0 0  0.2384100418404293 0 0  0.2416317991625994 0 0  0.2448535564847696 0 0  0.2480753138069371 0 0  0.2512970711291014 0 0  0.2545188284512658 0 0  0.2577405857734302 0 0  0.2609623430955986 0 0  0.2641841004177688 0 0  0.2674058577399389 0 0  0.270627615062109 0 0  0.2738493723842792 0 0  0.2770711297064487 0 0  0.280292887028613 0 0  0.2835146443507774 0 0  0.2867364016729417 0 0  0.2899581589951061 0 0  0.2931799163172705 0 0  0.2964016736394348 0 0  0.2996234309615992 0 0  0.3028451882837672 0 0  0.3060669456059373 0 0  0.3092887029281075 0 0  0.3125104602502776 0 0  0.3157322175724478 0 0  0.3189539748946177 0 0  0.322175732216782 0 0  0.3253974895389464 0 0  0.3286192468611107 0 0  0.3318410041832751 0 0  0.3350627615054395 0 0  0.3382845188276038 0 0  0.3415062761497681 0 0  0.3447280334719325 0 0  0.3479497907940968 0 0  0.3511715481162612 0 0  0.3543933054384255 0 0  0.3576150627605947 0 0  0.3608368200827649 0 0  0.364058577404935 0 0  0.3672803347271051 0 0  0.3705020920492753 0 0  0.373723849371444 0 0  0.3769456066936084 0 0  0.3801673640157748 0 0  0.383389121337945 0 0  0.3866108786601209 0 0  0.3898326359823028 0 0  0.3930543933044846 0 0  0.3962761506266662 0 0  0.399497907948848 0 0  0.4027196652710298 0 0  0.4059414225932116 0 0  0.4091631799153934 0 0  0.4123849372375751 0 0  0.4156066945597569 0 0  0.4188284518819387 0 0  0.4220502092041222 0 0  0.4252719665263097 0 0  0.4284937238484974 0 0  0.4317154811706849 0 0  0.4349372384928725 0 0  0.4381589958150601 0 0  0.4413807531372476 0 0  0.4446025104594352 0 0  0.4478242677816181 0 0  0.4510460251037998 0 0  0.4542677824259815 0 0  0.4574895397481634 0 0  0.4607112970703451 0 0  0.4639330543925269 0 0  0.4671548117147087 0 0  0.4703765690368904 0 0  0.4735983263590722 0 0  0.4768200836812568 0 0  0.4800418410034444 0 0  0.483263598325632 0 0  0.4864853556478196 0 0  0.4897071129700028 0 0  0.4929288702921845 0 0  0.4961506276143663 0 0  0.4993723849365479 0 0  0.5025941422587239 0 0  0.5058158995809008 0 0  0.5090376569030826 0 0  0.5122594142252677 0 0  0.515481171547461 0 0  0.5187029288696494 0 0  0.5219246861918312 0 0  0.525146443514013 0 0  0.5283682008361947 0 0  0.5315899581583845 0 0  0.5348117154805778 0 0  0.5380334728027617 0 0  0.5412552301249435 0 0  0.5444769874471141 0 0  0.5476987447692853 0 0  0.550920502091467 0 0  0.5541422594136513 0 0  0.5573640167358447 0 0  0.560585774058034 0 0  0.5638075313802158 0 0  0.5670292887023975 0 0  0.5702510460245793 0 0  0.5734728033467682 0 0  0.5766945606689615 0 0  0.579916317991155 0 0  0.5831380753133483 0 0  0.5863598326355314 0 0  0.5895815899577131 0 0  0.5928033472798949 0 0  0.5960251046020785 0 0  0.5992468619242718 0 0  0.6024686192464619 0 0  0.6056903765686437 0 0  0.6089121338908206 0 0  0.6121338912129908 0 0  0.6153556485351673 0 0  0.618577405857349 0 0  0.6217991631795386 0 0  0.625020920501732 0 0  0.6282426778239159 0 0  0.6314644351460976 0 0  0.6346861924682795 0 0  0.6379079497904622 0 0  0.6411297071126555 0 0  0.6443514644348465 0 0  0.6475732217570283 0 0  0.650794979079206 0 0  0.6540167364013761 0 0  0.6572384937235518 0 0  0.6604602510457335 0 0  0.6636820083679225 0 0  0.6669037656901158 0 0  0.6701255230123004 0 0  0.6733472803344823 0 0  0.6765690376566641 0 0  0.6797907949788459 0 0  0.6830125523010393 0 0  0.686234309623231 0 0  0.6894560669454127 0 0  0.6926778242675914 0 0  0.6958995815897615 0 0  0.6991213389119363 0 0  0.7023430962341181 0 0  0.7055648535563062 0 0  0.7087866108784994 0 0  0.712008368200685 0 0  0.7152301255228668 0 0  0.7184518828450486 0 0  0.7216736401672305 0 0  0.724895397489423 0 0  0.7281171548116155 0 0  0.7313389121337973 0 0  0.7345606694559768 0 0  0.7377824267781468 0 0  0.7410041841003209 0 0  0.7442259414225026 0 0  0.7474476987446899 0 0  0.7506694560668832 0 0  0.7538912133890696 0 0  0.7571129707112513 0 0  0.760334728033433 0 0  0.7635564853556149 0 0  0.7667782426778067 0 0  0.77 0.001685393258423789 0  0.77 0.003370786516847669 0  0.77 0.005056179775271247 0  0.77 0.006741573033694517 0  0.77 0.008426966292117821 0  0.77 0.01011235955054176 0  0.77 0.01179775280896623 0  0.77 0.0134831460673904 0  0.77 0.01516853932581489 0  0.77 0.01685393258423891 0  0.77 0.01853932584266291 0  0.77 0.02022471910108589 0  0.77 0.02191011235950794 0  0.77 0.02359550561792999 0  0.77 0.02528089887635205 0  0.77 0.02696629213477411 0  0.77 0.02865168539319714 0  0.77 0.03033707865161956 0  0.77 0.03202247191004162 0  0.77 0.03370786516846367 0  0.77 0.03539325842688572 0  0.77 0.03707865168530778 0  0.77 0.03876404494372984 0  0.77 0.0404494382021519 0  0.77 0.04213483146057394 0  0.77 0.04382022471899601 0  0.77 0.04550561797741807 0  0.77 0.04719101123584013 0  0.77 0.04887640449426219 0  0.77 0.05056179775268425 0  0.77 0.0522471910111063 0  0.77 0.05393258426952837 0  0.77 0.05561797752795105 0  0.77 0.05730337078637505 0  0.77 0.05898876404479723 0  0.77 0.0606741573032193 0  0.77 0.06235955056164135 0  0.77 0.06404494382006341 0  0.77 0.06573033707848548 0  0.77 0.06741573033690752 0  0.77 0.06910112359532959 0  0.77 0.07078651685375165 0  0.77 0.0724719101121737 0  0.77 0.07415730337059653 0  0.77 0.07584269662902443 0  0.77 0.07752808988745429 0  0.77 0.07921348314588413 0  0.77 0.08089887640431678 0  0.77 0.08258426966274923 0  0.77 0.08426966292117907 0  0.77 0.08595505617960987 0  0.77 0.08764044943804362 0  0.77 0.08932584269647403 0  0.77 0.09101123595490389 0  0.77 0.09269662921333673 0  0.77 0.09438202247176901 0  0.77 0.09606741573019884 0  0.77 0.09775280898862983 0  0.77 0.09943820224706355 0  0.77 0.1011235955054938 0  0.77 0.1028089887639236 0  0.77 0.1044943820223567 0  0.77 0.1061797752807888 0  0.77 0.1078651685392186 0  0.77 0.1095505617976498 0  0.77 0.1112359550560835 0  0.77 0.1129213483145136 0  0.77 0.1146067415729456 0  0.77 0.1162921348313787 0  0.77 0.1179775280898085 0  0.77 0.1196629213482387 0  0.77 0.1213483146066724 0  0.77 0.1230337078651035 0  0.77 0.1247191011235322 0  0.77 0.1264044943819605 0  0.77 0.1280898876403903 0  0.77 0.1297752808988242 0  0.77 0.1314606741572554 0  0.77 0.1331460674156853 0  0.77 0.1348314606741154 0  0.77 0.1365168539325504 0  0.77 0.1382022471909802 0  0.77 0.13988764044941 0  0.77 0.1415730337078443 0  0.77 0.1432584269662752 0  0.77 0.144943820224705 0  0.77 0.1466292134831355 0  0.77 0.1483146067415701 0  0.7667782426778414 0.15 0  0.7635564853556813 0.15 0  0.7603347280335111 0.15 0  0.757112970711341 0.15 0  0.7538912133891708 0.15 0  0.7506694560670005 0.15 0  0.7474476987448303 0.15 0  0.7442259414226602 0.15 0  0.74100418410049 0.15 0  0.7377824267783197 0.15 0  0.7345606694561496 0.15 0  0.7313389121339794 0.15 0  0.7281171548118092 0.15 0  0.724895397489639 0.15 0  0.7216736401674688 0.15 0  0.7184518828452986 0.15 0  0.7152301255231284 0.15 0  0.7120083682009583 0.15 0  0.708786610878788 0.15 0  0.7055648535566178 0.15 0  0.7023430962344477 0.15 0  0.6991213389122775 0.15 0  0.6958995815901072 0.15 0  0.692677824267937 0.15 0  0.6894560669457669 0.15 0  0.6862343096235967 0.15 0  0.6830125523014264 0.15 0  0.6797907949792563 0.15 0  0.6765690376570861 0.15 0  0.6733472803349159 0.15 0  0.6701255230127456 0.15 0  0.6669037656905755 0.15 0  0.6636820083684053 0.15 0  0.6604602510462351 0.15 0  0.657238493724065 0.15 0  0.6540167364018947 0.15 0  0.6507949790797245 0.15 0  0.6475732217575543 0.15 0  0.644351464435384 0.15 0  0.6411297071132231 0.15 0  0.6379079497910645 0.15 0  0.634686192468906 0.15 0  0.6314644351467468 0.15 0  0.6282426778245765 0.15 0  0.6250209205024085 0.15 0  0.62179916318025 0.15 0  0.6185774058580914 0.15 0  0.6153556485359328 0.15 0  0.6121338912137689 0.15 0  0.6089121338915987 0.15 0  0.6056903765694354 0.15 0  0.6024686192472768 0.15 0  0.5992468619251182 0.15 0  0.5960251046029597 0.15 0  0.5928033472807912 0.15 0  0.589581589958621 0.15 0  0.5863598326364508 0.15 0  0.5831380753142792 0.15 0  0.5799163179920974 0.15 0  0.57669456
[...]
<PointData  Scalars="pressure"> 
<DataArray  type="Float64"  Name="pressure"  format="ascii">8.3322491997106099e+03  4.0549110697422758e-01  -3.0042996239156600e-01  8.3182095513831864e+03  8.1936369856482270e+03  8.0848944123690553e+03  7.9771151927717256e+03  7.8696514798412081e+03  7.7625459331049888e+03  7.6556627872247373e+03  7.5489232491053172e+03  7.4422806468546396e+03  7.3357030821465351e+03  7.2291664123192195e+03  7.1226502208839338e+03  7.0161346646767051e+03  6.9095967543297320e+03  6.8030068255199840e+03  6.6963322080933558e+03  6.5895200328266192e+03  6.4822932150168681e+03  6.3737391731131847e+03  6.2594705879111907e+03  4.4838341560358640e+03  4.4138242750975332e+03  4.3441613284343230e+03  4.2913476896536085e+03  4.2749378256025357e+03  4.2544969740662609e+03  4.2343638858472250e+03  4.2143422339265244e+03  4.1943639691906328e+03  4.1744125729133693e+03  4.1544789254629031e+03  4.1345575646800989e+03  4.1146450995572304e+03  4.0947392961832506e+03  4.0748386133497593e+03  4.0549419492508109e+03  4.0350484930871853e+03  4.0151576337011697e+03  3.9952689010191598e+03  3.9753819272245983e+03  3.9554964202539491e+03  3.9356121452421457e+03  3.9157289112418375e+03  3.8958465615284913e+03  3.8759649663972987e+03  3.8560840177261116e+03  3.8362036248120303e+03  3.8163237111416888e+03  3.7964442118559678e+03  3.7765650717383028e+03  3.7566862436027200e+03  3.7368076869905312e+03  3.7169293671080154e+03  3.6970512539540377e+03  3.6771733215988515e+03  3.6572955475841941e+03  3.6374179124215502e+03  3.6175403991703856e+03  3.5976629930820486e+03  3.5777856812978193e+03  3.5579084525920503e+03  3.5380312971527969e+03  3.5181542063940742e+03  3.4982771727946260e+03  3.4784001897592111e+03  3.4585232514989848e+03  3.4386463529281577e+03  3.4187694895745403e+03  3.3988926575020269e+03  3.3790158532432924e+03  3.3591390737413026e+03  3.3392623162984301e+03  3.3193855785321143e+03  3.2995088583362640e+03  3.2796321538474767e+03  3.2597554634156459e+03  3.2398787855781829e+03  3.2200021190375360e+03  3.2001254626414452e+03  3.1802488153656936e+03  3.1603721762990167e+03  3.1404955446297940e+03  3.1206189196344831e+03  3.1007423006673507e+03  3.0808656871514968e+03  3.0609890785709663e+03  3.0411124744638228e+03  3.0212358744160520e+03  3.0013592780560962e+03  2.9814826850502122e+03  2.9616060950982555e+03  2.9417295079299824e+03  2.9218529233018053e+03  2.9019763409939060e+03  2.8820997608076673e+03  2.8622231825634740e+03  2.8423466060986907e+03  2.8224700312658751e+03  2.8025934579312202e+03  2.7827168859731655e+03  2.7628403152811816e+03  2.7429637457545782e+03  2.7230871773016206e+03  2.7032106098386193e+03  2.6833340432891573e+03  2.6634574775833871e+03  2.6435809126574095e+03  2.6237043484527203e+03  2.6038277849157089e+03  2.5839512219972121e+03  2.5640746596521167e+03  2.5441980978389624e+03  2.5243215365197066e+03  2.5044449756593608e+03  2.4845684152257404e+03  2.4646918551892277e+03  2.4448152955225773e+03  2.4249387362007151e+03  2.4050621772005024e+03  2.3851856185006609e+03  2.3653090600816008e+03  2.3454325019253047e+03  2.3255559440152383e+03  2.3056793863361636e+03  2.2858028288740884e+03  2.2659262716161697e+03  2.2460497145506465e+03  2.2261731576667507e+03  2.2062966009546667e+03  2.1864200444054459e+03  2.1665434880109756e+03  2.1466669317639112e+03  2.1267903756576397e+03  2.1069138196862873e+03  2.0870372638446233e+03  2.0671607081280504e+03  2.0472841525325814e+03  2.0274075970548145e+03  2.0075310416919153e+03  1.9876544864416301e+03  1.9677779313021890e+03  1.9479013762723648e+03  1.9280248213514524e+03  1.9081482665392632e+03  1.8882717118361154e+03  1.8683951572428407e+03  1.8485186027607779e+03  1.8286420483917857e+03  1.8087654941382302e+03  1.7888889400030253e+03  1.7690123859896510e+03  1.7491358321021319e+03  1.7292592783450982e+03  1.7093827247237330e+03  1.6895061712438489e+03  1.6696296179119186e+03  1.6497530647351216e+03  1.6298765117212733e+03  1.6099999588789492e+03  1.5901234062175383e+03  1.5702468537472143e+03  1.5503703014791290e+03  1.5304937494252870e+03  1.5106171975986088e+03  1.4907406460130887e+03  1.4708640946837611e+03  1.4509875436268978e+03  1.4311109928600549e+03  1.4112344424019723e+03  1.3913578922728807e+03  1.3714813424943700e+03  1.3516047930896132e+03  1.3317282440835775e+03  1.3118516955029297e+03  1.2919751473763665e+03  1.2720985997345604e+03  1.2522220526102849e+03  1.2323455060386743e+03  1.2124689600572879e+03  1.1925924147063790e+03  1.1727158700290245e+03  1.1528393260712778e+03  1.1329627828824571e+03  1.1130862405151913e+03  1.0932096990258103e+03  1.0733331584745538e+03  1.0534566189258062e+03  1.0335800804485521e+03  1.0137035431165191e+03  9.9382700700851433e+02  9.7395047220887568e+02  9.5407393880775544e+02  9.3419740690173523e+02  9.1432087659419699e+02  8.9444434799591932e+02  8.7456782122567154e+02  8.5469129641068491e+02  8.3481477368752837e+02  8.1493825320290114e+02  7.9506173511448253e+02  7.7518521959216548e+02  7.5530870681907390e+02  7.3543219699289330e+02  7.1555569032758251e+02  6.9567918705507691e+02  6.7580268742764167e+02  6.5592619172037325e+02  6.3604970023430269e+02  6.1617321330012317e+02  5.9629673128247441e+02  5.7642025458550609e+02  5.5654378365952459e+02  5.3666731900911532e+02  5.1679086120355771e+02  4.9691441088940218e+02  4.7703796880649867e+02  4.5716153580860998e+02  4.3728511288945020e+02  4.1740870121679160e+02  3.9753230217677884e+02  3.7765591743255175e+02  3.5777954900279116e+02  3.3790319936804264e+02  3.1802687161756251e+02  2.9815056965512167e+02  2.7827429849322044e+02  2.5839806468377219e+02  2.3852187696421086e+02  2.1864574725709065e+02  1.9876969227243578e+02  1.7889373618567549e+02  1.5901791535486288e+02  1.3914228717048726e+02  1.1926694760865495e+02  9.9392070520130474e+01  7.9518049431784121e+01  5.9645944510600849e+01  3.9775655177293480e+01  1.9905395014542510e+01  8.4075679500355091e-02  4.3198869223578093e-03  9.2468852467245176e-04  5.6852749339599722e-04  3.2495009713499006e-04  1.9100640134368297e-04  1.1944322348688850e-04  7.8883908076028214e-05  5.4500987723527334e-05  3.9092378544533818e-05  2.8932538932429506e-05  2.1986282698363958e-05  1.7087626040885257e-05  1.3539759308027258e-05  1.0910413329494116e-05  8.9224373431665173e-06  7.3928793651714780e-06  6.1978090392768363e-06  5.2513255824328396e-06  4.4926537314777064e-06  3.8779964517624261e-06  3.3752651302616024e-06  2.9605954274975549e-06  2.6159975252310370e-06  2.3277423788571020e-06  2.0852349168174270e-06  1.8802152854039681e-06  1.7061846374148434e-06  1.5579870409459104e-06  1.4315014766800010e-06  1.3234124502282429e-06  1.2310374345755616e-06  1.1521959273559663e-06  1.0851092432013395e-06  1.0283232958070253e-06  9.8064872070422012e-07  9.4111423523516318e-07  9.0893020478829997e-07  8.8346012072074103e-07  8.6419837449935382e-07  8.5075302189209946e-07  8.4283264178614518e-07  8.4023651623226048e-07  8.4284774634251681e-07  8.5062883725214271e-07  8.6361957014626420e-07  8.8193702971961510e-07  9.0577774737224359e-07  9.3542205117496294e-07  9.7124072331236959e-07  1.0137042939176871e-06  1.0633953055542588e-06  1.1210240991384467e-06  1.1874488011433859e-06  1.2637004628662928e-06  1.3510145038637941e-06  1.4508700686279782e-06  1.5650393501905664e-06  1.6956495298103745e-06  1.8452608698701940e-06  2.0169656870551500e-06  2.2145143279960711e-06  2.4424765024823734e-06  2.7064491587977630e-06  3.0133259405982023e-06  3.3716488787176979e-06  3.7920703619928099e-06  4.2879640262700646e-06  4.8762377475118373e-06  5.5784219027084193e-06  6.4221333308988869e-06  7.4430513255873033e-06  8.6875866576043638e-06  1.0216473309865110e-05  1.2109547604365382e-05  1.4471948507168291e-05  1.7441743293484628e-05  2.1198232400586086e-05  2.5968234385372540e-05  3.2023735993830851e-05  3.9662774466732865e-05  4.9212591149081803e-05  6.1709093715906551e-05  9.1607339910872580e-05  3.6482712325320329e-04  3.3469963047738959e-03  2.3683373377806610e-02  1.3918325653471746e-02  1.9712063523052475e+01  3.9716791061890461e+01  5.9604593018456136e+01  7.9486587888621500e+01  9.9367114189926895e+01  1.1924633783419922e+02  1.3912479667327980e+02  1.5900278380013160e+02  1.7888045635419260e+02  1.9875790840583110e+02  2.1863519986657920e+02  2.3851237064583140e+02  2.5838944834598635e+02  2.7826645266560649e+02  2.9814339803984006e+02  3.1802029528973225e+02  3.3789715268871601e+02  3.5777397667305780e+02  3.7765077232753248e+02  3.9752754372505433e+02  4.1740429416899798e+02  4.3728102636919579e+02  4.5715774257181192e+02  4.7703444465657623e+02  4.9691113421052040e+02  5.1678781258456559e+02  5.3666448093740917e+02  5.5654114026991090e+02  5.7641779145227724e+02  5.9629443524572935e+02  6.1617107231992418e+02  6.3604770326705284e+02  6.5592432861334566e+02  6.7580094882850369e+02  6.9567756433350269e+02  7.1555417550707625e+02  7.3543078269113471e+02  7.5530738619532735e+02  7.7518398630089996e+02  7.9506058326391883e+02  8.1493717731823199e+02  8.3481376867775100e+02  8.5469035753855712e+02  8.7456694408076964e+02  8.9444352846992899e+02  9.1432011085854913e+02  9.3419669138740392e+02  9.5407327018644241e+02  9.7394984737582888e+02  9.9382642306673154e+02  1.0137029973620250e+03  1.0335795703571455e+03  1.0534561421406302e+03  1.0733327127946211e+03  1.0932092823954561e+03  1.1130858510139497e+03  1.1329624187159559e+03  1.1528389855627220e+03  1.1727155516112623e+03  1.1925921169145070e+03  1.2124686815217660e+03  1.2323452454789096e+03  1.2522218088286456e+03  1.2720983716107914e+03  1.2919749338623787e+03  1.3118514956178376e+03  1.3317280569092864e+03  1.3516046177666312e+03  1.3714811782176857e+03  1.3913577382883980e+03  1.4112342980027870e+03  1.4311108573831834e+03  1.4509874164504761e+03  1.4708639752240208e+03  1.4907405337218117e+03  1.5106170919605577e+03  1.5304936499556497e+03  1.5503702077214125e+03  1.5702467652711885e+03  1.5901233226172287e+03  1.6099998797708631e+03  1.6298764367424810e+03  1.6497529935415757e+03  1.6696295501769716e+03  1.6895061066567007e+03  1.7093826629880587e+03  1.7292592191776359e+03  1.7491357752314282e+03  1.7690123311547748e+03  1.7888888869524176e+03  1.8087654426285228e+03  1.8286419981867000e+03  1.8485185536300198e+03  1.8683951089610548e+03  1.8882716641818331e+03  1.9081482192938802e+03  1.9280247742982474e+03  1.9479013291954932e+03  1.9677778839857031e+03  1.9876544386684470e+03  2.0075309932428856e+03  2.0274075477076667e+03  2.0472841020609558e+03  2.0671606563004270e+03  2.0870372104232624e+03  2.1069137644261364e+03  2.1267903183052099e+03  2.1466668720561202e+03  2.1665434256739541e+03  2.1864199791532515e+03  2.2062965324880010e+03  2.2261730856715458e+03  2.2460496386966338e+03  2.2659261915553834e+03  2.2858027442392572e+03  2.3056792967390252e+03  2.3255558490447415e+03  2.3454324011457870e+03  2.3653089530307557e+03  2.3851855046874593e+03  2.4050620561028886e+03  2.4249386072631619e+03  2.4448151581535740e+03  2.4646917087585412e+03  2.4845682590615756e+03  2.5044448090452761e+03  2.5243213586913057e+03  2.5441979079804005e+03  2.5640744568923533e+03  2.5839510054060374e+03  2.6038275534994286e+03  2.6237041011496285e+03  2.6435806483328802e+03  2.6634571950246864e+03  2.6833337411998868e+03  2.7032102868327552e+03  2.7230868318971593e+03  2.7429633763667298e+03  2.7628399202150717e+03  2.7827164634160963e+03  2.8025930059443062e+03  2.8224695477751939e+03  2.8423460888857348e+03  2.8622226292549558e+03  2.8820991688646168e+03  2.9019757077000227e+03  2.9218522457509657e+03  2.9417287830128757e+03  2.9616053194880919e+03  2.9814818551874055e+03  3.0013583901318989e+03  3.0212349243550125e+03  3.0411114579050641e+03  3.0609879908480470e+03  3.0808645232709673e+03  3.1007410552856636e+03  3.1206175870333932e+03  3.1404941186899391e+03  3.1603706504715929e+03  3.1802471826421861e+03  3.2001237155209974e+03  3.2200002494922310e+03  3.2398767850157515e+03  3.2597533226394216e+03  3.2796298630135420e+03  3.2995064069072841e+03  3.3193829552278594e+03  3.3392595090427662e+03  3.3591360696050770e+03  3.3790126383830898e+03  3.3988892170941954e+03  3.4187658077440560e+03  3.4386424126721872e+03  3.4585190346042432e+03  3.4783956767129343e+03  3.4982723426883754e+03  3.5181490368195105e+03  3.5380257640888444e+03  3.5579025302823416e+03  3.5777793421175002e+03  3.5976562073927330e+03  3.6175331351618192e+03  3.6374101359385522e+03  3.6572872219368437e+03  3.6771644073539360e+03  3.6970417087054011e+03  3.7169191452227797e+03  3.7367967393283993e+03  3.7566745172045444e+03  3.7765525094798240e+03  3.7964307520624311e+03  3.8163092871582876e+03  3.8361881645255239e+03  3.8560674430329032e+03  3.8759471926145056e+03  3.8958274967471461e+03  3.9157084556257096e+03  3.9355901902849341e+03  3.9554728480234617e+03  3.9753566096496884e+03  3.9952416993241709e+03  4.0151283981755068e+03  4.0350170635231680e+03  4.0549081566381160e+03  4.0748022838619499e+03  4.0947002592796771e+03  4.1146032033911042e+03  4.1345127043187003e+03  4.1544310924048423e+03  4.1743619291732402e+03  4.1943109331217902e+03  4.2142879389885593e+03  4.2343100042617771e+03  4.2543920260953755e+03  4.2745926009306577e+03  4.2970513207269951e+03  4.3326275427473802e+03  4.4084825358291318e+03  6.1568047420279245e+03  6.2693784866199921e+03  6.3770546810181322e+03  6.4840597648479416e+03  6.5907579808898672e+03  6.6973429724401403e+03  6.8038553770529070e+03  6.9103244334542214e+03  7.0167746207633800e+03  7.1232246095562632e+03  7.2296902827360764e+03  7.3361875050333892e+03  7.4427342951399569e+03  7.5493533539523987e+03  7.6560759800720598e+03  7.7629492383684237e+03  7.8700526360137665e+03  7.9775317160052755e+03  8.0855262410070873e+03  8.1947670882719376e+03  8.3058607806244690e+03  8.3008929410315159e+03  8.2984130660184546e+03  8.2967629048003928e+03  8.2954925200342441e+03  8.2944564806762301e+03  8.2935855330460836e+03  8.2928376993728270e+03  8.2921851316088068e+03  8.2916085017178048e+03  8.2910939051026126e+03  8.2906310200519183e+03  8.2902119751534301e+03  8.2898306283202837e+03  8.2894820921132614e+03  8.2891624114735496e+03  8.2888683389461039e+03  8.2885971741581925e+03  8.2883466467791277e+03  8.2881148295946259e+03  8.2879000728718875e+03  8.2877009540563322e+03  8.2875162386930751e+03  8.2873448496906622e+03  8.2871858428707365e+03  8.2870383873146111e+03  8.2869017494142881e+03  8.2867752798163001e+03  8.2866584026487417e+03  8.2865506065690024e+03  8.2864514372778212e+03  8.2863604912259234e+03  8.2862774103000138e+03  8.2862018773209729e+03  8.2861336122221273e+03  8.2860723688029175e+03  8.2860179319742401e+03  8.2859701154287213e+03  8.2859287596822742e+03  8.2858937304440351e+03  8.2858649172806563e+03  8.2858422325477986e+03  8.2858256105680630e+03  8.2858150070396296e+03  8.2858103986644128e+03  8.2858117829887997e+03  8.2858191784538103e+03  8.2858326246551751e+03  8.2858521828177090e+03  8.2858779364919901e+03  8.2859099924857055e+03  8.2859484820462767e+03  8.2859935623169167e+03  8.2860454180939978e+03  8.2861042639209663e+03  8.2861703465626397e+03  8.2862439479144650e+03  8.2863253884146598e+03  8.2864150310437653e+03  8.2865132860177946e+03  8.2866206163083880e+03  8.2867375441592758e+03  8.2868646588151041e+03  8.2870026257405116e+03  8.2871521976902786e+03  8.2873142281027049e+03  8.2874896874407859e+03  8.2876796833157296e+03  8.2878854855207610e+03  8.2881085575189645e+03  8.2883505965268741e+03  8.2886135852100670e+03  8.2888998593102297e+03  8.2892121975048540e+03  8.2895539428843658e+03  8.2899291703523850e+03  8.2903429223364292e+03  8.2908015489090267e+03  8.2913132125664506e+03  8.2918886620231733e+03  8.2925424610362734e+03  8.2932949980694739e+03  8.2941757649816063e+03  8.2952283400260731e+03  8.2965180134415441e+03  8.2981634443596358e+03  8.3006179009126154e+03  8.3066935442305803e+03  8.1956715408318869e+03  8.1937185861508860e+03  8.1918560679693428e+03  8.1903934414483037e+03  8.1892188230711845e+03  8.1882432645697072e+03  8.1874134043641616e+03  8.1866952357049659e+03  8.1860654818404273e+03  8.1855074577702626e+03  8.1850088140776452e+03  8.1845601713958340e+03  8.1841542462904681e+03  8.1837852722651769e+03  8.1834486057463428e+03  8.1831404514485612e+03  8.1828576667567704e+03  8.1825976196296388e+03  8.1823580835260445e+03  8.1821371584363869e+03  8.1819332106429019e+03  8.1817448261321215e+03  8.1815707741050010e+03  8.1814099780572060e+03  8.1812614926068236e+03  8.1811244847376820e+03  8.1809982184738265e+03  8.1808820422490417e+03  8.1807753784157303e+03  8.1806777144692869e+03  8.1805885956620932e+03  8.1805076187541290e+03  8.1804344267025372e+03  8.1803687041343219e+03  8.1803101734787106e+03  8.1802585916605667e+03  8.1802137472758650e+03  8.1801754581856239e+03  8.1801435694768988e+03  8.1801179517495002e+03  8.1800984996950656e+03  8.1800851309419231e+03  8.1800777851448402e+03  8.1800764233036025e+03  8.1800810272987792e+03  8.1800915996368321e+03  8.1801081634005423e+03  8.1801307624040746e+03  8.1801594615557515e+03  8.1801943474351165e+03  8.1802355290948772e+03  8.1802831391026739e+03  8.1803373348424329e+03  8.1803983001008583e+03  8.1804662469713103e+03  8.1805414181155047e+03  8.1806240894332732e+03  8.1807145732030549e+03  8.1808132217709899e+03  8.1809204318860484e+03  8.1810366498031945e+03  8.1811623773085830e+03  8.1812981788618363e+03  8.1814446901046595e+03  8.1816026280561164e+03  8.1817728034098927e+03  8.1819561354764082e+03  8.1821536704860309e+03  8.1823666042077120e+03  8.1825963101684010e+03  8.1828443752246212e+03  8.1831126449031317e+03  8.1834032818924879e+03  8.1837188424894093e+03  8.1840623779376238e+03  8.1844375708607495e+03  8.1848489220872507e+03  8.1853020113051243e+03  8.1858038683316445e+03  8.1863635145137423e+03  8.1869927749234248e+03  8.1877075418329205e+03  8.1885298122653285e+03  8.1894908269681800e+03  8.1906333387491022e+03  8.1919940002225512e+03  8.1934732885091598e+03  8.1943738577716013e+03  8.0851009391129173e+03  8.0847893166809336e+03  8.0841054009012232e+03  8.0833118649774160e+03  8.0825302978659702e+03  8.0818018839291135e+03  8.0811363583300918e+03  8.0805322781333243e+03  8.0799845647773882e+03  8.0794873221156377e+03  8.0790348817353724e+03  8.0786221516218184e+03  8.0782446863587184e+03  8.0778986505139328e+03  8.0775807470916707e+03  8.0772881406339393e+03  8.0770183863046741e+03  8.0767693684627366e+03  8.0765392489884171e+03  8.0763264244067605e+03  8.0761294905056111e+03  8.0759472131632301e+03  8.0757785042501082e+03  8.0756224016520237e+03  8.0754780526354671e+03  8.0753446999275566e+03  8.0752216700080699e+03  8.0751083632124892e+03  8.0750042453261049e+03  8.0749088404133918e+03  8.0748217246777185e+03  8.0747425211865248e+03  8.0746708953288535e+03  8.0746065508973534e+03  8.0745492267068876e+03  8.0744986936780369e+03  8.0744547523266310e+03  8.0744172306110950e+03  8.0743859820979424e+03  8.0743608844128912e+03  8.0743418379510958e+03  8.0743287648250462e+03  8.0743216080330476e+03  8.0743203308351303e+03  8.0743249163265937e+03  8.0743353672026487e+03  8.0743517057106628e+03  8.0743739737893156e+03  8.0744022333970406e+03  8.0744365670350098e+03  8.0744770784732173e+03  8.0745238936915575e+03  8.0745771620517826e+03  8.0746370577204789e+03  8.0747037813683646e+03  8.0747775621771361e+03  8.0748586601922070e+03  8.0749473690683171e+03  8.0750440192653396e+03  8.0751489817645561e+03  8.0752626723914018e+03  8.0753855568504550e+03  8.0755181566029378e+03  8.0756610557477625e+03  8.0758149091056512e+03  8.0759804517542016e+03  8.0761585103221787e+03  8.0763500164264169e+03  8.0765560227272417e+03  8.0767777221897504e+03  8.0770164712679043e+03  8.0772738178686304e+03  8.0775515350815203e+03  8.0778516617209070e+03  8.0781765505942221e+03  8.0785289248022318e+03  8.0789119406720056e+03  8.0793292517435348e+03  8.0797850584486796e+03  8.0802841054087721e+03  8.0808315347669522e+03  8.0814323753613635e+03  8.0820901427027457e+03  8.0828033968804211e+03  8.0835584597644538e+03  8.08431913