<?xml version="1.0"?>
<VTKFile type="UnstructuredGrid"  version="0.1"  >
<UnstructuredGrid>
<Piece  NumberOfPoints="21600" NumberOfCells="42542">
<Points>
<DataArray  type="Float64"  NumberOfComponents="3"  format="ascii">0 0 0  0.77 0 0  0.77 0.15 0  0 0.15 0  0.003221757322170014 0 0  0.006443514644340046 0 0  0.009665271966510193 0 0  0.01288702928868034 0 0  0.01610878661085048 0 0  0.01933054393302049 0 0  0.02255230125519027 0 0  0.02577405857735967 0 0  0.02899581589952872 0 0  0.03221757322169801 0 0  0.03543933054386744 0 0  0.03866108786603686 0 0  0.04188284518820627 0 0  0.0451046025103757 0 0  0.04832635983254521 0 0  0.05154811715471607 0 0  0.05476987447688695 0 0  0.05799163179905782 0 0  0.06121338912122846 0 0  0.06443514644339859 0 0  0.06765690376556875 0 0  0.0708786610877389 0 0  0.07410041840990904 0 0  0.0773221757320792 0 0  0.08054393305425039 0 0  0.08376569037642198 0 0  0.0869874476985936 0 0  0.09020920502076518 0 0  0.0934309623429339 0 0  0.0966527196651024 0 0  0.09987447698726967 0 0  0.1030962343094369 0 0  0.1063179916316041 0 0  0.1095397489537714 0 0  0.1127615062759386 0 0  0.1159832635981051 0 0  0.1192050209202709 0 0  0.1224267782424358 0 0  0.1256485355646001 0 0  0.1288702928867644 0 0  0.1320920502089288 0 0  0.1353138075310958 0 0  0.1385355648532632 0 0  0.1417573221754333 0 0  0.1449790794976035 0 0  0.1482008368197736 0 0  0.1514225941419428 0 0  0.1546443514641101 0 0  0.157866108786276 0 0  0.1610878661084403 0 0  0.1643096234306047 0 0  0.167531380752769 0 0  0.1707531380749333 0 0  0.1739748953970977 0 0  0.177196652719262 0 0  0.1804184100414264 0 0  0.1836401673635935 0 0  0.1868619246857611 0 0  0.1900836820079313 0 0  0.1933054393301014 0 0  0.1965271966522716 0 0  0.1997489539744406 0 0  0.2029707112966078 0 0  0.2061924686187736 0 0  0.209414225940938 0 0  0.2126359832631022 0 0  0.2158577405852666 0 0  0.219079497907431 0 0  0.2223012552295953 0 0  0.2255230125517597 0 0  0.2287447698739242 0 0  0.2319665271960914 0 0  0.2351882845182592 0 0  0.2384100418404293 0 0  0.2416317991625994 0 0  0.2448535564847696 0 0  0.2480753138069371 0 0  0.2512970711291014 0 0  0.2545188284512658 0 0  0.2577405857734302 0 0  0.2609623430955986 0 0  0.2641841004177688 0 0  0.2674058577399389 0 0  0.270627615062109 0 0  0.2738493723842792 0 0  0.2770711297064487 0 0  0.280292887028613 0 0  0.2835146443507774 0 0  0.2867364016729417 0 0  0.2899581589951061 0 0  0.2931799163172705 0 0  0.2964016736394348 0 0  0.2996234309615992 0 0  0.3028451882837672 0 0  0.3060669456059373 0 0  0.3092887029281075 0 0  0.3125104602502776 0 0  0.3157322175724478 0 0  0.3189539748946177 0 0  0.322175732216782 0 0  0.3253974895389464 0 0  0.3286192468611107 0 0  0.3318410041832751 0 0  0.3350627615054395 0 0  0.3382845188276038 0 0  0.3415062761497681 0 0  0.3447280334719325 0 0  0.3479497907940968 0 0  0.3511715481162612 0 0  0.3543933054384255 0 0  0.3576150627605947 0 0  0.3608368200827649 0 0  0.364058577404935 0 0  0.3672803347271051 0 0  0.3705020920492753 0 0  0.373723849371444 0 0  0.3769456066936084 0 0  0.3801673640157748 0 0  0.383389121337945 0 0  0.3866108786601209 0 0  0.3898326359823028 0 0  0.3930543933044846 0 0  0.3962761506266662 0 0  0.399497907948848 0 0  0.4027196652710298 0 0  0.4059414225932116 0 0  0.4091631799153934 0 0  0.4123849372375751 0 0  0.4156066945597569 0 0  0.4188284518819387 0 0  0.4220502092041222 0 0  0.4252719665263097 0 0  0.4284937238484974 0 0  0.4317154811706849 0 0  0.4349372384928725 0 0  0.4381589958150601 0 0  0.4413807531372476 0 0  0.4446025104594352 0 0  0.4478242677816181 0 0  0.4510460251037998 0 0  0.4542677824259815 0 0  0.4574895397481634 0 0  0.4607112970703451 0 0  0.4639330543925269 0 0  0.4671548117147087 0 0  0.4703765690368904 0 0  0.4735983263590722 0 0  0.4768200836812568 0 0  0.4800418410034444 0 0  0.483263598325632 0 0  0.4864853556478196 0 0  0.4897071129700028 0 0  0.4929288702921845 0 0  0.4961506276143663 0 0  0.4993723849365479 0 0  0.5025941422587239 0 0  0.5058158995809008 0 0  0.5090376569030826 0 0  0.5122594142252677 0 0  0.515481171547461 0 0  0.5187029288696494 0 0  0.5219246861918312 0 0  0.525146443514013 0 0  0.5283682008361947 0 0  0.5315899581583845 0 0  0.5348117154805778 0 0  0.5380334728027617 0 0  0.5412552301249435 0 0  0.5444769874471141 0 0  0.5476987447692853 0 0  0.550920502091467 0 0  0.5541422594136513 0 0  0.5573640167358447 0 0  0.560585774058034 0 0  0.5638075313802158 0 0  0.5670292887023975 0 0  0.5702510460245793 0 0  0.5734728033467682 0 0  0.5766945606689615 0 0  0.579916317991155 0 0  0.5831380753133483 0 0  0.5863598326355314 0 0  0.5895815899577131 0 0  0.5928033472798949 0 0  0.5960251046020785 0 0  0.5992468619242718 0 0  0.6024686192464619 0 0  0.6056903765686437 0 0  0.6089121338908206 0 0  0.6121338912129908 0 0  0.6153556485351673 0 0  0.618577405857349 0 0  0.6217991631795386 0 0  0.625020920501732 0 0  0.6282426778239159 0 0  0.6314644351460976 0 0  0.6346861924682795 0 0  0.6379079497904622 0 0  0.6411297071126555 0 0  0.6443514644348465 0 0  0.6475732217570283 0 0  0.650794979079206 0 0  0.6540167364013761 0 0  0.6572384937235518 0 0  0.6604602510457335 0 0  0.6636820083679225 0 0  0.6669037656901158 0 0  0.6701255230123004 0 0  0.6733472803344823 0 0  0.6765690376566641 0 0  0.6797907949788459 0 0  0.6830125523010393 0 0  0.686234309623231 0 0  0.6894560669454127 0 0  0.6926778242675914 0 0  0.6958995815897615 0 0  0.6991213389119363 0 0  0.7023430962341181 0 0  0.7055648535563062 0 0  0.7087866108784994 0 0  0.712008368200685 0 0  0.7152301255228668 0 0  0.7184518828450486 0 0  0.7216736401672305 0 0  0.724895397489423 0 0  0.7281171548116155 0 0  0.7313389121337973 0 0  0.7345606694559768 0 0  0.7377824267781468 0 0  0.7410041841003209 0 0  0.7442259414225026 0 0  0.7474476987446899 0 0  0.7506694560668832 0 0  0.7538912133890696 0 0  0.7571129707112513 0 0  0.760334728033433 0 0  0.7635564853556149 0 0  0.7667782426778067 0 0  0.77 0.001685393258423789 0  0.77 0.003370786516847669 0  0.77 0.005056179775271247 0  0.77 0.006741573033694517 0  0.77 0.008426966292117821 0  0.77 0.01011235955054176 0  0.77 0.01179775280896623 0  0.77 0.0134831460673904 0  0.77 0.01516853932581489 0  0.77 0.01685393258423891 0  0.77 0.01853932584266291 0  0.77 0.02022471910108589 0  0.77 0.02191011235950794 0  0.77 0.02359550561792999 0  0.77 0.02528089887635205 0  0.77 0.02696629213477411 0  0.77 0.02865168539319714 0  0.77 0.03033707865161956 0  0.77 0.03202247191004162 0  0.77 0.03370786516846367 0  0.77 0.03539325842688572 0  0.77 0.03707865168530778 0  0.77 0.03876404494372984 0  0.77 0.0404494382021519 0  0.77 0.04213483146057394 0  0.77 0.04382022471899601 0  0.77 0.04550561797741807 0  0.77 0.04719101123584013 0  0.77 0.04887640449426219 0  0.77 0.05056179775268425 0  0.77 0.0522471910111063 0  0.77 0.05393258426952837 0  0.77 0.05561797752795105 0  0.77 0.05730337078637505 0  0.77 0.05898876404479723 0  0.77 0.0606741573032193 0  0.77 0.06235955056164135 0  0.77 0.06404494382006341 0  0.77 0.06573033707848548 0  0.77 0.06741573033690752 0  0.77 0.06910112359532959 0  0.77 0.07078651685375165 0  0.77 0.0724719101121737 0  0.77 0.07415730337059653 0  0.77 0.07584269662902443 0  0.77 0.07752808988745429 0  0.77 0.07921348314588413 0  0.77 0.08089887640431678 0  0.77 0.08258426966274923 0  0.77 0.08426966292117907 0  0.77 0.08595505617960987 0  0.77 0.08764044943804362 0  0.77 0.08932584269647403 0  0.77 0.09101123595490389 0  0.77 0.09269662921333673 0  0.77 0.09438202247176901 0  0.77 0.09606741573019884 0  0.77 0.09775280898862983 0  0.77 0.09943820224706355 0  0.77 0.1011235955054938 0  0.77 0.1028089887639236 0  0.77 0.1044943820223567 0  0.77 0.1061797752807888 0  0.77 0.1078651685392186 0  0.77 0.1095505617976498 0  0.77 0.1112359550560835 0  0.77 0.1129213483145136 0  0.77 0.1146067415729456 0  0.77 0.1162921348313787 0  0.77 0.1179775280898085 0  0.77 0.1196629213482387 0  0.77 0.1213483146066724 0  0.77 0.1230337078651035 0  0.77 0.1247191011235322 0  0.77 0.1264044943819605 0  0.77 0.1280898876403903 0  0.77 0.1297752808988242 0  0.77 0.1314606741572554 0  0.77 0.1331460674156853 0  0.77 0.1348314606741154 0  0.77 0.1365168539325504 0  0.77 0.1382022471909802 0  0.77 0.13988764044941 0  0.77 0.1415730337078443 0  0.77 0.1432584269662752 0  0.77 0.144943820224705 0  0.77 0.1466292134831355 0  0.77 0.1483146067415701 0  0.7667782426778414 0.15 0  0.7635564853556813 0.15 0  0.7603347280335111 0.15 0  0.757112970711341 0.15 0  0.7538912133891708 0.15 0  0.7506694560670005 0.15 0  0.7474476987448303 0.15 0  0.7442259414226602 0.15 0  0.74100418410049 0.15 0  0.7377824267783197 0.15 0  0.7345606694561496 0.15 0  0.7313389121339794 0.15 0  0.7281171548118092 0.15 0  0.724895397489639 0.15 0  0.7216736401674688 0.15 0  0.7184518828452986 0.15 0  0.7152301255231284 0.15 0  0.7120083682009583 0.15 0  0.708786610878788 0.15 0  0.7055648535566178 0.15 0  0.7023430962344477 0.15 0  0.6991213389122775 0.15 0  0.6958995815901072 0.15 0  0.692677824267937 0.15 0  0.6894560669457669 0.15 0  0.6862343096235967 0.15 0  0.6830125523014264 0.15 0  0.6797907949792563 0.15 0  0.6765690376570861 0.15 0  0.6733472803349159 0.15 0  0.6701255230127456 0.15 0  0.6669037656905755 0.15 0  0.6636820083684053 0.15 0  0.6604602510462351 0.15 0  0.657238493724065 0.15 0  0.6540167364018947 0.15 0  0.6507949790797245 0.15 0  0.6475732217575543 0.15 0  0.644351464435384 0.15 0  0.6411297071132231 0.15 0  0.6379079497910645 0.15 0  0.634686192468906 0.15 0  0.6314644351467468 0.15 0  0.6282426778245765 0.15 0  0.6250209205024085 0.15 0  0.62179916318025 0.15 0  0.6185774058580914 0.15 0  0.6153556485359328 0.15 0  0.6121338912137689 0.15 0  0.6089121338915987 0.15 0  0.6056903765694354 0.15 0  0.6024686192472768 0.15 0  0.5992468619251182 0.15 0  0.5960251046029597 0.15 0  0.5928033472807912 0.15 0  0.589581589958621 0.15 0  0.5863598326364508 0.15 0  0.5831380753142792 0.15 0  0.5799163179920974 0.15 0  0.57669456
[...]
<PointData  Scalars="pressure"> 
<DataArray  type="Float64"  Name="pressure"  format="ascii">9.1208549825994960e+03  4.0549110702635865e-01  -3.0042996235222941e-01  9.1066376185885492e+03  8.9822448609109688e+03  8.8735106874070170e+03  8.7657462854029491e+03  8.6583043557621513e+03  8.5512283696311242e+03  8.4443837163023909e+03  8.3376932043136967e+03  8.2311123675803519e+03  8.1246123607801601e+03  8.0181733132002837e+03  7.9117808877684192e+03  7.8054242976327887e+03  7.6990950978720603e+03  7.5927864027335145e+03  7.4864923426584610e+03  7.3802076546183216e+03  7.2739273369899793e+03  7.1676463149758029e+03  7.0613590632520882e+03  6.9550591284410038e+03  6.8487384532185233e+03  6.7423861305676901e+03  6.6359858212936469e+03  6.5295129339850482e+03  6.4229387485083398e+03  6.3162135436911358e+03  6.2090629152869014e+03  6.1005768026683945e+03  5.9863717960412023e+03  4.2849300861594729e+03  4.2149526408606234e+03  4.1453201508029842e+03  4.0925284778134373e+03  4.0761245288446307e+03  4.0556902736541178e+03  4.0355627830538097e+03  4.0155459439097858e+03  3.9955718374610087e+03  3.9756240386942300e+03  3.9556935062130101e+03  3.9357748440567757e+03  3.9158647176552608e+03  3.8959609414811575e+03  3.8760620159526075e+03  3.8561668751645561e+03  3.8362747393366021e+03  3.8163850241489808e+03  3.7964972827741117e+03  3.7766111675478996e+03  3.7567264038897365e+03  3.7368427721102021e+03  3.7169600944408721e+03  3.6970782256062494e+03  3.6771970458505875e+03  3.6573164556991387e+03  3.6374363719662024e+03  3.6175567246737132e+03  3.5976774546444981e+03  3.5777985116019686e+03  3.5579198526548880e+03  3.5380414410779827e+03  3.5181632453226011e+03  3.4982852382077403e+03  3.4784073962539856e+03  3.4585296991316118e+03  3.4386521292005737e+03  3.4187746711251089e+03  3.3988973115492422e+03  3.3790200388224239e+03  3.3591428427665937e+03  3.3392657144777672e+03  3.3193886461564198e+03  3.2995116309621822e+03  3.2796346628888555e+03  3.2597577366568635e+03  3.2398808476203290e+03  3.2200039916867727e+03  3.2001271652474816e+03  3.1802503651171123e+03  3.1603735884812659e+03  3.1404968328507757e+03  3.1206200960220058e+03  3.1007433760421254e+03  3.0808666711788201e+03  3.0609899798938518e+03  3.0411133008199263e+03  3.0212366327404643e+03  3.0013599745717706e+03  2.9814833253475886e+03  2.9616066842054115e+03  2.9417300503745182e+03  2.9218534231654357e+03  2.9019768019606940e+03  2.8821001862066678e+03  2.8622235754064554e+03  2.8423469691135388e+03  2.8224703669262026e+03  2.8025937684826290e+03  2.7827171734565641e+03  2.7628405815535161e+03  2.7429639925072606e+03  2.7230874060769484e+03  2.7032108220444097e+03  2.6833342402117983e+03  2.6634576603994992e+03  2.6435810824442769e+03  2.6237045061976141e+03  2.6038279315242594e+03  2.5839513583009038e+03  2.5640747864150258e+03  2.5441982157638190e+03  2.5243216462533369e+03  2.5044450777976099e+03  2.4845685103178967e+03  2.4646919437420338e+03  2.4448153780038456e+03  2.4249388130426064e+03  2.4050622488024965e+03  2.3851856852322508e+03  2.3653091222847452e+03  2.3454325599166477e+03  2.3255559980881421e+03  2.3056794367625571e+03  2.2858028759061472e+03  2.2659263154878608e+03  2.2460497554791314e+03  2.2261731958536816e+03  2.2062966365873544e+03  2.1864200776579532e+03  2.1665435190451035e+03  2.1466669607301119e+03  2.1267904026958554e+03  2.1069138449267243e+03  2.0870372874084587e+03  2.0671607301280897e+03  2.0472841730738594e+03  2.0274076162351550e+03  2.0075310596024460e+03  1.9876545031672549e+03  1.9677779469220302e+03  1.9479013908601694e+03  1.9280248349759688e+03  1.9081482792645904e+03  1.8882717237220252e+03  1.8683951683450759e+03  1.8485186131313362e+03  1.8286420580791714e+03  1.8087655031876957e+03  1.7888889484567956e+03  1.7690123938871286e+03  1.7491358394800895e+03  1.7292592852378534e+03  1.7093827311633211e+03  1.6895061772601732e+03  1.6696296235328950e+03  1.6497530699868137e+03  1.6298765166280159e+03  1.6099999634634621e+03  1.5901234105010369e+03  1.5702468577495115e+03  1.5503703052187266e+03  1.5304937529194633e+03  1.5106172008635015e+03  1.4907406490637693e+03  1.4708640975343080e+03  1.4509875462904599e+03  1.4311109953489135e+03  1.4112344447276009e+03  1.3913578944459971e+03  1.3714813445249852e+03  1.3516047949870792e+03  1.3317282458566324e+03  1.3118516971597355e+03  1.2919751489245484e+03  1.2720986011812427e+03  1.2522220539621235e+03  1.2323455073018863e+03  1.2124689612376847e+03  1.1925924158093883e+03  1.1727158710597168e+03  1.1528393270343920e+03  1.1329627837824198e+03  1.1130862413561385e+03  1.0932096998116067e+03  1.0733331592088102e+03  1.0534566196118958e+03  1.0335800810896269e+03  1.0137035437155245e+03  9.9382700756820157e+02  9.7395047273181467e+02  9.5407393929634884e+02  9.3419740735822666e+02  9.1432087702068270e+02  8.9444434839435735e+02  8.7456782159789191e+02  8.5469129675839599e+02  8.3481477401232701e+02  8.1493825350627799e+02  7.9506173539783049e+02  7.7518521985678535e+02  7.5530870706618100e+02  7.3543219722362107e+02  7.1555569054299042e+02  6.9567918725615380e+02  6.7580268761531045e+02  6.5592619189549475e+02  6.3604970039768091e+02  6.1617321345250798e+02  5.9629673142456556e+02  5.7642025471795557e+02  5.5654378378293995e+02  5.3666731912406306e+02  5.1679086131056533e+02  4.9691441098896064e+02  4.7703796889906505e+02  4.5716153589460896e+02  4.3728511296927672e+02  4.1740870129081168e+02  3.9753230224533206e+02  3.7765591749595291e+02  3.5777954906133112e+02  3.3790319942199011e+02  3.1802687166716487e+02  2.9815056970060647e+02  2.7827429853479646e+02  2.5839806472163008e+02  2.3852187699852453e+02  2.1864574728801753e+02  1.9876969230011792e+02  1.7889373621023967e+02  1.5901791537642211e+02  1.3914228718914026e+02  1.1926694762448737e+02  9.9392070533215019e+01  7.9518049442180981e+01  5.9645944518357965e+01  3.9775655182446677e+01  1.9905395017115460e+01  8.4075679511079027e-02  4.3198869230877106e-03  9.2468852523568405e-04  5.6852749418586322e-04  3.2495009816421418e-04  1.9100640262409725e-04  1.1944322502802531e-04  7.8883909878448176e-05  5.4500989786071493e-05  3.9092380867472480e-05  2.8932541514340201e-05  2.1986285530555609e-05  1.7087629126911199e-05  1.3539762640417579e-05  1.0910416903452635e-05  8.9224411583087841e-06  7.3928834170538597e-06  6.1978133229927048e-06  5.2513300876214600e-06  4.4926584535161558e-06  3.8780013863620783e-06  3.3752702710206070e-06  2.9606007679503617e-06  2.6160030602192207e-06  2.3277480998444146e-06  2.0852408211599187e-06  1.8802213591738509e-06  1.7061908740121625e-06  1.5579934330070329e-06  1.4315080172748619e-06  1.3234191341781216e-06  1.2310442472352668e-06  1.1522028613799979e-06  1.0851162949312873e-06  1.0283304506286470e-06  9.8065597220373148e-07  9.4112157684589845e-07  9.0893762463959521e-07  8.8346760917129750e-07  8.6420592123793347e-07  8.5076062173570387e-07  8.4284028008010116e-07  8.4024418439378932e-07  8.4285543897295841e-07  8.5063653797916049e-07  8.6362727423803026e-07  8.8194472450997917e-07  9.0578542682785786e-07  9.3542970278488374e-07  9.7124833957087821e-07  1.0137118636496841e-06  1.0634028224520883e-06  1.1210315466718234e-06  1.1874561777266042e-06  1.2637077573168303e-06  1.3510217018032129e-06  1.4508771635847761e-06  1.5650463357215684e-06  1.6956563937518889e-06  1.8452676092178781e-06  2.0169722912249604e-06  2.2145207830386745e-06  2.4424828101642537e-06  2.7064553010391018e-06  3.0133319146021654e-06  3.3716546785571084e-06  3.7920759774573754e-06  4.2879694523666602e-06  4.8762429745652389e-06  5.5784269263051134e-06  6.4221381457774658e-06  7.4430559252567188e-06  8.6875910329777082e-06  1.0216477456829885e-05  1.2109551517998180e-05  1.4471952186369532e-05  1.7441746731466881e-05  2.1198235589376223e-05  2.5968237322051757e-05  3.2023738675716590e-05  3.9662776892027158e-05  4.9212593313393135e-05  6.1709095614049394e-05  9.1607341537724594e-05  3.6482712457716913e-04  3.3469963054462647e-03  2.3683373375650449e-02  1.3918325652070771e-02  1.9712063520505009e+01  3.9716791056745542e+01  5.9604593010705109e+01  7.9486587878229642e+01  9.9367114176846684e+01  1.1924633781837085e+02  1.3912479665463073e+02  1.5900278377857629e+02  1.7888045632963215e+02  1.9875790837815288e+02  2.1863519983565624e+02  2.3851237061152187e+02  2.5838944830813290e+02  2.7826645262403542e+02  2.9814339799436067e+02  3.1802029524013585e+02  3.3789715263477530e+02  3.5777397661452505e+02  3.7765077226413922e+02  3.9752754365650964e+02  4.1740429409498745e+02  4.3728102628938012e+02  4.5715774248582500e+02  4.7703444456402366e+02  4.9691113411097751e+02  5.1678781247757547e+02  5.3666448082248098e+02  5.5654114014651793e+02  5.7641779131985345e+02  5.9629443510366730e+02  6.1617107216757211e+02  6.3604770310371191e+02  6.5592432843826646e+02  6.7580094864088369e+02  6.9567756413248105e+02  7.1555417529173099e+02  7.3543078246047855e+02  7.5530738594830189e+02  7.7518398603637252e+02  7.9506058298067649e+02  8.1493717701497587e+02  8.3481376835309072e+02  8.5469035719100339e+02  8.7456694370873015e+02  8.9444352807169696e+02  9.1432011043229863e+02  9.3419669093118137e+02  9.5407326969815665e+02  9.7394984685324039e+02  9.9382642250744652e+02  1.0137029967634794e+03  1.0335795697165966e+03  1.0534561414551420e+03  1.0733327120610531e+03  1.0932092816104466e+03  1.1130858501739031e+03  1.1329624178170238e+03  1.1528389846007874e+03  1.1727155505819189e+03  1.1925921158130423e+03  1.2124686803431362e+03  1.2323452442177197e+03  1.2522218074791222e+03  1.2720983701667592e+03  1.2919749323172298e+03  1.3118514939645042e+03  1.3317280551402062e+03  1.3516046158737151e+03  1.3714811761922795e+03  1.3913577361212447e+03  1.4112342956839846e+03  1.4311108549021401e+03  1.4509874137958614e+03  1.4708639723837171e+03  1.4907405306828575e+03  1.5106170887090907e+03  1.5304936464768441e+03  1.5503702039994123e+03  1.5702467612890375e+03  1.5901233183567949e+03  1.6099998752127583e+03  1.6298764318659735e+03  1.6497529883245004e+03  1.6696295445956291e+03  1.6895061006857554e+03  1.7093826566004286e+03  1.7292592123443717e+03  1.7491357679215862e+03  1.7690123233352867e+03  1.7888888785879431e+03  1.8087654336812986e+03  1.8286419886163794e+03  1.8485185433935005e+03  1.8683950980122918e+03  1.8882716524716507e+03  1.9081482067697602e+03  1.9280247609041126e+03  1.9479013148714780e+03  1.9677778686679035e+03  1.9876544222886639e+03  2.0075309757283478e+03  2.0274075289807461e+03  2.0472840820388515e+03  2.0671606348948521e+03  2.0870371875401006e+03  2.1069137399650872e+03  2.1267902921594136e+03  2.1466668441117627e+03  2.1665433958098652e+03  2.1864199472404716e+03  2.2062964983893398e+03  2.2261730492411243e+03  2.2460495997794069e+03  2.2659261499866511e+03  2.2858026998441646e+03  2.3056792493320495e+03  2.3255557984291777e+03  2.3454323471132252e+03  2.3653088953605638e+03  2.3851854431462698e+03  2.4050619904441037e+03  2.4249385372264783e+03  2.4448150834645412e+03  2.4646916291281641e+03  2.4845681741859712e+03  2.5044447186054122e+03  2.5243212623528307e+03  2.5441978053935836e+03  2.5640743476921853e+03  2.5839508892124877e+03  2.6038274299179279e+03  2.6237039697718078e+03  2.6435805087376039e+03  2.6634570467794638e+03  2.6833335838627031e+03  2.7032101199544250e+03  2.7230866550242717e+03  2.7429631890453120e+03  2.7628397219950702e+03  2.7827162538568446e+03  2.8025927846211162e+03  2.8224693142872784e+03  2.8423458428656731e+03  2.8622223703799559e+03  2.8820988968698639e+03  2.9019754223944506e+03  2.9218519470358451e+03  2.9417284709036535e+03  2.9616049941400065e+03  2.9814815169254784e+03  3.0013580394859700e+03  3.0212345621006234e+03  3.0411110851111025e+03  3.0609876089322024e+03  3.0808641340642062e+03  3.1007406611071397e+03  3.1206171907774096e+03  3.1404937239268388e+03  3.1603702615647558e+03  3.1802468048836449e+03  3.2001233552886038e+03  3.2199999144317430e+03  3.2398764842518508e+03  3.2597530670202104e+03  3.2796296653939439e+03  3.2995062824776669e+03  3.3193829218952728e+03  3.3392595878735701e+03  3.3591362853392675e+03  3.3790130200326175e+03  3.3988897986398947e+03  3.4187666289486888e+03  3.4386435200306928e+03  3.4585204824566772e+03  3.4783975285511374e+03  3.4982746726943747e+03  3.5181519316825293e+03  3.5380293251591156e+03  3.5579068761345989e+03  3.5777846116160731e+03  3.5976625633752697e+03  3.6175407688919408e+03  3.6374192725224129e+03  3.6572981269590309e+03  3.6771773950711249e+03  3.6970571522512491e+03  3.7169374894394327e+03  3.7368185170707411e+03  3.7567003702977204e+03  3.7765832160030109e+03  3.7964672623710444e+03  3.8163527721890550e+03  3.8362400817032972e+03  3.8561296279503072e+03  3.8760219893720146e+03  3.8959179478927726e+03  3.9158185868810774e+03  3.9357254515031077e+03  3.9556408222741848e+03  3.9755682027085277e+03  3.9955132433982881e+03  4.0154856988457473e+03  4.0355025306733992e+03  4.0555785264826609e+03  4.0757721384008364e+03  4.0982218770628815e+03  4.1337823274575940e+03  4.2096023156361271e+03  5.8837393962561655e+03  5.9962529843951952e+03  6.1038655655884422e+03  6.2108000257346666e+03  6.3174186843959615e+03  6.4239129745821720e+03  6.5303209577120697e+03  6.6366686953028457e+03  6.7429766663497239e+03  6.8492584071373749e+03  6.9555230627152341e+03  7.0617774303660635e+03  7.1680269632488271e+03  7.2742763235035791e+03  7.3805297730579287e+03  7.4867914794471108e+03  7.5930657804816065e+03  7.6993574478094570e+03  7.8056719876072057e+03  7.9120160232981480e+03  8.0183978252717270e+03  8.1248280944532380e+03  8.2313211913580417e+03  8.3378971793327946e+03  8.4445854301850650e+03  8.5514315877588942e+03  8.6585141098748154e+03  8.7659777730143014e+03  8.8739617972550459e+03  8.9831967108788485e+03  9.0942884716567751e+03  9.0893190828169154e+03  9.0868364924857615e+03  9.0851824803135514e+03  9.0839071452938642e+03  9.0828651003334871e+03  9.0819871438710579e+03  9.0812313578958110e+03  9.0805699608869290e+03  9.0799836971097957e+03  9.0794587390016695e+03  9.0789848455599877e+03  9.0785542287065637e+03  9.0781608312982207e+03  9.0777998514862120e+03  9.0774674195560747e+03  9.0771603723406752e+03  9.0768760919804681e+03  9.0766123882624488e+03  9.0763674111736891e+03  9.0761395848448974e+03  9.0759275569217989e+03  9.0757301592522144e+03  9.0755463769994130e+03  9.0753753241175455e+03  9.0752162236913337e+03  9.0750683920382380e+03  9.0749312257525016e+03  9.0748041910723095e+03  9.0746868150987902e+03  9.0745786785045784e+03  9.0744794094506215e+03  9.0743886784912120e+03  9.0743061942940385e+03  9.0742317000378189e+03  9.0741649703780713e+03  9.0741058088934133e+03  9.0740540459420135e+03  9.0740095368717903e+03  9.0739721605389313e+03  9.0739418180985012e+03  9.0739184320384593e+03  9.0739019454347908e+03  9.0738923214106635e+03  9.0738895427876087e+03  9.0738936119208665e+03  9.0739045507149585e+03  9.0739224008196397e+03  9.0739472240100513e+03  9.0739791027590254e+03  9.0740181410138321e+03  9.0740644651943785e+03  9.0741182254354953e+03  9.0741795971023275e+03  9.0742487826153538e+03  9.0743260136311419e+03  9.0744115536360277e+03  9.0745057010241035e+03  9.0746087927486406e+03  9.0747212086584314e+03  9.0748433766591606e+03  9.0749757788767329e+03  9.0751189590478807e+03  9.0752735314262645e+03  9.0754401915764101e+03  9.0756197295408201e+03  9.0758130460185148e+03  9.0760211724044311e+03  9.0762452958328631e+03  9.0764867907838780e+03  9.0767472594090395e+03  9.0770285836064377e+03  9.0773329931755270e+03  9.0776631563619703e+03  9.0780223021818747e+03  9.0784143888317230e+03  9.0788443405660182e+03  9.0793183891316439e+03  9.0798445799883903e+03  9.0804335476496708e+03  9.0810997461266033e+03  9.0818634602480342e+03  9.0827540859975161e+03  9.0838151151043949e+03  9.0851117621679823e+03  9.0867626235227963e+03  9.0892209225122642e+03  9.0952988095204655e+03  8.9842789008000636e+03  8.9823237118902343e+03  8.9804573101467795e+03  8.9789891874832938e+03  8.9778075119625173e+03  8.9768234001930250e+03  8.9759835679767530e+03  8.9752540970320224e+03  8.9746118085719900e+03  8.9740401233870252e+03  8.9735268039643233e+03  8.9730625872434975e+03  8.9726403088316438e+03  8.9722543224231631e+03  8.9719001043117532e+03  8.9715739774204376e+03  8.9712729145031244e+03  8.9709943950325378e+03  8.9707362992807284e+03  8.9704968286723561e+03  8.9702744450289320e+03  8.9700678236173389e+03  8.9698758164355786e+03  8.9696974231938621e+03  8.9695317681526139e+03  8.9693780814697984e+03  8.9692356840570956e+03  8.9691039751938679e+03  8.9689824223287524e+03  8.9688705526321119e+03  8.9687679459615720e+03  8.9686742289773210e+03  8.9685890702004563e+03  8.9685121758508158e+03  8.9684432863344264e+03  8.9683821732766173e+03  8.9683286370175447e+03  8.9682825045030950e+03  8.9682436275172968e+03  8.9682118812128811e+03  8.9681871629053221e+03  8.9681693911029015e+03  8.9681585047513108e+03  8.9681544626766718e+03  8.9681572432151970e+03  8.9681668440219855e+03  8.9681832820552881e+03  8.9682065937361258e+03  8.9682368352869289e+03  8.9682740832567470e+03  8.9683184352444714e+03  8.9683700108362355e+03  8.9684289527781257e+03  8.9684954284114974e+03  8.9685696314050438e+03  8.9686517838264772e+03  8.9687421386069454e+03  8.9688409824641585e+03  8.9689486393661045e+03  8.9690654746373511e+03  8.9691918998353121e+03  8.9693283785564508e+03  8.9694754333743640e+03  8.9696336541664550e+03  8.9698037081578568e+03  8.9699863521067055e+03  8.9701824471829677e+03  8.9703929772665924e+03  8.9706190716289129e+03  8.9708620332918508e+03  8.9711233748249306e+03  8.9714048640043948e+03  8.9717085827221199e+03  8.9720370039519421e+03  8.9723930937123459e+03  8.9727804482250467e+03  8.9732034815623538e+03  8.9736676872117987e+03  8.9741800103304886e+03  8.9747493901877733e+03  8.9753875734401190e+03  8.9761103786989188e+03  8.9769397351607440e+03  8.9779068226235177e+03  8.9790543408282883e+03  8.9804188982821470e+03  8.9819009383810262e+03  8.9828030928705375e+03  8.8737166558450190e+03  8.8734026840606239e+03  8.8727146973824711e+03  8.8719154048739529e+03  8.8711264517617783e+03  8.8703890936184289e+03  8.8697131502067750e+03  8.8690972749480643e+03  8.8685364955919085e+03  8.8680250303484918e+03  8.8675573312608576e+03  8.8671284309422408e+03  8.8667340109212782e+03  8.8663703632863726e+03  8.8660343175448779e+03  8.8657231623045955e+03  8.8654345731269023e+03  8.8651665500654253e+03  8.8649173651551428e+03  8.8646855188893278e+03  8.8644697043714532e+03  8.8642687778424461e+03  8.8640817344308889e+03  8.8639076881548863e+03  8.8637458553776360e+03  8.8635955410702609e+03  8.8634561273612690e+03  8.8633270639549737e+03  8.8632078600833738e+03  8.8630980777220520e+03  8.8629973258530608e+03  8.8629052555995277e+03  8.8628215560900881e+03  8.8627459509379732e+03  8.8626781952409310e+03  8.8626180730255383e+03  8.8625653950733868e+03  8.8625199970781487e+03  8.8624817380918557e+03  8.8624504992264920e+03  8.8624261825835365e+03  8.8624087103895072e+03  8.8623980243203259e+03  8.8623940850013969e+03  8.8623968716738582e+03  8.8624063820208776e+03  8.8624226321510123e+03  8.8624456567384659e+03  8.8624755093232707e+03  8.8625122627774417e+03  8.8625560099464183e+03  8.8626068644787574e+03  8.8626649618610172e+03  8.8627304606794441e+03  8.8628035441354132e+03  8.8628844218479080e+03  8.8629733319839124e+03  8.8630705437666693e+03  8.8631763604228672e+03  8.8632911226433098e+03  8.8634152126482477e+03  8.8635490589691308e+03  8.8636931420839119e+03  8.8638480010747589e+03  8.8640142415164337e+03  8.8641925448527545e+03  8.8643836795796760e+03  8.8645885146293567e+03  8.8648080354421800e+03  8.8650433633252578e+03  8.8652957788250915e+03  8.8655667499814062e+03  8.8658579664560293e+03  8.8661713805898307e+03  8.8665092563051367e+03  8.8668742261592779e+03  8.8672693551463781e+03  8.8676982056600064e+03  8.8681648882423178e+03  8.8686740600283374e+03  8.8692307792788033e+03  8.8698399957814563e+03  8.8705051520547058e+03  8.8712247424464294e+03  8.8719850314582436e+03  8.87274977