<?xml version="1.0"?>
<VTKFile type="UnstructuredGrid"  version="0.1"  >
<UnstructuredGrid>
<Piece  NumberOfPoints="21600" NumberOfCells="42542">
<Points>
<DataArray  type="Float64"  NumberOfComponents="3"  format="ascii">0 0 0  0.77 0 0  0.77 0.15 0  0 0.15 0  0.003221757322170014 0 0  0.006443514644340046 0 0  0.009665271966510193 0 0  0.01288702928868034 0 0  0.01610878661085048 0 0  0.01933054393302049 0 0  0.02255230125519027 0 0  0.02577405857735967 0 0  0.02899581589952872 0 0  0.03221757322169801 0 0  0.03543933054386744 0 0  0.03866108786603686 0 0  0.04188284518820627 0 0  0.0451046025103757 0 0  0.04832635983254521 0 0  0.05154811715471607 0 0  0.05476987447688695 0 0  0.05799163179905782 0 0  0.06121338912122846 0 0  0.06443514644339859 0 0  0.06765690376556875 0 0  0.0708786610877389 0 0  0.07410041840990904 0 0  0.0773221757320792 0 0  0.08054393305425039 0 0  0.08376569037642198 0 0  0.0869874476985936 0 0  0.09020920502076518 0 0  0.0934309623429339 0 0  0.0966527196651024 0 0  0.09987447698726967 0 0  0.1030962343094369 0 0  0.1063179916316041 0 0  0.1095397489537714 0 0  0.1127615062759386 0 0  0.1159832635981051 0 0  0.1192050209202709 0 0  0.1224267782424358 0 0  0.1256485355646001 0 0  0.1288702928867644 0 0  0.1320920502089288 0 0  0.1353138075310958 0 0  0.1385355648532632 0 0  0.1417573221754333 0 0  0.1449790794976035 0 0  0.1482008368197736 0 0  0.1514225941419428 0 0  0.1546443514641101 0 0  0.157866108786276 0 0  0.1610878661084403 0 0  0.1643096234306047 0 0  0.167531380752769 0 0  0.1707531380749333 0 0  0.1739748953970977 0 0  0.177196652719262 0 0  0.1804184100414264 0 0  0.1836401673635935 0 0  0.1868619246857611 0 0  0.1900836820079313 0 0  0.1933054393301014 0 0  0.1965271966522716 0 0  0.1997489539744406 0 0  0.2029707112966078 0 0  0.2061924686187736 0 0  0.209414225940938 0 0  0.2126359832631022 0 0  0.2158577405852666 0 0  0.219079497907431 0 0  0.2223012552295953 0 0  0.2255230125517597 0 0  0.2287447698739242 0 0  0.2319665271960914 0 0  0.2351882845182592 0 0  0.2384100418404293 0 0  0.2416317991625994 0 0  0.2448535564847696 0 0  0.2480753138069371 0 0  0.2512970711291014 0 0  0.2545188284512658 0 0  0.2577405857734302 0 0  0.2609623430955986 0 0  0.2641841004177688 0 0  0.2674058577399389 0 0  0.270627615062109 0 0  0.2738493723842792 0 0  0.2770711297064487 0 0  0.280292887028613 0 0  0.2835146443507774 0 0  0.2867364016729417 0 0  0.2899581589951061 0 0  0.2931799163172705 0 0  0.2964016736394348 0 0  0.2996234309615992 0 0  0.3028451882837672 0 0  0.3060669456059373 0 0  0.3092887029281075 0 0  0.3125104602502776 0 0  0.3157322175724478 0 0  0.3189539748946177 0 0  0.322175732216782 0 0  0.3253974895389464 0 0  0.3286192468611107 0 0  0.3318410041832751 0 0  0.3350627615054395 0 0  0.3382845188276038 0 0  0.3415062761497681 0 0  0.3447280334719325 0 0  0.3479497907940968 0 0  0.3511715481162612 0 0  0.3543933054384255 0 0  0.3576150627605947 0 0  0.3608368200827649 0 0  0.364058577404935 0 0  0.3672803347271051 0 0  0.3705020920492753 0 0  0.373723849371444 0 0  0.3769456066936084 0 0  0.3801673640157748 0 0  0.383389121337945 0 0  0.3866108786601209 0 0  0.3898326359823028 0 0  0.3930543933044846 0 0  0.3962761506266662 0 0  0.399497907948848 0 0  0.4027196652710298 0 0  0.4059414225932116 0 0  0.4091631799153934 0 0  0.4123849372375751 0 0  0.4156066945597569 0 0  0.4188284518819387 0 0  0.4220502092041222 0 0  0.4252719665263097 0 0  0.4284937238484974 0 0  0.4317154811706849 0 0  0.4349372384928725 0 0  0.4381589958150601 0 0  0.4413807531372476 0 0  0.4446025104594352 0 0  0.4478242677816181 0 0  0.4510460251037998 0 0  0.4542677824259815 0 0  0.4574895397481634 0 0  0.4607112970703451 0 0  0.4639330543925269 0 0  0.4671548117147087 0 0  0.4703765690368904 0 0  0.4735983263590722 0 0  0.4768200836812568 0 0  0.4800418410034444 0 0  0.483263598325632 0 0  0.4864853556478196 0 0  0.4897071129700028 0 0  0.4929288702921845 0 0  0.4961506276143663 0 0  0.4993723849365479 0 0  0.5025941422587239 0 0  0.5058158995809008 0 0  0.5090376569030826 0 0  0.5122594142252677 0 0  0.515481171547461 0 0  0.5187029288696494 0 0  0.5219246861918312 0 0  0.525146443514013 0 0  0.5283682008361947 0 0  0.5315899581583845 0 0  0.5348117154805778 0 0  0.5380334728027617 0 0  0.5412552301249435 0 0  0.5444769874471141 0 0  0.5476987447692853 0 0  0.550920502091467 0 0  0.5541422594136513 0 0  0.5573640167358447 0 0  0.560585774058034 0 0  0.5638075313802158 0 0  0.5670292887023975 0 0  0.5702510460245793 0 0  0.5734728033467682 0 0  0.5766945606689615 0 0  0.579916317991155 0 0  0.5831380753133483 0 0  0.5863598326355314 0 0  0.5895815899577131 0 0  0.5928033472798949 0 0  0.5960251046020785 0 0  0.5992468619242718 0 0  0.6024686192464619 0 0  0.6056903765686437 0 0  0.6089121338908206 0 0  0.6121338912129908 0 0  0.6153556485351673 0 0  0.618577405857349 0 0  0.6217991631795386 0 0  0.625020920501732 0 0  0.6282426778239159 0 0  0.6314644351460976 0 0  0.6346861924682795 0 0  0.6379079497904622 0 0  0.6411297071126555 0 0  0.6443514644348465 0 0  0.6475732217570283 0 0  0.650794979079206 0 0  0.6540167364013761 0 0  0.6572384937235518 0 0  0.6604602510457335 0 0  0.6636820083679225 0 0  0.6669037656901158 0 0  0.6701255230123004 0 0  0.6733472803344823 0 0  0.6765690376566641 0 0  0.6797907949788459 0 0  0.6830125523010393 0 0  0.686234309623231 0 0  0.6894560669454127 0 0  0.6926778242675914 0 0  0.6958995815897615 0 0  0.6991213389119363 0 0  0.7023430962341181 0 0  0.7055648535563062 0 0  0.7087866108784994 0 0  0.712008368200685 0 0  0.7152301255228668 0 0  0.7184518828450486 0 0  0.7216736401672305 0 0  0.724895397489423 0 0  0.7281171548116155 0 0  0.7313389121337973 0 0  0.7345606694559768 0 0  0.7377824267781468 0 0  0.7410041841003209 0 0  0.7442259414225026 0 0  0.7474476987446899 0 0  0.7506694560668832 0 0  0.7538912133890696 0 0  0.7571129707112513 0 0  0.760334728033433 0 0  0.7635564853556149 0 0  0.7667782426778067 0 0  0.77 0.001685393258423789 0  0.77 0.003370786516847669 0  0.77 0.005056179775271247 0  0.77 0.006741573033694517 0  0.77 0.008426966292117821 0  0.77 0.01011235955054176 0  0.77 0.01179775280896623 0  0.77 0.0134831460673904 0  0.77 0.01516853932581489 0  0.77 0.01685393258423891 0  0.77 0.01853932584266291 0  0.77 0.02022471910108589 0  0.77 0.02191011235950794 0  0.77 0.02359550561792999 0  0.77 0.02528089887635205 0  0.77 0.02696629213477411 0  0.77 0.02865168539319714 0  0.77 0.03033707865161956 0  0.77 0.03202247191004162 0  0.77 0.03370786516846367 0  0.77 0.03539325842688572 0  0.77 0.03707865168530778 0  0.77 0.03876404494372984 0  0.77 0.0404494382021519 0  0.77 0.04213483146057394 0  0.77 0.04382022471899601 0  0.77 0.04550561797741807 0  0.77 0.04719101123584013 0  0.77 0.04887640449426219 0  0.77 0.05056179775268425 0  0.77 0.0522471910111063 0  0.77 0.05393258426952837 0  0.77 0.05561797752795105 0  0.77 0.05730337078637505 0  0.77 0.05898876404479723 0  0.77 0.0606741573032193 0  0.77 0.06235955056164135 0  0.77 0.06404494382006341 0  0.77 0.06573033707848548 0  0.77 0.06741573033690752 0  0.77 0.06910112359532959 0  0.77 0.07078651685375165 0  0.77 0.0724719101121737 0  0.77 0.07415730337059653 0  0.77 0.07584269662902443 0  0.77 0.07752808988745429 0  0.77 0.07921348314588413 0  0.77 0.08089887640431678 0  0.77 0.08258426966274923 0  0.77 0.08426966292117907 0  0.77 0.08595505617960987 0  0.77 0.08764044943804362 0  0.77 0.08932584269647403 0  0.77 0.09101123595490389 0  0.77 0.09269662921333673 0  0.77 0.09438202247176901 0  0.77 0.09606741573019884 0  0.77 0.09775280898862983 0  0.77 0.09943820224706355 0  0.77 0.1011235955054938 0  0.77 0.1028089887639236 0  0.77 0.1044943820223567 0  0.77 0.1061797752807888 0  0.77 0.1078651685392186 0  0.77 0.1095505617976498 0  0.77 0.1112359550560835 0  0.77 0.1129213483145136 0  0.77 0.1146067415729456 0  0.77 0.1162921348313787 0  0.77 0.1179775280898085 0  0.77 0.1196629213482387 0  0.77 0.1213483146066724 0  0.77 0.1230337078651035 0  0.77 0.1247191011235322 0  0.77 0.1264044943819605 0  0.77 0.1280898876403903 0  0.77 0.1297752808988242 0  0.77 0.1314606741572554 0  0.77 0.1331460674156853 0  0.77 0.1348314606741154 0  0.77 0.1365168539325504 0  0.77 0.1382022471909802 0  0.77 0.13988764044941 0  0.77 0.1415730337078443 0  0.77 0.1432584269662752 0  0.77 0.144943820224705 0  0.77 0.1466292134831355 0  0.77 0.1483146067415701 0  0.7667782426778414 0.15 0  0.7635564853556813 0.15 0  0.7603347280335111 0.15 0  0.757112970711341 0.15 0  0.7538912133891708 0.15 0  0.7506694560670005 0.15 0  0.7474476987448303 0.15 0  0.7442259414226602 0.15 0  0.74100418410049 0.15 0  0.7377824267783197 0.15 0  0.7345606694561496 0.15 0  0.7313389121339794 0.15 0  0.7281171548118092 0.15 0  0.724895397489639 0.15 0  0.7216736401674688 0.15 0  0.7184518828452986 0.15 0  0.7152301255231284 0.15 0  0.7120083682009583 0.15 0  0.708786610878788 0.15 0  0.7055648535566178 0.15 0  0.7023430962344477 0.15 0  0.6991213389122775 0.15 0  0.6958995815901072 0.15 0  0.692677824267937 0.15 0  0.6894560669457669 0.15 0  0.6862343096235967 0.15 0  0.6830125523014264 0.15 0  0.6797907949792563 0.15 0  0.6765690376570861 0.15 0  0.6733472803349159 0.15 0  0.6701255230127456 0.15 0  0.6669037656905755 0.15 0  0.6636820083684053 0.15 0  0.6604602510462351 0.15 0  0.657238493724065 0.15 0  0.6540167364018947 0.15 0  0.6507949790797245 0.15 0  0.6475732217575543 0.15 0  0.644351464435384 0.15 0  0.6411297071132231 0.15 0  0.6379079497910645 0.15 0  0.634686192468906 0.15 0  0.6314644351467468 0.15 0  0.6282426778245765 0.15 0  0.6250209205024085 0.15 0  0.62179916318025 0.15 0  0.6185774058580914 0.15 0  0.6153556485359328 0.15 0  0.6121338912137689 0.15 0  0.6089121338915987 0.15 0  0.6056903765694354 0.15 0  0.6024686192472768 0.15 0  0.5992468619251182 0.15 0  0.5960251046029597 0.15 0  0.5928033472807912 0.15 0  0.589581589958621 0.15 0  0.5863598326364508 0.15 0  0.5831380753142792 0.15 0  0.5799163179920974 0.15 0  0.57669456
[...]
<PointData  Scalars="pressure"> 
<DataArray  type="Float64"  Name="pressure"  format="ascii">1.0066901599153944e+04  4.0549110715332870e-01  -3.0042996225643820e-01  1.0052588368131335e+04  9.9282919641227782e+03  9.8195597387711878e+03  9.7117987431476104e+03  9.6043617525041154e+03  9.4972923419757317e+03  9.3904560410318081e+03  9.2837758400671628e+03  9.1772075034456448e+03  9.0707224740639813e+03  8.9643012393682566e+03  8.8579299065513333e+03  8.7515982407388619e+03  8.6452984858499294e+03  8.5390246216532632e+03  8.4327718759877444e+03  8.3265363929007344e+03  8.2203149994882533e+03  8.1141050370101748e+03  8.0079042347467821e+03  7.9017106126008648e+03  7.7955224029584806e+03  7.6893379850320134e+03  7.5831558264844825e+03  7.4769744279246042e+03  7.3707922660218910e+03  7.2646077305290355e+03  7.1584190492886310e+03  7.0522241930346245e+03  6.9460207476380356e+03  6.8398057335287913e+03  6.7335753398483930e+03  6.6273245292365991e+03  6.5210464237897186e+03  6.4147311066200828e+03  6.3083630762524754e+03  6.2019184554045014e+03  6.0953691359277045e+03  5.9886659280776439e+03  5.8815349256204554e+03  5.7730665878015934e+03  5.6588784411246370e+03  4.0463734321254265e+03  3.9764047491089855e+03  3.9067805267165800e+03  3.8539948365947948e+03  3.8375925083117654e+03  3.8171600684959194e+03  3.7970341261682338e+03  3.7770186239660784e+03  3.7570456769262710e+03  3.7370988844288149e+03  3.7171692256615797e+03  3.6972513222565149e+03  3.6773418547782035e+03  3.6574386507795707e+03  3.6375402220127830e+03  3.6176455124092477e+03  3.5977537507342740e+03  3.5778643600975815e+03  3.5579769001338714e+03  3.5380910288019377e+03  3.5182064764148772e+03  3.4983230275430374e+03  3.4784405081262844e+03  3.4585587761174938e+03  3.4386777145715141e+03  3.4187972264603932e+03  3.3989172307283920e+03  3.3790376592514444e+03  3.3591584544659345e+03  3.3392795674994095e+03  3.3194009566822569e+03  3.2995225863519117e+03  3.2796444258839033e+03  3.2597664489008007e+03  3.2398886326216648e+03  3.2200109573237269e+03  3.2001334058941775e+03  3.1802559634550430e+03  3.1603786170477251e+03  3.1405013553664048e+03  3.1206241685320133e+03  3.1007470478997047e+03  3.0808699858944333e+03  3.0609929758701319e+03  3.0411160119887240e+03  3.0212390891159666e+03  3.0013622027314696e+03  2.9814853488510594e+03  2.9616085239594113e+03  2.9417317249516350e+03  2.9218549490825208e+03  2.9019781939223722e+03  2.8821014573185166e+03  2.8622247373618029e+03  2.8423480323572871e+03  2.8224713407986128e+03  2.8025946613456331e+03  2.7827179928048135e+03  2.7628413341120763e+03  2.7429646843176433e+03  2.7230880425729210e+03  2.7032114081188502e+03  2.6833347802757016e+03  2.6634581584341076e+03  2.6435815420471522e+03  2.6237049306234117e+03  2.6038283237208298e+03  2.5839517209412934e+03  2.5640751219258591e+03  2.5441985263505012e+03  2.5243219339224606e+03  2.5044453443768716e+03  2.4845687574738458e+03  2.4646921729958849e+03  2.4448155907455871e+03  2.4249390105436064e+03  2.4050624322267699e+03  2.3851858556465463e+03  2.3653092806675813e+03  2.3454327071664225e+03  2.3255561350304133e+03  2.3056795641565882e+03  2.2858029944507998e+03  2.2659264258269018e+03  2.2460498582060268e+03  2.2261732915159196e+03  2.2062967256903603e+03  2.1864201606686288e+03  2.1665435963950399e+03  2.1466670328185023e+03  2.1267904698921402e+03  2.1069139075729931e+03  2.0870373458216482e+03  2.0671607846019751e+03  2.0472842238808773e+03  2.0274076636280677e+03  2.0075311038158588e+03  1.9876545444190153e+03  1.9677779854144953e+03  1.9479014267813795e+03  1.9280248685007189e+03  1.9081483105554148e+03  1.8882717529301049e+03  1.8683951956110702e+03  1.8485186385861518e+03  1.8286420818446709e+03  1.8087655253773471e+03  1.7888889691762743e+03  1.7690124132348774e+03  1.7491358575478278e+03  1.7292593021110561e+03  1.7093827469216537e+03  1.6895061919779027e+03  1.6696296372792638e+03  1.6497530828263905e+03  1.6298765286210182e+03  1.6099999746660592e+03  1.5901234209656263e+03  1.5702468675249770e+03  1.5503703143506814e+03  1.5304937614504695e+03  1.5106172088332823e+03  1.4907406565093970e+03  1.4708641044903882e+03  1.4509875527892946e+03  1.4311110014206577e+03  1.4112344504004072e+03  1.3913578997461511e+03  1.3714813494770297e+03  1.3516047996139316e+03  1.3317282501796915e+03  1.3118517011989868e+03  1.2919751526986549e+03  1.2720986047076349e+03  1.2522220572570809e+03  1.2323455103806139e+03  1.2124689641143837e+03  1.1925924184973242e+03  1.1727158735712808e+03  1.1528393293811571e+03  1.1329627859751986e+03  1.1130862434050296e+03  1.0932097017260444e+03  1.0733331609976078e+03  1.0534566212832863e+03  1.0335800826513014e+03  1.0137035451746681e+03  9.9382700893152605e+02  9.7395047400559031e+02  9.5407394048643232e+02  9.3419740847009007e+02  9.1432087805943695e+02  8.9444434936477739e+02  8.7456782250443734e+02  8.5469129760523322e+02  8.3481477480334729e+02  8.1493825424511579e+02  7.9506173608787981e+02  7.7518522050121624e+02  7.5530870766795329e+02  7.3543219778549906e+02  7.1555569106755456e+02  6.9567918774581301e+02  6.7580268807231312e+02  6.5592619232193965e+02  6.3604970079552629e+02  6.1617321382358023e+02  5.9629673177056839e+02  5.7642025504047717e+02  5.5654378408346145e+02  5.3666731940396357e+02  5.1679086157112999e+02  4.9691441123138566e+02  4.7703796912446285e+02  4.5716153610401443e+02  4.3728511316365069e+02  4.1740870147104658e+02  3.9753230241225543e+02  3.7765591765033031e+02  3.5777954920387117e+02  3.3790319955334712e+02  3.1802687178794179e+02  2.9815056981135740e+02  2.7827429863602981e+02  2.5839806481381049e+02  2.3852187708207495e+02  2.1864574736332142e+02  1.9876969236752063e+02  1.7889373627005085e+02  1.5901791542891601e+02  1.3914228723455798e+02  1.1926694766303743e+02  9.9392070565074420e+01  7.9518049467496141e+01  5.9645944537245654e+01  3.9775655194994044e+01  1.9905395023380329e+01  8.4075679537188544e-02  4.3198869248697175e-03  9.2468852660361218e-04  5.6852749610613370e-04  3.2495010066691595e-04  1.9100640574177196e-04  1.1944322877565361e-04  7.8883914263886708e-05  5.4500994808426110e-05  3.9092386524891105e-05  2.8932547793657423e-05  2.1986292431535512e-05  1.7087636643398282e-05  1.3539770757643555e-05  1.0910425616851847e-05  8.9224504507173456e-06  7.3928932799553692e-06  6.1978237466318202e-06  5.2513410561667857e-06  4.4926699531237345e-06  3.8780134062817008e-06  3.3752827942454733e-06  2.9606137773988441e-06  2.6160165419928401e-06  2.3277620332198137e-06  2.0852551885650170e-06  1.8802361476769883e-06  1.7062060578743097e-06  1.5580090013817447e-06  1.4315239474096462e-06  1.3234353994741029e-06  1.2310608387335021e-06  1.1522197527543276e-06  1.0851334621388749e-06  1.0283478765262453e-06  9.8067363218735379e-07  9.4113945149107957e-07  9.0895569001072195e-07  8.8348584077722026e-07  8.6422429718435584e-07  8.5077912008464457e-07  8.4285887711129157e-07  8.4026285804896907e-07  8.4287416344967019e-07  8.5065529525337413e-07  8.6364603423799931e-07  8.8196346639480176e-07  9.0580412472384005e-07  9.3544833723419961e-07  9.7126688132881242e-07  1.0137302970989767e-06  1.0634211171712587e-06  1.1210496860686262e-06  1.1874741358027398e-06  1.2637255098281502e-06  1.3510392274255970e-06  1.4508944453933888e-06  1.5650633456127451e-06  1.6956731147601454e-06  1.8452840185975104e-06  2.0169883662569354e-06  2.2145365070703737e-06  2.4424981584116133e-06  2.7064702608564629e-06  3.0133464619932633e-06  3.3716687971262888e-06  3.7920896503500122e-06  4.2879826599797852e-06  4.8762557034350151e-06  5.5784391582846952e-06  6.4221498634415431e-06  7.4430671200060301e-06  8.6876016859620148e-06  1.0216487558581405e-05  1.2109561053789132e-05  1.4471961139578436e-05  1.7441755096040007e-05  2.1198243352783491e-05  2.5968244473153513e-05  3.2023745211059820e-05  3.9662782792999774e-05  4.9212598576984571e-05  6.1709100234030509e-05  9.1607345499715838e-05  3.6482712779956306e-04  3.3469963070769421e-03  2.3683373370401276e-02  1.3918325648665531e-02  1.9712063514302656e+01  3.9716791044219178e+01  5.9604592991833620e+01  7.9486587852928423e+01  9.9367114145000116e+01  1.1924633777983320e+02  1.3912479660922551e+02  1.5900278372609534e+02  1.7888045626983478e+02  1.9875790831076486e+02  2.1863519976036844e+02  2.3851237052798888e+02  2.5838944821597158e+02  2.7826645252282299e+02  2.9814339788363310e+02  3.1802029511938508e+02  3.3789715250344744e+02  3.5777397647201792e+02  3.7765077210979899e+02  3.9752754348962861e+02  4.1740429391480006e+02  4.3728102609505970e+02  4.5715774227648052e+02  4.7703444433869487e+02  4.9691113386863105e+02  5.1678781221709994e+02  5.3666448054268210e+02  5.5654113984611274e+02  5.7641779099746407e+02  5.9629443475781534e+02  6.1617107179667198e+02  6.3604770270606286e+02  6.5592432801204552e+02  6.7580094818413659e+02  6.9567756364311390e+02  7.1555417476750074e+02  7.3543078189898176e+02  7.5530738534696548e+02  7.7518398539244026e+02  7.9506058229119765e+02  8.1493717627679018e+02  8.3481376756281566e+02  8.5469035634501893e+02  8.7456694280316026e+02  8.9444352710239286e+02  9.1432010939482132e+02  9.3419668982077906e+02  9.5407326850974437e+02  9.7394984558137821e+02  9.9382642114631062e+02  1.0137029953068409e+03  1.0335795681577890e+03  1.0534561397870330e+03  1.0733327102760122e+03  1.0932092797003088e+03  1.1130858481299340e+03  1.1329624156298792e+03  1.1528389822604711e+03  1.1727155480777376e+03  1.1925921131335572e+03  1.2124686774761119e+03  1.2323452411500677e+03  1.2522218041968449e+03  1.2720983666548834e+03  1.2919749285597427e+03  1.3118514899442800e+03  1.3317280508389310e+03  1.3516046112718034e+03  1.3714811712687890e+03  1.3913577308537826e+03  1.4112342900486083e+03  1.4311108488732502e+03  1.4509874073460928e+03  1.4708639654838148e+03  1.4907405233015513e+03  1.5106170808129566e+03  1.5304936380301599e+03  1.5503701949640053e+03  1.5702467516241177e+03  1.5901233080187785e+03  1.6099998641550860e+03  1.6298764200389091e+03  1.6497529756749223e+03  1.6696295310668099e+03  1.6895060862171197e+03  1.7093826411273099e+03  1.7292591957977411e+03  1.7491357502277765e+03  1.7690123044156915e+03  1.7888888583587075e+03  1.8087654120529858e+03  1.8286419654936228e+03  1.8485185186746387e+03  1.8683950715889821e+03  1.8882716242284648e+03  1.9081481765837648e+03  1.9280247286444205e+03  1.9479012803987955e+03  1.9677778318340459e+03  1.9876543829360605e+03  2.0075309336895302e+03  2.0274074840778164e+03  2.0472840340829478e+03  2.0671605836855892e+03  2.0870371328650199e+03  2.1069136815990887e+03  2.1267902298641966e+03  2.1466667776352792e+03  2.1665433248857798e+03  2.1864198715876473e+03  2.2062964177113695e+03  2.2261729632258930e+03  2.2460495080987316e+03  2.2659260522959980e+03  2.2858025957824575e+03  2.3056791385216229e+03  2.3255556804758726e+03  2.3454322216066798e+03  2.3653087618747354e+03  2.3851853012402298e+03  2.4050618396631676e+03  2.4249383771037269e+03  2.4448149135228100e+03  2.4646914488825828e+03  2.4845679831471639e+03  2.5044445162834468e+03  2.5243210482620821e+03  2.5441975790586425e+03  2.5640741086549860e+03  2.5839506370408881e+03  2.6038271642159393e+03  2.6237036901917818e+03  2.6435802149946680e+03  2.6634567386685762e+03  2.6833332612787563e+03  2.7032097829158574e+03  2.7230863037007757e+03  2.7429628237902457e+03  2.7628393433833476e+03  2.7827158627291278e+03  2.8025923821353208e+03  2.8224689019785146e+03  2.8423454227159300e+03  2.8622219448990550e+03  2.8820984691894364e+03  2.9019749963769400e+03  2.9218515274008978e+03  2.9417280633746059e+03  2.9616046056136111e+03  2.9814811556685286e+03  3.0013577153630745e+03  3.0212342868380874e+03  3.0411108726026978e+03  3.0609874755936098e+03  3.0808640992440673e+03  3.1007407475640944e+03  3.1206174252341557e+03  3.1404941377143277e+03  3.1603708913721121e+03  3.1802476936324447e+03  3.2001245531539148e+03  3.2200014800369840e+03  3.2398784860702772e+03  3.2597555850232334e+03  3.2796327929956560e+03  3.2995101288368237e+03  3.3193876146511698e+03  3.3392652764121076e+03  3.3591431447114178e+03  3.3790212556819279e+03  3.3988996521417062e+03  3.4187783850259611e+03  3.4386575151965658e+03  3.4585371157517779e+03  3.4784172750092580e+03  3.4982981004057137e+03  3.5181797236643915e+03  3.5380623077448495e+03  3.5579460563419193e+03  3.5778312271033969e+03  3.5977181503898610e+03  3.6176072564944411e+03  3.6374991161288863e+03  3.6573945023496640e+03  3.6772944883432656e+03  3.6972006075704239e+03  3.7171151270650721e+03  3.7370415347721964e+03  3.7569854632216297e+03  3.7769566457816150e+03  3.7969720190849630e+03  3.8170463425816511e+03  3.8372380315762944e+03  3.8596853047050809e+03  3.8952414455022522e+03  3.9710518950953560e+03  5.5562546317364604e+03  5.6687520474035773e+03  5.7763477096199422e+03  5.8832636270271651e+03  5.9898617163973895e+03  6.0963329768010663e+03  6.2027150026433937e+03  6.3090333209743967e+03  6.4153077924523468e+03  6.5215512333807183e+03  6.6277719440707642e+03  6.7339757231780268e+03  6.8401668344494828e+03  6.9463485122553902e+03  7.0525232900341580e+03  7.1586932230172715e+03  7.2648600401974199e+03  7.3710252520171534e+03  7.4771902306573329e+03  7.5833562731989332e+03  7.6895246544388056e+03  7.7956966742300392e+03  7.9018737031717064e+03  8.0080572300040576e+03  8.1142489140781345e+03  8.2204506467380997e+03  8.3266646264521005e+03  8.4328934542693496e+03  8.5391402590368052e+03  8.6454088664868905e+03  8.7517040341059746e+03  8.8580317870312520e+03  8.9643999139118023e+03  9.0708187256282581e+03  9.1773022658702575e+03  9.2838703404928820e+03  9.3905521126291915e+03  9.4973930582629800e+03  9.6044715020784097e+03  9.7119321175239893e+03  9.8199140484161217e+03  9.9291477728707832e+03  1.0040239145471753e+04  1.0035269444894713e+04  1.0032786307549732e+04  1.0031131518022754e+04  1.0029855180985203e+04  1.0028811916182616e+04  1.0027932530255830e+04  1.0027175114757161e+04  1.0026511899025920e+04  1.0025923639401781e+04  1.0025396521518049e+04  1.0024920318590324e+04  1.0024487257675575e+04  1.0024091297573328e+04  1.0023727653072941e+04  1.0023392471679532e+04  1.0023082607912949e+04  1.0022795461954476e+04  1.0022528861874207e+04  1.0022280976075672e+04  1.0022050247134037e+04  1.0021835341066404e+04  1.0021635107922626e+04  1.0021448550807667e+04  1.0021274801271671e+04  1.0021113099570006e+04  1.0020962778691848e+04  1.0020823251336395e+04  1.0020693999218029e+04  1.0020574564228995e+04  1.0020464541096972e+04  1.0020363571255899e+04  1.0020271337709848e+04  1.0020187560716135e+04  1.0020111994150016e+04  1.0020044422440971e+04  1.0019984657992647e+04  1.0019932539015676e+04  1.0019887927716485e+04  1.0019850708796426e+04  1.0019820788224697e+04  1.0019798092255995e+04  1.0019782566670418e+04  1.0019774176218469e+04  1.0019772904258929e+04  1.0019778752581664e+04  1.0019791741411622e+04  1.0019811909594056e+04  1.0019839314965064e+04  1.0019874034915605e+04  1.0019916167161433e+04  1.0019965830736568e+04  1.0020023167233039e+04  1.0020088342316543e+04  1.0020161547555148e+04  1.0020243002607443e+04  1.0020332957828115e+04  1.0020431697362925e+04  1.0020539542822795e+04  1.0020656857649143e+04  1.0020784052311181e+04  1.0020921590512784e+04  1.0021069996634707e+04  1.0021229864700854e+04  1.0021401869241503e+04  1.0021586778538913e+04  1.0021785470894012e+04  1.0021998954763469e+04  1.0022228393910345e+04  1.0022475139127026e+04  1.0022740768686350e+04  1.0023027140550137e+04  1.0023336460665132e+04  1.0023671373655341e+04  1.0024035085299054e+04  1.0024431531095328e+04  1.0024865613300677e+04  1.0025343542523040e+04  1.0025873344100823e+04  1.0026465633598977e+04  1.0027134847403437e+04  1.0027901254184446e+04  1.0028794235367110e+04  1.0029857269843927e+04  1.0031155561217594e+04  1.0032807696903597e+04  1.0035266894412140e+04  1.0041345304808316e+04  9.9303258842171581e+03  9.9283701767470175e+03  9.9265028713933898e+03  9.9250334652073343e+03  9.9238501334690864e+03  9.9228640019432296e+03  9.9220217975454907e+03  9.9212896149690332e+03  9.9206442901449209e+03  9.9200692601969276e+03  9.9195523054239329e+03  9.9190841819095276e+03  9.9186577455841198e+03  9.9182673714867760e+03  9.9179085581162453e+03  9.9175776512990178e+03  9.9172716472297016e+03  9.9169880492003103e+03  9.9167247615262804e+03  9.9164800097507305e+03  9.9162522797463644e+03  9.9160402706293698e+03  9.9158428579190513e+03  9.9156590644018888e+03  9.9154880368620015e+03  9.9153290273307102e+03  9.9151813778547148e+03  9.9150445080317913e+03  9.9149179047435664e+03  9.9148011136483310e+03  9.9146937320955858e+03  9.9145954031986039e+03  9.9145058108575613e+03  9.9144246755692220e+03  9.9143517508925361e+03  9.9142868204656170e+03  9.9142296954901267e+03  9.9141802126155490e+03  9.9141382321686997e+03  9.9141036366846220e+03  9.9140763297037574e+03  9.9140562348073108e+03  9.9140432948690686e+03  9.9140374715070775e+03  9.9140387447232024e+03  9.9140471127228138e+03  9.9140625919107788e+03  9.9140852170635590e+03  9.9141150416811415e+03  9.9141521385262804e+03  9.9141966003626694e+03  9.9142485409084165e+03  9.9143080960261377e+03  9.9143754251772225e+03  9.9144507131747978e+03  9.9145341722785997e+03  9.9146260446852029e+03  9.9147266054800803e+03  9.9148361661337458e+03  9.9149550786444379e+03  9.9150837404550894e+03  9.9152226003049982e+03  9.9153721652185322e+03  9.9155330088878145e+03  9.9157057817784043e+03  9.9158912233822266e+03  9.9160901771700464e+03  9.9163036089693505e+03  9.9165326297313768e+03  9.9167785239817749e+03  9.9170427857144223e+03  9.9173271641524170e+03  9.9176337227632303e+03  9.9179649163350241e+03  9.9183236930521634e+03  9.9187136317686436e+03  9.9191391297710979e+03  9.9196056644588498e+03  9.9201201657121455e+03  9.9206915584459457e+03  9.9213315759917405e+03  9.9220560247667763e+03  9.9228868229989694e+03  9.9238551408303538e+03  9.9250036697437390e+03  9.9263690114938890e+03  9.9278516044222979e+03  9.9287540770269297e+03  9.8197655799294516e+03  9.8194510734708347e+03  9.8187621573807210e+03  9.8179615450923975e+03  9.8171708893004616e+03  9.8164314551812131e+03  9.8157530741227547e+03  9.8151344130936504e+03  9.8145705151946149e+03  9.8140556156565071e+03  9.8135841850661272e+03  9.8131512759475208e+03  9.8127525909439828e+03  9.8123844442943700e+03  9.8120436885215095e+03  9.8117276359424723e+03  9.8114339863519308e+03  9.8111607643944299e+03  9.8109062668920687e+03  9.8106690191664620e+03  9.8104477390434076e+03  9.8102413072415493e+03  9.8100487429935183e+03  9.8098691839287530e+03  9.8097018694204908e+03  9.8095461267505034e+03  9.8094013595711385e+03  9.8092670382465694e+03  9.8091426917376448e+03  9.8090279007603476e+03  9.8089222920003049e+03  9.8088255332075350e+03  9.8087373290288106e+03  9.8086574174617745e+03  9.8085855668362983e+03  9.8085215732458983e+03  9.8084652583659554e+03  9.8084164676071341e+03  9.8083750685615505e+03  9.8083409497073753e+03  9.8083140193437448e+03  9.8082942047336965e+03  9.8082814514374568e+03  9.8082757228225564e+03  9.8082769997410705e+03  9.8082852803675214e+03  9.8083005801943491e+03  9.8083229321847193e+03  9.8083523870856734e+03  9.8083890139077575e+03  9.8084329005805594e+03  9.8084841547972774e+03  9.8085429050655821e+03  9.8086093019866403e+03  9.8086835197896489e+03  9.8087657581555068e+03  9.8088562443709670e+03  9.8089552358637175e+03  9.8090630231798459e+03  9.8091799334787702e+03  9.8093063346373219e+03  9.8094426400751363e+03  9.8095893144389483e+03  9.8097468803150496e+03  9.8099159261784353e+03  9.8100971158363791e+03  9.8102911996851253e+03  9.8104990281740993e+03  9.8107215679646124e+03  9.8109599213814017e+03  9.8112153498844309e+03  9.8114893024274606e+03  9.8117834496967243e+03  9.8120997252820453e+03  9.8124403746968783e+03  9.8128080125519828e+03  9.8132056864786955e+03  9.8136369422131811e+03  9.8141058744660168e+03  9.8146171254843284e+03  9.8151757396985449e+03  9.8157866542322554e+03  9.8164533002080680e+03  9.8171741619409659e+03  9.8179354953479251e+03  9.81870105