<?xml version="1.0"?>
<VTKFile type="UnstructuredGrid"  version="0.1"  >
<UnstructuredGrid>
<Piece  NumberOfPoints="21600" NumberOfCells="42542">
<Points>
<DataArray  type="Float64"  NumberOfComponents="3"  format="ascii">0 0 0  0.77 0 0  0.77 0.15 0  0 0.15 0  0.003221757322170014 0 0  0.006443514644340046 0 0  0.009665271966510193 0 0  0.01288702928868034 0 0  0.01610878661085048 0 0  0.01933054393302049 0 0  0.02255230125519027 0 0  0.02577405857735967 0 0  0.02899581589952872 0 0  0.03221757322169801 0 0  0.03543933054386744 0 0  0.03866108786603686 0 0  0.04188284518820627 0 0  0.0451046025103757 0 0  0.04832635983254521 0 0  0.05154811715471607 0 0  0.05476987447688695 0 0  0.05799163179905782 0 0  0.06121338912122846 0 0  0.06443514644339859 0 0  0.06765690376556875 0 0  0.0708786610877389 0 0  0.07410041840990904 0 0  0.0773221757320792 0 0  0.08054393305425039 0 0  0.08376569037642198 0 0  0.0869874476985936 0 0  0.09020920502076518 0 0  0.0934309623429339 0 0  0.0966527196651024 0 0  0.09987447698726967 0 0  0.1030962343094369 0 0  0.1063179916316041 0 0  0.1095397489537714 0 0  0.1127615062759386 0 0  0.1159832635981051 0 0  0.1192050209202709 0 0  0.1224267782424358 0 0  0.1256485355646001 0 0  0.1288702928867644 0 0  0.1320920502089288 0 0  0.1353138075310958 0 0  0.1385355648532632 0 0  0.1417573221754333 0 0  0.1449790794976035 0 0  0.1482008368197736 0 0  0.1514225941419428 0 0  0.1546443514641101 0 0  0.157866108786276 0 0  0.1610878661084403 0 0  0.1643096234306047 0 0  0.167531380752769 0 0  0.1707531380749333 0 0  0.1739748953970977 0 0  0.177196652719262 0 0  0.1804184100414264 0 0  0.1836401673635935 0 0  0.1868619246857611 0 0  0.1900836820079313 0 0  0.1933054393301014 0 0  0.1965271966522716 0 0  0.1997489539744406 0 0  0.2029707112966078 0 0  0.2061924686187736 0 0  0.209414225940938 0 0  0.2126359832631022 0 0  0.2158577405852666 0 0  0.219079497907431 0 0  0.2223012552295953 0 0  0.2255230125517597 0 0  0.2287447698739242 0 0  0.2319665271960914 0 0  0.2351882845182592 0 0  0.2384100418404293 0 0  0.2416317991625994 0 0  0.2448535564847696 0 0  0.2480753138069371 0 0  0.2512970711291014 0 0  0.2545188284512658 0 0  0.2577405857734302 0 0  0.2609623430955986 0 0  0.2641841004177688 0 0  0.2674058577399389 0 0  0.270627615062109 0 0  0.2738493723842792 0 0  0.2770711297064487 0 0  0.280292887028613 0 0  0.2835146443507774 0 0  0.2867364016729417 0 0  0.2899581589951061 0 0  0.2931799163172705 0 0  0.2964016736394348 0 0  0.2996234309615992 0 0  0.3028451882837672 0 0  0.3060669456059373 0 0  0.3092887029281075 0 0  0.3125104602502776 0 0  0.3157322175724478 0 0  0.3189539748946177 0 0  0.322175732216782 0 0  0.3253974895389464 0 0  0.3286192468611107 0 0  0.3318410041832751 0 0  0.3350627615054395 0 0  0.3382845188276038 0 0  0.3415062761497681 0 0  0.3447280334719325 0 0  0.3479497907940968 0 0  0.3511715481162612 0 0  0.3543933054384255 0 0  0.3576150627605947 0 0  0.3608368200827649 0 0  0.364058577404935 0 0  0.3672803347271051 0 0  0.3705020920492753 0 0  0.373723849371444 0 0  0.3769456066936084 0 0  0.3801673640157748 0 0  0.383389121337945 0 0  0.3866108786601209 0 0  0.3898326359823028 0 0  0.3930543933044846 0 0  0.3962761506266662 0 0  0.399497907948848 0 0  0.4027196652710298 0 0  0.4059414225932116 0 0  0.4091631799153934 0 0  0.4123849372375751 0 0  0.4156066945597569 0 0  0.4188284518819387 0 0  0.4220502092041222 0 0  0.4252719665263097 0 0  0.4284937238484974 0 0  0.4317154811706849 0 0  0.4349372384928725 0 0  0.4381589958150601 0 0  0.4413807531372476 0 0  0.4446025104594352 0 0  0.4478242677816181 0 0  0.4510460251037998 0 0  0.4542677824259815 0 0  0.4574895397481634 0 0  0.4607112970703451 0 0  0.4639330543925269 0 0  0.4671548117147087 0 0  0.4703765690368904 0 0  0.4735983263590722 0 0  0.4768200836812568 0 0  0.4800418410034444 0 0  0.483263598325632 0 0  0.4864853556478196 0 0  0.4897071129700028 0 0  0.4929288702921845 0 0  0.4961506276143663 0 0  0.4993723849365479 0 0  0.5025941422587239 0 0  0.5058158995809008 0 0  0.5090376569030826 0 0  0.5122594142252677 0 0  0.515481171547461 0 0  0.5187029288696494 0 0  0.5219246861918312 0 0  0.525146443514013 0 0  0.5283682008361947 0 0  0.5315899581583845 0 0  0.5348117154805778 0 0  0.5380334728027617 0 0  0.5412552301249435 0 0  0.5444769874471141 0 0  0.5476987447692853 0 0  0.550920502091467 0 0  0.5541422594136513 0 0  0.5573640167358447 0 0  0.560585774058034 0 0  0.5638075313802158 0 0  0.5670292887023975 0 0  0.5702510460245793 0 0  0.5734728033467682 0 0  0.5766945606689615 0 0  0.579916317991155 0 0  0.5831380753133483 0 0  0.5863598326355314 0 0  0.5895815899577131 0 0  0.5928033472798949 0 0  0.5960251046020785 0 0  0.5992468619242718 0 0  0.6024686192464619 0 0  0.6056903765686437 0 0  0.6089121338908206 0 0  0.6121338912129908 0 0  0.6153556485351673 0 0  0.618577405857349 0 0  0.6217991631795386 0 0  0.625020920501732 0 0  0.6282426778239159 0 0  0.6314644351460976 0 0  0.6346861924682795 0 0  0.6379079497904622 0 0  0.6411297071126555 0 0  0.6443514644348465 0 0  0.6475732217570283 0 0  0.650794979079206 0 0  0.6540167364013761 0 0  0.6572384937235518 0 0  0.6604602510457335 0 0  0.6636820083679225 0 0  0.6669037656901158 0 0  0.6701255230123004 0 0  0.6733472803344823 0 0  0.6765690376566641 0 0  0.6797907949788459 0 0  0.6830125523010393 0 0  0.686234309623231 0 0  0.6894560669454127 0 0  0.6926778242675914 0 0  0.6958995815897615 0 0  0.6991213389119363 0 0  0.7023430962341181 0 0  0.7055648535563062 0 0  0.7087866108784994 0 0  0.712008368200685 0 0  0.7152301255228668 0 0  0.7184518828450486 0 0  0.7216736401672305 0 0  0.724895397489423 0 0  0.7281171548116155 0 0  0.7313389121337973 0 0  0.7345606694559768 0 0  0.7377824267781468 0 0  0.7410041841003209 0 0  0.7442259414225026 0 0  0.7474476987446899 0 0  0.7506694560668832 0 0  0.7538912133890696 0 0  0.7571129707112513 0 0  0.760334728033433 0 0  0.7635564853556149 0 0  0.7667782426778067 0 0  0.77 0.001685393258423789 0  0.77 0.003370786516847669 0  0.77 0.005056179775271247 0  0.77 0.006741573033694517 0  0.77 0.008426966292117821 0  0.77 0.01011235955054176 0  0.77 0.01179775280896623 0  0.77 0.0134831460673904 0  0.77 0.01516853932581489 0  0.77 0.01685393258423891 0  0.77 0.01853932584266291 0  0.77 0.02022471910108589 0  0.77 0.02191011235950794 0  0.77 0.02359550561792999 0  0.77 0.02528089887635205 0  0.77 0.02696629213477411 0  0.77 0.02865168539319714 0  0.77 0.03033707865161956 0  0.77 0.03202247191004162 0  0.77 0.03370786516846367 0  0.77 0.03539325842688572 0  0.77 0.03707865168530778 0  0.77 0.03876404494372984 0  0.77 0.0404494382021519 0  0.77 0.04213483146057394 0  0.77 0.04382022471899601 0  0.77 0.04550561797741807 0  0.77 0.04719101123584013 0  0.77 0.04887640449426219 0  0.77 0.05056179775268425 0  0.77 0.0522471910111063 0  0.77 0.05393258426952837 0  0.77 0.05561797752795105 0  0.77 0.05730337078637505 0  0.77 0.05898876404479723 0  0.77 0.0606741573032193 0  0.77 0.06235955056164135 0  0.77 0.06404494382006341 0  0.77 0.06573033707848548 0  0.77 0.06741573033690752 0  0.77 0.06910112359532959 0  0.77 0.07078651685375165 0  0.77 0.0724719101121737 0  0.77 0.07415730337059653 0  0.77 0.07584269662902443 0  0.77 0.07752808988745429 0  0.77 0.07921348314588413 0  0.77 0.08089887640431678 0  0.77 0.08258426966274923 0  0.77 0.08426966292117907 0  0.77 0.08595505617960987 0  0.77 0.08764044943804362 0  0.77 0.08932584269647403 0  0.77 0.09101123595490389 0  0.77 0.09269662921333673 0  0.77 0.09438202247176901 0  0.77 0.09606741573019884 0  0.77 0.09775280898862983 0  0.77 0.09943820224706355 0  0.77 0.1011235955054938 0  0.77 0.1028089887639236 0  0.77 0.1044943820223567 0  0.77 0.1061797752807888 0  0.77 0.1078651685392186 0  0.77 0.1095505617976498 0  0.77 0.1112359550560835 0  0.77 0.1129213483145136 0  0.77 0.1146067415729456 0  0.77 0.1162921348313787 0  0.77 0.1179775280898085 0  0.77 0.1196629213482387 0  0.77 0.1213483146066724 0  0.77 0.1230337078651035 0  0.77 0.1247191011235322 0  0.77 0.1264044943819605 0  0.77 0.1280898876403903 0  0.77 0.1297752808988242 0  0.77 0.1314606741572554 0  0.77 0.1331460674156853 0  0.77 0.1348314606741154 0  0.77 0.1365168539325504 0  0.77 0.1382022471909802 0  0.77 0.13988764044941 0  0.77 0.1415730337078443 0  0.77 0.1432584269662752 0  0.77 0.144943820224705 0  0.77 0.1466292134831355 0  0.77 0.1483146067415701 0  0.7667782426778414 0.15 0  0.7635564853556813 0.15 0  0.7603347280335111 0.15 0  0.757112970711341 0.15 0  0.7538912133891708 0.15 0  0.7506694560670005 0.15 0  0.7474476987448303 0.15 0  0.7442259414226602 0.15 0  0.74100418410049 0.15 0  0.7377824267783197 0.15 0  0.7345606694561496 0.15 0  0.7313389121339794 0.15 0  0.7281171548118092 0.15 0  0.724895397489639 0.15 0  0.7216736401674688 0.15 0  0.7184518828452986 0.15 0  0.7152301255231284 0.15 0  0.7120083682009583 0.15 0  0.708786610878788 0.15 0  0.7055648535566178 0.15 0  0.7023430962344477 0.15 0  0.6991213389122775 0.15 0  0.6958995815901072 0.15 0  0.692677824267937 0.15 0  0.6894560669457669 0.15 0  0.6862343096235967 0.15 0  0.6830125523014264 0.15 0  0.6797907949792563 0.15 0  0.6765690376570861 0.15 0  0.6733472803349159 0.15 0  0.6701255230127456 0.15 0  0.6669037656905755 0.15 0  0.6636820083684053 0.15 0  0.6604602510462351 0.15 0  0.657238493724065 0.15 0  0.6540167364018947 0.15 0  0.6507949790797245 0.15 0  0.6475732217575543 0.15 0  0.644351464435384 0.15 0  0.6411297071132231 0.15 0  0.6379079497910645 0.15 0  0.634686192468906 0.15 0  0.6314644351467468 0.15 0  0.6282426778245765 0.15 0  0.6250209205024085 0.15 0  0.62179916318025 0.15 0  0.6185774058580914 0.15 0  0.6153556485359328 0.15 0  0.6121338912137689 0.15 0  0.6089121338915987 0.15 0  0.6056903765694354 0.15 0  0.6024686192472768 0.15 0  0.5992468619251182 0.15 0  0.5960251046029597 0.15 0  0.5928033472807912 0.15 0  0.589581589958621 0.15 0  0.5863598326364508 0.15 0  0.5831380753142792 0.15 0  0.5799163179920974 0.15 0  0.57669456
[...]
<PointData  Scalars="pressure"> 
<DataArray  type="Float64"  Name="pressure"  format="ascii">6.9876469831940994e+03  4.0549108774506654e-01  -3.0042997828210155e-01  6.9757843560131023e+03  6.8487890110333428e+03  6.7384283872207934e+03  6.6232191187755461e+03  4.7486301650418718e+03  4.6820035170197407e+03  4.6295917729254043e+03  4.6131064608217430e+03  4.5926521500889048e+03  4.5724940063831700e+03  4.5524450518110243e+03  4.5324411797416569e+03  4.5124666992395196e+03  4.4925126278316629e+03  4.4725733778893700e+03  4.4526453299320528e+03  4.4327259947713792e+03  4.4128135821388923e+03  4.3929067607529050e+03  4.3730045143461221e+03  4.3531060506159083e+03  4.3332107411713614e+03  4.3133180805109860e+03  4.2934276571586952e+03  4.2735391328340329e+03  4.2536522270875894e+03  4.2337667057488861e+03  4.2138823720935707e+03  4.1939990599887424e+03  4.1741166285028903e+03  4.1542349576174493e+03  4.1343539447791427e+03  4.1144735021021825e+03  4.0945935540789724e+03  4.0747140356928890e+03  4.0548348908522312e+03  4.0349560710829564e+03  4.0150775344317290e+03  3.9951992445411151e+03  3.9753211698666591e+03  3.9554432830116730e+03  3.9355655601601097e+03  3.9156879805917097e+03  3.8958105262664490e+03  3.8759331814674551e+03  3.8560559324936944e+03  3.8361787673948834e+03  3.8163016757425712e+03  3.7964246484321147e+03  3.7765476775111870e+03  3.7566707560311197e+03  3.7367938779178621e+03  3.7169170378599533e+03  3.6970402312111005e+03  3.6771634539054580e+03  3.6572867023838862e+03  3.6374099735297364e+03  3.6175332646128882e+03  3.5976565732410331e+03  3.5777798973170793e+03  3.5579032350021275e+03  3.5380265846830466e+03  3.5181499449442476e+03  3.4982733145429916e+03  3.4783966923878543e+03  3.4585200775198923e+03  3.4386434690961923e+03  3.4187668663755139e+03  3.3988902687056943e+03  3.3790136755126900e+03  3.3591370862909212e+03  3.3392605005948917e+03  3.3193839180318018e+03  3.2995073382551545e+03  3.2796307609590590e+03  3.2597541858733507e+03  3.2398776127592187e+03  3.2200010414054491e+03  3.2001244716250767e+03  3.1802479032524620e+03  3.1603713361407895e+03  3.1404947701597698e+03  3.1206182051937540e+03  3.1007416411399631e+03  3.0808650779069621e+03  3.0609885154133494e+03  3.0411119535865896e+03  3.0212353923620071e+03  3.0013588316818023e+03  2.9814822714943452e+03  2.9616057117534474e+03  2.9417291524177513e+03  2.9218525934501813e+03  2.9019760348174677e+03  2.8820994764897082e+03  2.8622229184400444e+03  2.8423463606443083e+03  2.8224698030807176e+03  2.8025932457296303e+03  2.7827166885733200e+03  2.7628401315958058e+03  2.7429635747825769e+03  2.7230870181205355e+03  2.7032104615978228e+03  2.6833339052037009e+03  2.6634573489284344e+03  2.6435807927631990e+03  2.6237042366999908e+03  2.6038276807315538e+03  2.5839511248513077e+03  2.5640745690532913e+03  2.5441980133320726e+03  2.5243214576827859e+03  2.5044449021010241e+03  2.4845683465828033e+03  2.4646917911245355e+03  2.4448152357230192e+03  2.4249386803753941e+03  2.4050621250790696e+03  2.3851855698317772e+03  2.3653090146315280e+03  2.3454324594766072e+03  2.3255559043655880e+03  2.3056793492972456e+03  2.2858027942705780e+03  2.2659262392848082e+03  2.2460496843393666e+03  2.2261731294338929e+03  2.2062965745682268e+03  2.1864200197424066e+03  2.1665434649566650e+03  2.1466669102114256e+03  2.1267903555073012e+03  2.1069138008451409e+03  2.0870372462259720e+03  2.0671606916510241e+03  2.0472841371217360e+03  2.0274075826397609e+03  2.0075310282069736e+03  1.9876544738255081e+03  1.9677779194976852e+03  1.9479013652260876e+03  1.9280248110135642e+03  1.9081482568632437e+03  1.8882717027785316e+03  1.8683951487631437e+03  1.8485185948211090e+03  1.8286420409567927e+03  1.8087654871749016e+03  1.7888889334805344e+03  1.7690123798792097e+03  1.7491358263768545e+03  1.7292592729798737e+03  1.7093827196951074e+03  1.6895061665299177e+03  1.6696296134922186e+03  1.6497530605905411e+03  1.6298765078339593e+03  1.6099999552322226e+03  1.5901234027958192e+03  1.5702468505359482e+03  1.5503702984647189e+03  1.5304937465950293e+03  1.5106171949406366e+03  1.4907406435163132e+03  1.4708640923378246e+03  1.4509875414221217e+03  1.4311109907873961e+03  1.4112344404529829e+03  1.3913578904396670e+03  1.3714813407695572e+03  1.3516047914663091e+03  1.3317282425553426e+03  1.3118516940637478e+03  1.2919751460206169e+03  1.2720985984569891e+03  1.2522220514059845e+03  1.2323455049030588e+03  1.2124689589860725e+03  1.1925924136955598e+03  1.1727158690748593e+03  1.1528393251702712e+03  1.1329627820313428e+03  1.1130862397109163e+03  1.0932096982655225e+03  1.0733331577555889e+03  1.0534566182456733e+03  1.0335800798049254e+03  1.0137035425072247e+03  9.9382700643152032e+02  9.7395047166228449e+02  9.5407393828979411e+02  9.3419740641074679e+02  9.1432087612863359e+02  8.9444434755433542e+02  8.7456782080671542e+02  8.5469129601309498e+02  8.3481477331012582e+02  8.1493825284458421e+02  7.9506173477422305e+02  7.7518521926900235e+02  7.5530870651211080e+02  7.3543219670129156e+02  7.1555569005056043e+02  6.9567918679190370e+02  6.7580268717763590e+02  6.5592619148289839e+02  6.3604970000876494e+02  6.1617321308596865e+02  5.9629673107918643e+02  5.7642025439260283e+02  5.5654378347655677e+02  5.3666731883566399e+02  5.1679086103923294e+02  4.9691441073384135e+02  4.7703796865936300e+02  4.5716153566958565e+02  4.3728511275824519e+02  4.1740870109313408e+02  3.9753230206041729e+02  3.7765591732325254e+02  3.5777954890033772e+02  3.3790319927223516e+02  3.1802687152821585e+02  2.9815056957206491e+02  2.7827429841629629e+02  2.5839806461283553e+02  2.3852187689912836e+02  2.1864574719773924e+02  1.9876969221870146e+02  1.7889373613745221e+02  1.5901791531205035e+02  1.3914228713298897e+02  1.1926694757637885e+02  9.9392070492969395e+01  7.9518049409455472e+01  5.9645944492327779e+01  3.9775655162048345e+01  1.9905395002448255e+01  8.4075674724876037e-02  4.3199063816942483e-03  9.2469264272037569e-04  5.6852735449794520e-04  3.2495013289863693e-04  1.9100639101686279e-04  1.1944321326235064e-04  7.8883901854889688e-05  5.4500983466228915e-05  3.9092375077771127e-05  2.8932535747711050e-05  2.1986279579833909e-05  1.7087622905268928e-05  1.3539756110556197e-05  1.0910410050582660e-05  8.9224339722990995e-06  7.3928758940545184e-06  6.1978054616823702e-06  5.2513218933276422e-06  4.4926499259110726e-06  3.8779925307035335e-06  3.3752610904744526e-06  2.9605912684692856e-06  2.6159932526810684e-06  2.3277379906764999e-06  2.0852304168899849e-06  1.8802106791554410e-06  1.7061799240562831e-06  1.5579822237007522e-06  1.4314965685908832e-06  1.3234074479636934e-06  1.2310323466896677e-06  1.1521907575074151e-06  1.0851039991509885e-06  1.0283179806524599e-06  9.8064334339876382e-07  9.4110880293213142e-07  9.0892471922326368e-07  8.8345459148932248e-07  8.6419281031002040e-07  8.5074742845831720e-07  8.4282702222547539e-07  8.4023088424180708e-07  8.4284210585430023e-07  8.5062319375989551e-07  8.6361393522223913e-07  8.8193140763049785e-07  9.0577214726735012e-07  9.3541647912695196e-07  9.7123519076520626e-07  1.0136988044327680e-06  1.0633898702032038e-06  1.1210187198246710e-06  1.1874434974033321e-06  1.2636952358611005e-06  1.3510093623404068e-06  1.4508650197051626e-06  1.5650344081584432e-06  1.6956446990307646e-06  1.8452561667553592e-06  2.0169611129648255e-06  2.2145098987264551e-06  2.4424722348644020e-06  2.7064450564970351e-06  3.0133220256011632e-06  3.3716451671282430e-06  3.7920668662778861e-06  4.2879607787302662e-06  4.8762347693760549e-06  5.5784192330314753e-06  6.4221310073196273e-06  7.4430494113019049e-06  8.6875852253574544e-06  1.0216472462875414e-05  1.2109547496415831e-05  1.4471949351043915e-05  1.7441745426989369e-05  2.1198236414091001e-05  2.5968241677992292e-05  3.2023751146089083e-05  3.9662815659822386e-05  4.9212729545617713e-05  6.1709562677941162e-05  9.1608638954967150e-05  3.6482953519968009e-04  3.3469939690413133e-03  2.3683352833734968e-02  1.3918306630613943e-02  1.9712063507363066e+01  3.9716791050362040e+01  5.9604593010496217e+01  7.9486587881029607e+01  9.9367114181505258e+01  1.1924633782480382e+02  1.3912479666291816e+02  1.5900278378881470e+02  1.7888045634195268e+02  1.9875790839272378e+02  2.1863519985267885e+02  2.3851237063122866e+02  2.5838944833078688e+02  2.7826645264993050e+02  2.9814339802382210e+02  3.1802029527352119e+02  3.3789715267247595e+02  3.5777397665696810e+02  3.7765077231178873e+02  3.9752754370986895e+02  4.1740429415460142e+02  4.3728102635583730e+02  4.5715774255976078e+02  4.7703444464612244e+02  4.9691113420197689e+02  5.1678781257826847e+02  5.3666448093372037e+02  5.5654114026921968e+02  5.7641779145500118e+02  5.9629443525231693e+02  6.1617107233085585e+02  6.3604770328284519e+02  6.5592432863455178e+02  6.7580094885571680e+02  6.9567756436735817e+02  7.1555417554825544e+02  7.3543078274036702e+02  7.5530738625339472e+02  7.7518398636863947e+02  7.9506058334222678e+02  8.1493717740806812e+02  8.3481376878014328e+02  8.5469035765460535e+02  8.7456694421165230e+02  8.9444352861690618e+02  9.1432011102297065e+02  9.3419669157071473e+02  9.5407327039018855e+02  9.7394984760166494e+02  9.9382642331642830e+02  1.0137029976374780e+03  1.0335795706603831e+03  1.0534561424738229e+03  1.0733327131600918e+03  1.0932092827956906e+03  1.1130858514516083e+03  1.1329624191938844e+03  1.1528389860839666e+03  1.1727155521790819e+03  1.1925921175323895e+03  1.2124686821934426e+03  1.2323452462083740e+03  1.2522218096201702e+03  1.2720983724689470e+03  1.2919749347920570e+03  1.3118514966242724e+03  1.3317280579980779e+03  1.3516046189437704e+03  1.3714811794895834e+03  1.3913577396619123e+03  1.4112342994852570e+03  1.4311108589824596e+03  1.4509874181749572e+03  1.4708639770826942e+03  1.4907405357242915e+03  1.5106170941171290e+03  1.5304936522773155e+03  1.5503702102199443e+03  1.5702467679591789e+03  1.5901233255081481e+03  1.6099998828791222e+03  1.6298764400834930e+03  1.6497529971318299e+03  1.6696295540341048e+03  1.6895061107995768e+03  1.7093826674368540e+03  1.7292592239539306e+03  1.7491357803583016e+03  1.7690123366569098e+03  1.7888888928562126e+03  1.8087654489622041e+03  1.8286420049804522e+03  1.8485185609161204e+03  1.8683951167740129e+03  1.8882716725585462e+03  1.9081482282737938e+03  1.9280247839235294e+03  1.9479013395112211e+03  1.9677778950400561e+03  1.9876544505129209e+03  2.0075310059325109e+03  2.0274075613012501e+03  2.0472841166213304e+03  2.0671606718947223e+03  2.0870372271231904e+03  2.1069137823082942e+03  2.1267903374514017e+03  2.1466668925536969e+03  2.1665434476161799e+03  2.1864200026396838e+03  2.2062965576248966e+03  2.2261731125722945e+03  2.2460496674822080e+03  2.2659262223548199e+03  2.2858027771901598e+03  2.3056793319880985e+03  2.3255558867483519e+03  2.3454324414705425e+03  2.3653089961541264e+03  2.3851855507984210e+03  2.4050621054025892e+03  2.4249386599656254e+03  2.4448152144864212e+03  2.4646917689637421e+03  2.4845683233962218e+03  2.5044448777823704e+03  2.5243214321205819e+03  2.5441979864091372e+03  2.5640745406462106e+03  2.5839510948298857e+03  2.6038276489581672e+03  2.6237042030289990e+03  2.6435807570402344e+03  2.6634573109897156e+03  2.6833338648752838e+03  2.7032104186948022e+03  2.7230869724461991e+03  2.7429635261275007e+03  2.7628400797368663e+03  2.7827166332727174e+03  2.8025931867337545e+03  2.8224697401190388e+03  2.8423462934281092e+03  2.8622228466610891e+03  2.8820993998188337e+03  2.9019759529030794e+03  2.9218525059166382e+03  2.9417290588636338e+03  2.9616056117497064e+03  2.9814821645823231e+03  3.0013587173711417e+03  3.0212352701283717e+03  3.0411118228692990e+03  3.0609883756127606e+03  3.0808649283817613e+03  3.1007414812041652e+03  3.1206180341136119e+03  3.1404945871503764e+03  3.1603711403624493e+03  3.1802476938068562e+03  3.2001242475509712e+03  3.2200008016743541e+03  3.2398773562706660e+03  3.2597539114497886e+03  3.2796304673404620e+03  3.2995070240930845e+03  3.3193835818831135e+03  3.3392601409151066e+03  3.3591367014269604e+03  3.3790132636952439e+03  3.3988898280409353e+03  3.4187663948360796e+03  3.4386429645117305e+03  3.4585195375666422e+03  3.4783961145776598e+03  3.4982726962114639e+03  3.5181492832379081e+03  3.5380258765455642e+03  3.5579024771593427e+03  3.5777790862608917e+03  3.5976557052119933e+03  3.6175323355812620e+03  3.6374089791750921e+03  3.6572856380728103e+03  3.6771623146672318e+03  3.6970390117112556e+03  3.7169157323711220e+03  3.7367924802879702e+03  3.7566692596483754e+03  3.7765460752653107e+03  3.7964229326714762e+03  3.8162998382263454e+03  3.8361767992396708e+03  3.8560538241135823e+03  3.8759309225064262e+03  3.8958081055219855e+03  3.9156853859276557e+03  3.9355627784069388e+03  3.9554402998518167e+03  3.9753179697015585e+03  3.9951958103367624e+03  4.0150738475379135e+03  4.0349521110202886e+03  4.0548306350601670e+03  4.0747094592293424e+03  4.0945886292604355e+03  4.1144681980697951e+03  4.1343482269721862e+03  4.1542287871307253e+03  4.1741099612967682e+03  4.1939918459116589e+03  4.2138745536637807e+03  4.2337582166242646e+03  4.2536429901282036e+03  4.2735290576271072e+03  4.2934166368255856e+03  4.3133059875437011e+03  4.3331974219371514e+03  4.3530913180038442e+03  4.3729881377699212e+03  4.3928884523032775e+03  4.4127929769657831e+03  4.4327026225022864e+03  4.4526185715027223e+03  4.4725423971642522e+03  4.4924762556011619e+03  4.5124232107637772e+03  4.5323878166314362e+03  4.5523772882756703e+03  4.5724028085739519e+03  4.5924675948281720e+03  4.6125947694161387e+03  4.6345586686086890e+03  4.6676690945485952e+03  6.5211530468638866e+03  6.6337034002672772e+03  6.7426711788327011e+03  6.8522529916802532e+03  6.9634586210570169e+03  6.9585756698860732e+03  6.9562364975539313e+03  6.9547724227832987e+03  6.9537204910176788e+03  6.9529222665512862e+03  6.9522974132901973e+03  6.9517955890049607e+03  6.9513832491303065e+03  6.9510375648803110e+03  6.9507427478260715e+03  6.9504876888603158e+03  6.9502644212598161e+03  6.9500671126441357e+03  6.9498913993745455e+03  6.9497339440937048e+03  6.9495921393051722e+03  6.9494639068631777e+03  6.9493475606981237e+03  6.9492417114589107e+03  6.9491451991454496e+03  6.9490570446124766e+03  6.9489764139502695e+03  6.9489025917790477e+03  6.9488349608162898e+03  6.9487729859401925e+03  6.9487162015392832e+03  6.9486642013129167e+03  6.9486166299365732e+03  6.9485731761737252e+03  6.9485335671302446e+03  6.9484975634259599e+03  6.9484649551134289e+03  6.9484355582131211e+03  6.9484092117629662e+03  6.9483857753013408e+03  6.9483651267184159e+03  6.9483471604233046e+03  6.9483317857837837e+03  6.9483189258032335e+03  6.9483085160055671e+03  6.9483005035039887e+03  6.9482948462338109e+03  6.9482915123329904e+03  6.9482904796573212e+03  6.9482917354197989e+03  6.9482952759461068e+03  6.9483011065403925e+03  6.9483092414573130e+03  6.9483197039783709e+03  6.9483325265921685e+03  6.9483477512801010e+03  6.9483654299105674e+03  6.9483856247468639e+03  6.9484084090756205e+03  6.9484338679650973e+03  6.9484620991650654e+03  6.9484932141632908e+03  6.9485273394175638e+03  6.9485646177876442e+03  6.9486052101989862e+03  6.9486492975807068e+03  6.9486970831363024e+03  6.9487487950293626e+03  6.9488046896038522e+03  6.9488650553162761e+03  6.9489302176492010e+03  6.9490005454228631e+03  6.9490764591602965e+03  6.9491584425503188e+03  6.9492470586942991e+03  6.9493429738886471e+03  6.9494469934851468e+03  6.9495601174081012e+03  6.9496836281106871e+03  6.9498192327553525e+03  6.9499692971007107e+03  6.9501372360759569e+03  6.9503281741174878e+03  6.9505500712097419e+03  6.9508156465026977e+03  6.9511456225419979e+03  6.9515739549071222e+03  6.9521554307268925e+03  6.9529759570338092e+03  6.9541850338973309e+03  6.9562789336365704e+03  6.9621137905991627e+03  6.8508696669882493e+03  6.8492233011427488e+03  6.8477793676981937e+03  6.8468132565656415e+03  6.8461508032662268e+03  6.8456721196912868e+03  6.8453071260916140e+03  6.8450153795311053e+03  6.8447729527335505e+03  6.8445653070018925e+03  6.8443833651613731e+03  6.8442212859313122e+03  6.8440751794497100e+03  6.8439423559597799e+03  6.8438208805894419e+03  6.8437093057875682e+03  6.8436065080358176e+03  6.8435115864917407e+03  6.8434237988646046e+03  6.8433425199573649e+03  6.8432672141894709e+03  6.8431974168666984e+03  6.8431327210116688e+03  6.8430727677953737e+03  6.8430172393517078e+03  6.8429658532093454e+03  6.8429183578535567e+03  6.8428745291029300e+03  6.8428341670937807e+03  6.8427970937330801e+03  6.8427631505241998e+03  6.8427321966977997e+03  6.8427041075987427e+03  6.8426787732923049e+03  6.8426560973615988e+03  6.8426359958741969e+03  6.8426183965005130e+03  6.8426032377699976e+03  6.8425904684540001e+03  6.8425800470665035e+03  6.8425719414760242e+03  6.8425661286238037e+03  6.8425625943451596e+03  6.8425613332926332e+03  6.8425623489610971e+03  6.8425656538168705e+03  6.8425712695345328e+03  6.8425792273471552e+03  6.8425895685176365e+03  6.8426023449412342e+03  6.8426176198919084e+03  6.8426354689280779e+03  6.8426559809768014e+03  6.8426792596195091e+03  6.8427054246070211e+03  6.8427346136376109e+03  6.8427669844386719e+03  6.8428027172015127e+03  6.8428420174297180e+03  6.8428851192757120e+03  6.8429322894586403e+03  6.8429838318812990e+03  6.8430400930971373e+03  6.8431014688244686e+03  6.8431684117698323e+03  6.8432414411150803e+03  6.8433211541573401e+03  6.8434082407891819e+03  6.8435035018011249e+03  6.8436078724323352e+03  6.8437224532678883e+03  6.8438485516075070e+03  6.8439877380047956e+03  6.8441419250987637e+03  6.8443134795939122e+03  6.8445053840023238e+03  6.8447214736179685e+03  6.8449667877603379e+03  6.8452480949930723e+03  6.8455746834783631e+03  6.8459595564339525e+03  6.8464212519374269e+03  6.8469866231810511e+03  6.8476948363679430e+03  6.8486003516454639e+03  6.8497552785511298e+03  6.8510775609218726e+03  6.8518849300359661e+03  6.7392292497171484e+03  6.7396806350115203e+03  6.7396983881510168e+03  6.7396601455729742e+03  6.7395495375465262e+03  6.7393960028240172e+03  6.7392236624524276e+03  6.7390474999474800e+03  6.7388757086517762e+03  6.7387122827323319e+03  6.7385588502905475e+03  6.7384157895364087e+03  6.7382828577281343e+03  6.7381595291410695e+03  6.7380451705135911e+03  6.7379391291500524e+03  6.7378407752071225e+03  6.7377495203671242e+03  6.7376648245488777e+03  6.7375861967008686e+03  6.7375131927897864e+03  6.7374454125762059e+03  6.7373824959828326e+03  6.7373241194546599e+03  6.7372699925008883e+03  6.7372198545005849e+03  6.7371734717991267e+03  6.7371306350948471e+03  6.7370911571021988e+03  6.7370548704720250e+03  6.7370216259477947e+03  6.7369912907368907e+03  6.7369637470772541e+03  6.7369388909814279e+03  6.7369166311418039e+03  6.7368968879829035e+03  6.7368795928482359e+03  6.7368646873111466e+03  6.7368521226006942e+03  6.7368418591352465e+03  6.7368338661579592e+03  6.7368281214699082e+03  6.7368246112579518e+03  6.7368233300160045e+03  6.7368242805597156e+03  6.7368274741361874e+03  6.7368329306318283e+03  6.7368406788831371e+03  6.7368507570970605e+03  6.7368632133894471e+03  6.7368781064523937e+03  6.7368955063636731e+03  6.7369154955542690e+03  6.7369381699531623e+03  6.7369636403322584e+03  6.7369920338784996e+03  6.7370234960251910e+03  6.7370581925803335e+03  6.7370963121964623e+03  6.7371380692344428e+03  6.7371837070829779e+03  6.7372335020065648e+03  6.7372877676074504e+03  6.7373468600022143e+03  6.7374111838311319e+03  6.7374811992386867e+03  6.7375574299865084e+03  6.7376404728856305e+03  6.7377310087626629e+03  6.7378298152032285e+03  6.7379377813447491e+03  6.7380559250183660e+03  6.7381854125679038e+03  6.7383275817122249e+03  6.7384839678931103e+03  6.7386563347270294e+03  6.7388467095663209e+03  6.7390574258839006e+03  6.7392911749868554e+03  6.7395510683471430e+03  6.7398406992494756e+03  6.7401641351314311e+03  6.7405255738073101e+03  6.7409278788726297e+03  6.7413685235016046e+03  6.74183349