<?xml version="1.0"?>
<VTKFile type="UnstructuredGrid"  version="0.1"  >
<UnstructuredGrid>
<Piece  NumberOfPoints="21600" NumberOfCells="42542">
<Points>
<DataArray  type="Float64"  NumberOfComponents="3"  format="ascii">0 0 0  0.77 0 0  0.77 0.15 0  0 0.15 0  0.003221757322170014 0 0  0.006443514644340046 0 0  0.009665271966510193 0 0  0.01288702928868034 0 0  0.01610878661085048 0 0  0.01933054393302049 0 0  0.02255230125519027 0 0  0.02577405857735967 0 0  0.02899581589952872 0 0  0.03221757322169801 0 0  0.03543933054386744 0 0  0.03866108786603686 0 0  0.04188284518820627 0 0  0.0451046025103757 0 0  0.04832635983254521 0 0  0.05154811715471607 0 0  0.05476987447688695 0 0  0.05799163179905782 0 0  0.06121338912122846 0 0  0.06443514644339859 0 0  0.06765690376556875 0 0  0.0708786610877389 0 0  0.07410041840990904 0 0  0.0773221757320792 0 0  0.08054393305425039 0 0  0.08376569037642198 0 0  0.0869874476985936 0 0  0.09020920502076518 0 0  0.0934309623429339 0 0  0.0966527196651024 0 0  0.09987447698726967 0 0  0.1030962343094369 0 0  0.1063179916316041 0 0  0.1095397489537714 0 0  0.1127615062759386 0 0  0.1159832635981051 0 0  0.1192050209202709 0 0  0.1224267782424358 0 0  0.1256485355646001 0 0  0.1288702928867644 0 0  0.1320920502089288 0 0  0.1353138075310958 0 0  0.1385355648532632 0 0  0.1417573221754333 0 0  0.1449790794976035 0 0  0.1482008368197736 0 0  0.1514225941419428 0 0  0.1546443514641101 0 0  0.157866108786276 0 0  0.1610878661084403 0 0  0.1643096234306047 0 0  0.167531380752769 0 0  0.1707531380749333 0 0  0.1739748953970977 0 0  0.177196652719262 0 0  0.1804184100414264 0 0  0.1836401673635935 0 0  0.1868619246857611 0 0  0.1900836820079313 0 0  0.1933054393301014 0 0  0.1965271966522716 0 0  0.1997489539744406 0 0  0.2029707112966078 0 0  0.2061924686187736 0 0  0.209414225940938 0 0  0.2126359832631022 0 0  0.2158577405852666 0 0  0.219079497907431 0 0  0.2223012552295953 0 0  0.2255230125517597 0 0  0.2287447698739242 0 0  0.2319665271960914 0 0  0.2351882845182592 0 0  0.2384100418404293 0 0  0.2416317991625994 0 0  0.2448535564847696 0 0  0.2480753138069371 0 0  0.2512970711291014 0 0  0.2545188284512658 0 0  0.2577405857734302 0 0  0.2609623430955986 0 0  0.2641841004177688 0 0  0.2674058577399389 0 0  0.270627615062109 0 0  0.2738493723842792 0 0  0.2770711297064487 0 0  0.280292887028613 0 0  0.2835146443507774 0 0  0.2867364016729417 0 0  0.2899581589951061 0 0  0.2931799163172705 0 0  0.2964016736394348 0 0  0.2996234309615992 0 0  0.3028451882837672 0 0  0.3060669456059373 0 0  0.3092887029281075 0 0  0.3125104602502776 0 0  0.3157322175724478 0 0  0.3189539748946177 0 0  0.322175732216782 0 0  0.3253974895389464 0 0  0.3286192468611107 0 0  0.3318410041832751 0 0  0.3350627615054395 0 0  0.3382845188276038 0 0  0.3415062761497681 0 0  0.3447280334719325 0 0  0.3479497907940968 0 0  0.3511715481162612 0 0  0.3543933054384255 0 0  0.3576150627605947 0 0  0.3608368200827649 0 0  0.364058577404935 0 0  0.3672803347271051 0 0  0.3705020920492753 0 0  0.373723849371444 0 0  0.3769456066936084 0 0  0.3801673640157748 0 0  0.383389121337945 0 0  0.3866108786601209 0 0  0.3898326359823028 0 0  0.3930543933044846 0 0  0.3962761506266662 0 0  0.399497907948848 0 0  0.4027196652710298 0 0  0.4059414225932116 0 0  0.4091631799153934 0 0  0.4123849372375751 0 0  0.4156066945597569 0 0  0.4188284518819387 0 0  0.4220502092041222 0 0  0.4252719665263097 0 0  0.4284937238484974 0 0  0.4317154811706849 0 0  0.4349372384928725 0 0  0.4381589958150601 0 0  0.4413807531372476 0 0  0.4446025104594352 0 0  0.4478242677816181 0 0  0.4510460251037998 0 0  0.4542677824259815 0 0  0.4574895397481634 0 0  0.4607112970703451 0 0  0.4639330543925269 0 0  0.4671548117147087 0 0  0.4703765690368904 0 0  0.4735983263590722 0 0  0.4768200836812568 0 0  0.4800418410034444 0 0  0.483263598325632 0 0  0.4864853556478196 0 0  0.4897071129700028 0 0  0.4929288702921845 0 0  0.4961506276143663 0 0  0.4993723849365479 0 0  0.5025941422587239 0 0  0.5058158995809008 0 0  0.5090376569030826 0 0  0.5122594142252677 0 0  0.515481171547461 0 0  0.5187029288696494 0 0  0.5219246861918312 0 0  0.525146443514013 0 0  0.5283682008361947 0 0  0.5315899581583845 0 0  0.5348117154805778 0 0  0.5380334728027617 0 0  0.5412552301249435 0 0  0.5444769874471141 0 0  0.5476987447692853 0 0  0.550920502091467 0 0  0.5541422594136513 0 0  0.5573640167358447 0 0  0.560585774058034 0 0  0.5638075313802158 0 0  0.5670292887023975 0 0  0.5702510460245793 0 0  0.5734728033467682 0 0  0.5766945606689615 0 0  0.579916317991155 0 0  0.5831380753133483 0 0  0.5863598326355314 0 0  0.5895815899577131 0 0  0.5928033472798949 0 0  0.5960251046020785 0 0  0.5992468619242718 0 0  0.6024686192464619 0 0  0.6056903765686437 0 0  0.6089121338908206 0 0  0.6121338912129908 0 0  0.6153556485351673 0 0  0.618577405857349 0 0  0.6217991631795386 0 0  0.625020920501732 0 0  0.6282426778239159 0 0  0.6314644351460976 0 0  0.6346861924682795 0 0  0.6379079497904622 0 0  0.6411297071126555 0 0  0.6443514644348465 0 0  0.6475732217570283 0 0  0.650794979079206 0 0  0.6540167364013761 0 0  0.6572384937235518 0 0  0.6604602510457335 0 0  0.6636820083679225 0 0  0.6669037656901158 0 0  0.6701255230123004 0 0  0.6733472803344823 0 0  0.6765690376566641 0 0  0.6797907949788459 0 0  0.6830125523010393 0 0  0.686234309623231 0 0  0.6894560669454127 0 0  0.6926778242675914 0 0  0.6958995815897615 0 0  0.6991213389119363 0 0  0.7023430962341181 0 0  0.7055648535563062 0 0  0.7087866108784994 0 0  0.712008368200685 0 0  0.7152301255228668 0 0  0.7184518828450486 0 0  0.7216736401672305 0 0  0.724895397489423 0 0  0.7281171548116155 0 0  0.7313389121337973 0 0  0.7345606694559768 0 0  0.7377824267781468 0 0  0.7410041841003209 0 0  0.7442259414225026 0 0  0.7474476987446899 0 0  0.7506694560668832 0 0  0.7538912133890696 0 0  0.7571129707112513 0 0  0.760334728033433 0 0  0.7635564853556149 0 0  0.7667782426778067 0 0  0.77 0.001685393258423789 0  0.77 0.003370786516847669 0  0.77 0.005056179775271247 0  0.77 0.006741573033694517 0  0.77 0.008426966292117821 0  0.77 0.01011235955054176 0  0.77 0.01179775280896623 0  0.77 0.0134831460673904 0  0.77 0.01516853932581489 0  0.77 0.01685393258423891 0  0.77 0.01853932584266291 0  0.77 0.02022471910108589 0  0.77 0.02191011235950794 0  0.77 0.02359550561792999 0  0.77 0.02528089887635205 0  0.77 0.02696629213477411 0  0.77 0.02865168539319714 0  0.77 0.03033707865161956 0  0.77 0.03202247191004162 0  0.77 0.03370786516846367 0  0.77 0.03539325842688572 0  0.77 0.03707865168530778 0  0.77 0.03876404494372984 0  0.77 0.0404494382021519 0  0.77 0.04213483146057394 0  0.77 0.04382022471899601 0  0.77 0.04550561797741807 0  0.77 0.04719101123584013 0  0.77 0.04887640449426219 0  0.77 0.05056179775268425 0  0.77 0.0522471910111063 0  0.77 0.05393258426952837 0  0.77 0.05561797752795105 0  0.77 0.05730337078637505 0  0.77 0.05898876404479723 0  0.77 0.0606741573032193 0  0.77 0.06235955056164135 0  0.77 0.06404494382006341 0  0.77 0.06573033707848548 0  0.77 0.06741573033690752 0  0.77 0.06910112359532959 0  0.77 0.07078651685375165 0  0.77 0.0724719101121737 0  0.77 0.07415730337059653 0  0.77 0.07584269662902443 0  0.77 0.07752808988745429 0  0.77 0.07921348314588413 0  0.77 0.08089887640431678 0  0.77 0.08258426966274923 0  0.77 0.08426966292117907 0  0.77 0.08595505617960987 0  0.77 0.08764044943804362 0  0.77 0.08932584269647403 0  0.77 0.09101123595490389 0  0.77 0.09269662921333673 0  0.77 0.09438202247176901 0  0.77 0.09606741573019884 0  0.77 0.09775280898862983 0  0.77 0.09943820224706355 0  0.77 0.1011235955054938 0  0.77 0.1028089887639236 0  0.77 0.1044943820223567 0  0.77 0.1061797752807888 0  0.77 0.1078651685392186 0  0.77 0.1095505617976498 0  0.77 0.1112359550560835 0  0.77 0.1129213483145136 0  0.77 0.1146067415729456 0  0.77 0.1162921348313787 0  0.77 0.1179775280898085 0  0.77 0.1196629213482387 0  0.77 0.1213483146066724 0  0.77 0.1230337078651035 0  0.77 0.1247191011235322 0  0.77 0.1264044943819605 0  0.77 0.1280898876403903 0  0.77 0.1297752808988242 0  0.77 0.1314606741572554 0  0.77 0.1331460674156853 0  0.77 0.1348314606741154 0  0.77 0.1365168539325504 0  0.77 0.1382022471909802 0  0.77 0.13988764044941 0  0.77 0.1415730337078443 0  0.77 0.1432584269662752 0  0.77 0.144943820224705 0  0.77 0.1466292134831355 0  0.77 0.1483146067415701 0  0.7667782426778414 0.15 0  0.7635564853556813 0.15 0  0.7603347280335111 0.15 0  0.757112970711341 0.15 0  0.7538912133891708 0.15 0  0.7506694560670005 0.15 0  0.7474476987448303 0.15 0  0.7442259414226602 0.15 0  0.74100418410049 0.15 0  0.7377824267783197 0.15 0  0.7345606694561496 0.15 0  0.7313389121339794 0.15 0  0.7281171548118092 0.15 0  0.724895397489639 0.15 0  0.7216736401674688 0.15 0  0.7184518828452986 0.15 0  0.7152301255231284 0.15 0  0.7120083682009583 0.15 0  0.708786610878788 0.15 0  0.7055648535566178 0.15 0  0.7023430962344477 0.15 0  0.6991213389122775 0.15 0  0.6958995815901072 0.15 0  0.692677824267937 0.15 0  0.6894560669457669 0.15 0  0.6862343096235967 0.15 0  0.6830125523014264 0.15 0  0.6797907949792563 0.15 0  0.6765690376570861 0.15 0  0.6733472803349159 0.15 0  0.6701255230127456 0.15 0  0.6669037656905755 0.15 0  0.6636820083684053 0.15 0  0.6604602510462351 0.15 0  0.657238493724065 0.15 0  0.6540167364018947 0.15 0  0.6507949790797245 0.15 0  0.6475732217575543 0.15 0  0.644351464435384 0.15 0  0.6411297071132231 0.15 0  0.6379079497910645 0.15 0  0.634686192468906 0.15 0  0.6314644351467468 0.15 0  0.6282426778245765 0.15 0  0.6250209205024085 0.15 0  0.62179916318025 0.15 0  0.6185774058580914 0.15 0  0.6153556485359328 0.15 0  0.6121338912137689 0.15 0  0.6089121338915987 0.15 0  0.6056903765694354 0.15 0  0.6024686192472768 0.15 0  0.5992468619251182 0.15 0  0.5960251046029597 0.15 0  0.5928033472807912 0.15 0  0.589581589958621 0.15 0  0.5863598326364508 0.15 0  0.5831380753142792 0.15 0  0.5799163179920974 0.15 0  0.57669456
[...]
<PointData  Scalars="pressure"> 
<DataArray  type="Float64"  Name="pressure"  format="ascii">9.4362199125607967e+03  4.0549110705818237e-01  -3.0042996232822128e-01  9.4219613405674445e+03  9.2976100446109795e+03  9.1888768872056044e+03  9.0811142637258581e+03  8.9736749169803243e+03  8.8666023771884884e+03  8.7597621137106271e+03  8.6530770396370644e+03  8.5465028224180514e+03  8.4400107852985584e+03  8.3335812692962227e+03  8.2272002031965912e+03  8.1208571350256070e+03  8.0145440442037097e+03  7.9082545872280498e+03  7.8019835948958516e+03  7.6957267204491054e+03  7.5894801794185305e+03  7.4832405437556772e+03  7.3770045642020159e+03  7.2707689999365439e+03  7.1645304348351629e+03  7.0582850545289575e+03  6.9520283480390244e+03  6.8457546872726016e+03  6.7394566930644896e+03  6.6331240208316958e+03  6.5267408020566345e+03  6.4202828426392261e+03  6.3137217599807709e+03  6.2070081236739961e+03  6.0998677993811789e+03  5.9913910052985684e+03  5.8771948264725097e+03  4.2054040359436403e+03  4.1354311704654338e+03  4.0658029996984942e+03  4.0130144513376695e+03  3.9966113483057329e+03  3.9761780402649520e+03  3.9560513570640519e+03  3.9360352148234856e+03  3.9160617125215263e+03  3.8961144379433772e+03  3.8761843604808596e+03  3.8562660933843376e+03  3.8363563100004249e+03  3.8164528316383376e+03  3.7965541646357897e+03  3.7766592482218639e+03  3.7567673070741057e+03  3.7368777607465190e+03  3.7169901657795567e+03  3.6971041774386058e+03  3.6772195236918183e+03  3.6573359870677523e+03  3.6374533917283566e+03  3.6175715940783120e+03  3.5976904758243891e+03  3.5778099387648344e+03  3.5579299008219855e+03  3.5380502929821305e+03  3.5181710569073116e+03  3.4982921430511838e+03  3.4784135091577841e+03  3.4585351190544420e+03  3.4386569416730554e+03  3.4187789502504388e+03  3.3989011216703507e+03  3.3790234359186456e+03  3.3591458756294123e+03  3.3392684257049209e+03  3.3193910729958047e+03  3.2995138060307768e+03  3.2796366147872291e+03  3.2597594904959274e+03  3.2398824254740894e+03  3.2200054129823961e+03  3.2001284471020781e+03  3.1802515226291011e+03  3.1603746349828689e+03  3.1404977801271948e+03  3.1206209545019533e+03  3.1007441549636683e+03  3.0808673787339253e+03  3.0609906233545062e+03  3.0411138866482916e+03  3.0212371666851877e+03  3.0013604617522801e+03  2.9814837703279104e+03  2.9616070910589010e+03  2.9417304227406380e+03  2.9218537642996221e+03  2.9019771147781757e+03  2.8821004733209911e+03  2.8622238391634064e+03  2.8423472116210128e+03  2.8224705900805320e+03  2.8025939739918108e+03  2.7827173628607670e+03  2.7628407562431921e+03  2.7429641537391731e+03  2.7230875549883458e+03  2.7032109596655796e+03  2.6833343674772041e+03  2.6634577781576563e+03  2.6435811914665233e+03  2.6237046071859095e+03  2.6038280251181236e+03  2.5839514450835973e+03  2.5640748669190534e+03  2.5441982904758506e+03  2.5243217156186029e+03  2.5044451422238212e+03  2.4845685701787684e+03  2.4646919993804354e+03  2.4448154297346259e+03  2.4249388611551385e+03  2.4050622935629585e+03  2.3851857268856861e+03  2.3653091610569118e+03  2.3454325960156962e+03  2.3255560317061245e+03  2.3056794680767930e+03  2.2858029050804630e+03  2.2659263426737116e+03  2.2460497808166206e+03  2.2261732194724805e+03  2.2062966586075527e+03  2.1864200981908184e+03  2.1665435381937837e+03  2.1466669785902704e+03  2.1267904193562572e+03  2.1069138604697623e+03  2.0870373019106478e+03  2.0671607436605082e+03  2.0472841857025628e+03  2.0274076280215481e+03  2.0075310706036307e+03  1.9876545134363498e+03  1.9677779565084579e+03  1.9479013998099274e+03  1.9280248433318793e+03  1.9081482870665293e+03  1.8882717310071300e+03  1.8683951751479442e+03  1.8485186194842029e+03  1.8286420640120782e+03  1.8087655087286455e+03  1.7888889536318916e+03  1.7690123987207101e+03  1.7491358439948528e+03  1.7292592894549698e+03  1.7093827351025329e+03  1.6895061809399024e+03  1.6696296269703266e+03  1.6497530731979830e+03  1.6298765196278862e+03  1.6099999662659993e+03  1.5901234131192750e+03  1.5702468601956173e+03  1.5503703075040573e+03  1.5304937550546210e+03  1.5106172028583853e+03  1.4907406509276213e+03  1.4708640992757571e+03  1.4509875479175660e+03  1.4311109968692003e+03  1.4112344461480957e+03  1.3913578957732630e+03  1.3714813457651519e+03  1.3516047961458721e+03  1.3317282469393961e+03  1.3118516981714652e+03  1.2919751498699093e+03  1.2720986020645919e+03  1.2522220547875322e+03  1.2323455080731569e+03  1.2124689619583680e+03  1.1925924164828043e+03  1.1727158716889651e+03  1.1528393276223680e+03  1.1329627843318297e+03  1.1130862418695094e+03  1.0932097002912999e+03  1.0733331596570320e+03  1.0534566200307070e+03  1.0335800814809538e+03  1.0137035440811652e+03  9.9382700790983699e+02  9.7395047305101536e+02  9.5407393959458136e+02  9.3419740763686059e+02  9.1432087728099884e+02  8.9444434863755157e+02  8.7456782182508107e+02  8.5469129697062385e+02  8.3481477421056820e+02  8.1493825369144349e+02  7.9506173557077011e+02  7.7518522001829319e+02  7.5530870721699864e+02  7.3543219736444144e+02  7.1555569067445981e+02  6.9567918737887567e+02  6.7580268772984857e+02  6.5592619200237516e+02  6.3604970049739381e+02  6.1617321354551075e+02  5.9629673151128543e+02  5.7642025479879055e+02  5.5654378385826158e+02  5.3666731919421647e+02  5.1679086137587274e+02  4.9691441104972182e+02  4.7703796895555860e+02  4.5716153594709442e+02  4.3728511301799455e+02  4.1740870133598600e+02  3.9753230228717001e+02  3.7765591753464639e+02  3.5777954909705755e+02  3.3790319945491370e+02  3.1802687169743660e+02  2.9815056972836533e+02  2.7827429856017000e+02  2.5839806474473460e+02  2.3852187701946602e+02  2.1864574730689208e+02  1.9876969231701204e+02  1.7889373622523112e+02  1.5901791538957943e+02  1.3914228720052401e+02  1.1926694763414977e+02  9.9392070541200482e+01  7.9518049448526128e+01  5.9645944523092105e+01  3.9775655185591617e+01  1.9905395018685734e+01  8.4075679517623250e-02  4.3198869235345719e-03  9.2468852557926100e-04  5.6852749466589580e-04  3.2495009879291592e-04  1.9100640340615727e-04  1.1944322596614807e-04  7.8883910972215614e-05  5.4500991044284259e-05  3.9092382287056263e-05  2.8932543086355689e-05  2.1986287262940065e-05  1.7087631011718738e-05  1.3539764676070631e-05  1.0910419087435157e-05  8.9224434879536721e-06  7.3928858893227559e-06  6.1978159327099228e-06  5.2513328374736774e-06  4.4926613368989016e-06  3.8780043988359225e-06  3.3752734097721227e-06  2.9606040304355364e-06  2.6160064418701523e-06  2.3277515900891950e-06  2.0852444206370007e-06  1.8802250661900874e-06  1.7061946786140074e-06  1.5579973354471524e-06  1.4315120120057265e-06  1.3234232095680380e-06  1.2310484081968479e-06  1.1522070958815692e-06  1.0851205978921322e-06  1.0283348210367013e-06  9.8066039774427007e-07  9.4112605573497106e-07  9.0894215474442075e-07  8.8347217901542021e-07  8.6421052549781892e-07  8.5076525720067792e-07  8.4284494213712201e-07  8.4024886482414530e-07  8.4286012968289947e-07  8.5064123872486416e-07  8.6363197823143326e-07  8.8194942086222691e-07  9.0579011382494677e-07  9.3543437534933041e-07  9.7125298760469020e-07  1.0137164853660511e-06  1.0634074063260374e-06  1.1210360933684776e-06  1.1874606773328027e-06  1.2637122037889038e-06  1.3510260937045378e-06  1.4508814956002322e-06  1.5650506010357839e-06  1.6956605859441198e-06  1.8452717217971933e-06  2.0169763199348555e-06  2.2145247271051280e-06  2.4424866540768856e-06  2.7064590496167872e-06  3.0133355627345576e-06  3.3716582174793002e-06  3.7920794033801878e-06  4.2879727601385862e-06  4.8762461689431625e-06  5.5784299931285030e-06  6.4221410821280354e-06  7.4430587314925999e-06  8.6875937016171638e-06  1.0216479988566060e-05  1.2109553907881995e-05  1.4471954430759648e-05  1.7441748827816806e-05  2.1198237533283359e-05  2.5968239116374341e-05  3.2023740313072687e-05  3.9662778372452546e-05  4.9212594631770265e-05  6.1709096772298699e-05  9.1607342532881364e-05  3.6482712538403830e-04  3.3469963058548398e-03  2.3683373374334609e-02  1.3918325651217475e-02  1.9712063518950362e+01  3.9716791053605760e+01  5.9604593005974920e+01  7.9486587871887764e+01  9.9367114168864205e+01  1.1924633780871123e+02  1.3912479664324974e+02  1.5900278376542175e+02  1.7888045631464374e+02  1.9875790836126185e+02  2.1863519981678502e+02  2.3851237059058397e+02  2.5838944828503213e+02  2.7826645259866586e+02  2.9814339796660624e+02  3.1802029520986889e+02  3.3789715260185710e+02  3.5777397657880471e+02  3.7765077222545278e+02  3.9752754361467964e+02  4.1740429404982228e+02  4.3728102624067213e+02  4.5715774243335107e+02  4.7703444450754267e+02  4.9691113405023077e+02  5.1678781241228432e+02  5.3666448075234621e+02  5.5654114007121757e+02  5.7641779123904189e+02  5.9629443501697415e+02  6.1617107207459969e+02  6.3604770300403425e+02  6.5592432833142630e+02  6.7580094852639081e+02  6.9567756400981091e+02  7.1555417516032082e+02  7.3543078231972561e+02  7.5530738579756110e+02  7.7518398587495301e+02  7.9506058280783816e+02  8.1493717682992610e+02  8.3481376815498106e+02  8.5469035697892639e+02  8.7456694348171402e+02  8.9444352782870021e+02  9.1432011017220850e+02  9.3419669065280573e+02  9.5407326940022040e+02  9.7394984653437916e+02  9.9382642216619843e+02  1.0137029963982817e+03  1.0335795693257764e+03  1.0534561410369106e+03  1.0733327116134951e+03  1.0932092811315131e+03  1.1130858496614017e+03  1.1329624172686088e+03  1.1528389840139498e+03  1.1727155499539747e+03  1.1925921151411180e+03  1.2124686796241599e+03  1.2323452434484043e+03  1.2522218066559522e+03  1.2720983692859716e+03  1.2919749313748018e+03  1.3118514929561320e+03  1.3317280540612862e+03  1.3516046147193231e+03  1.3714811749571500e+03  1.3913577347997450e+03  1.4112342942700911e+03  1.4311108533894107e+03  1.4509874121774085e+03  1.4708639706521740e+03  1.4907405288303476e+03  1.5106170867271935e+03  1.5304936443565543e+03  1.5503702017311059e+03  1.5702467588624231e+03  1.5901233157608731e+03  1.6099998724357727e+03  1.6298764288953589e+03  1.6497529851468285e+03  1.6696295411965518e+03  1.6895060970499410e+03  1.7093826527114979e+03  1.7292592081848275e+03  1.7491357634727419e+03  1.7690123185771827e+03  1.7888888734992695e+03  1.8087654282393041e+03  1.8286419827967761e+03  1.8485185371703676e+03  1.8683950913579708e+03  1.8882716453566345e+03  1.9081481991625758e+03  1.9280247527711992e+03  1.9479013061770579e+03  1.9677778593738428e+03  1.9876544123543356e+03  2.0075309651104792e+03  2.0274075176332597e+03  2.0472840699127098e+03  2.0671606219378809e+03  2.0870371736968168e+03  2.1069137251765164e+03  2.1267902763629008e+03  2.1466668272407846e+03  2.1665433777938329e+03  2.1864199280045282e+03  2.2062964778541646e+03  2.2261730273227304e+03  2.2460495763889462e+03  2.2659261250302202e+03  2.2858026732226208e+03  2.3056792209408395e+03  2.3255557681581768e+03  2.3454323148466083e+03  2.3653088609766901e+03  2.3851854065176180e+03  2.4050619514372343e+03  2.4249384957020638e+03  2.4448150392774505e+03  2.4646915821276311e+03  2.4845681242158612e+03  2.5044446655045945e+03  2.5243212059556940e+03  2.5441977455307087e+03  2.5640742841912070e+03  2.5839508218991882e+03  2.6038273586175842e+03  2.6237038943108573e+03  2.6435804289456723e+03  2.6634569624918126e+03  2.6833334949231762e+03  2.7032100262189720e+03  2.7230865563651419e+03  2.7429630853560257e+03  2.7628396131963041e+03  2.7827161399033585e+03  2.8025926655099083e+03  2.8224691900671423e+03  2.8423457136483939e+03  2.8622222363533888e+03  2.8820987583132064e+03  2.9019752796960324e+03  2.9218518007138377e+03  2.9417283216301462e+03  2.9616048427689793e+03  2.9814813645252666e+03  3.0013578873769229e+03  3.0212344118987617e+03  3.0411109387787028e+03  3.0609874688363984e+03  3.0808640030448391e+03  3.1007405425553434e+03  3.1206170887265912e+03  3.1404936431580463e+03  3.1603702077287276e+03  3.1802467846422373e+03  3.2001233764787503e+03  3.2199999862557024e+03  3.2398766174980797e+03  3.2597532743201223e+03  3.2796299615207349e+03  3.2995066846946083e+03  3.3193834503623725e+03  3.3392602661233364e+03  3.3591371408346222e+03  3.3790140848228439e+03  3.3988911101342155e+03  3.4187682308316680e+03  3.4386454633496310e+03  3.4585228269189220e+03  3.4784003440793167e+03  3.4982780413008650e+03  3.5181559497421945e+03  3.5380341061831327e+03  3.5579125541804515e+03  3.5777913455131511e+03  3.5976705420069447e+03  3.6175502178614679e+03  3.6374304626531730e+03  3.6573113852576498e+03  3.6771931190434580e+03  3.6970758288519360e+03  3.7169597205306677e+03  3.7368450541911070e+03  3.7567321630142010e+03  3.7766214805231098e+03  3.7965135811305572e+03  3.8164092421362298e+03  3.8363095415956445e+03  3.8562160185630619e+03  3.8761309465094364e+03  3.8960578208071433e+03  3.9160022825939936e+03  3.9359740752990629e+03  3.9559901474377516e+03  3.9760652718243327e+03  3.9962578812314096e+03  4.0187063337191275e+03  4.0542645349133941e+03  4.1300795434972370e+03  5.7745669546033678e+03  5.8870720888893038e+03  5.9946758168733031e+03  6.1016005622120238e+03  6.2082084286806321e+03  6.3146906153435666e+03  6.4210849298550675e+03  6.5274171412592532e+03  6.6337073875257347e+03  6.7399688043361048e+03  6.8462100620712990e+03  6.9524373906864021e+03  7.0586555593227795e+03  7.1648683977865976e+03  7.2710791450244933e+03  7.3772906973054696e+03  7.4835057929443283e+03  7.5897271626952661e+03  7.6959576665241075e+03  7.8022004326682236e+03  7.9084590142271081e+03  8.0147375811848697e+03  8.1210411722897670e+03  8.2273760437332294e+03  8.3337501747262049e+03  8.4401740336772818e+03  8.5466617945442031e+03  8.6532333706893151e+03  8.7599180135119423e+03  8.8667612707772296e+03  8.9738415246163768e+03  9.0813034932586015e+03  9.1892863538511465e+03  9.2985206065150087e+03  9.4096121515467476e+03  9.4046425894500699e+03  9.4021596951078773e+03  9.4005052509241159e+03  9.3992293590607678e+03  9.3981866362377805e+03  9.3973078854609685e+03  9.3965511940355791e+03  9.3958887864659700e+03  9.3953014137013524e+03  9.3947752554655290e+03  9.3943000785852237e+03  9.3938681032915847e+03  9.3934732811658505e+03  9.3931108194328990e+03  9.3927768577347961e+03  9.3924682424780876e+03  9.3921823655294538e+03  9.3919170464919443e+03  9.3916704451982023e+03  9.3914409955965912e+03  9.3912273550684640e+03  9.3910283650646852e+03  9.3908430201722877e+03  9.3906704435471147e+03  9.3905098672146269e+03  9.3903606161372882e+03  9.3902220952275893e+03  9.3900937786879003e+03  9.3899752012056797e+03  9.3898659506414951e+03  9.3897656619282207e+03  9.3896740119611404e+03  9.3895907153054250e+03  9.3895155205831597e+03  9.3894482074301832e+03  9.3893885839347950e+03  9.3893364844876960e+03  9.3892917679863313e+03  9.3892543163480495e+03  9.3892240332955644e+03  9.3892008433859100e+03  9.3891846912601250e+03  9.3891755410969017e+03  9.3891733762576860e+03  9.3891781991155240e+03  9.3891900310636556e+03  9.3892089127040781e+03  9.3892349042198584e+03  9.3892680859395332e+03  9.3893085591056752e+03  9.3893564468653003e+03  9.3894118955046288e+03  9.3894750759577655e+03  9.3895461856261263e+03  9.3896254505550314e+03  9.3897131280251197e+03  9.3898095096304860e+03  9.3899149249329785e+03  9.3900297458047789e+03  9.3901543915997063e+03  9.3902893353308627e+03  9.3904351110801144e+03  9.3905923229282635e+03  9.3907616557786696e+03  9.3909438885597119e+03  9.3911399104449956e+03  9.3913507409405793e+03  9.3915775549826303e+03  9.3918217146044644e+03  9.3920848093290733e+03  9.3923687083167588e+03  9.3926756285982810e+03  9.3930082257027279e+03  9.3933697160693027e+03  9.3937640455479377e+03  9.3941961263703051e+03  9.3946721786788603e+03  9.3952002368422673e+03  9.3957909248899032e+03  9.3964586870475232e+03  9.3972237991450202e+03  9.3981156490357880e+03  9.3991777212632078e+03  9.4004752242577415e+03  9.4021267493356481e+03  9.4045855165069461e+03  9.4106636763107163e+03  9.2996440220383520e+03  9.2976885626873918e+03  9.2958216898271894e+03  9.2943528982619700e+03  9.2931703601177105e+03  9.2921851971553369e+03  9.2913441314195916e+03  9.2906132519012663e+03  9.2899693880426275e+03  9.2893959697407809e+03  9.2888807693825984e+03  9.2884145345107099e+03  9.2879901119453170e+03  9.2876018671084530e+03  9.2872452884394206e+03  9.2869167113286803e+03  9.2866131212246401e+03  9.2863320104295944e+03  9.2860712720917381e+03  9.2858291204744146e+03  9.2856040301214452e+03  9.2853946888324372e+03  9.2851999608814094e+03  9.2850188579371079e+03  9.2848505158467578e+03  9.2846941759356159e+03  9.2845491698218430e+03  9.2844149069953401e+03  9.2842908645901880e+03  9.2841765789135061e+03  9.2840716383926374e+03  9.2839756776768027e+03  9.2838883726860768e+03  9.2838094364436583e+03  9.2837386155610093e+03  9.2836756872714759e+03  9.2836204569286292e+03  9.2835727559018560e+03  9.2835324398149132e+03  9.2834993870836261e+03  9.2834734977178068e+03  9.2834546923595408e+03  9.2834429115361800e+03  9.2834381151115376e+03  9.2834402819235183e+03  9.2834494096004455e+03  9.2834655145523102e+03  9.2834886321368776e+03  9.2835188170043311e+03  9.2835561436279186e+03  9.2836007070323267e+03  9.2836526237359958e+03  9.2837120329286772e+03  9.2837790979118072e+03  9.2838540078360129e+03  9.2839369797789877e+03  9.2840282612170740e+03  9.2841281329568683e+03  9.2842369126091253e+03  9.2843549587072102e+03  9.2844826755978847e+03  9.2846205192646739e+03  9.2847690042861632e+03  9.2849287121861307e+03  9.2851003015044917e+03  9.2852845200134070e+03  9.2854822196307996e+03  9.2856943747572950e+03  9.2859221050004926e+03  9.2861667035810606e+03  9.2864296731805680e+03  9.2867127716551113e+03  9.2870180710021723e+03  9.2873480343879037e+03  9.2877056181732532e+03  9.2880944091380024e+03  9.2885188121948413e+03  9.2889843120212863e+03  9.2894978453810563e+03  9.2900683436327254e+03  9.2907075460686283e+03  9.2914312645437312e+03  9.2922614221632866e+03  9.2932291933521810e+03  9.2943772732482084e+03  9.2957422665891427e+03  9.2972246139455729e+03  9.2981269452449815e+03  9.1890827891232348e+03  9.1887685378392980e+03  9.1880800654884006e+03  9.1872800836464321e+03  9.1864902417690973e+03  9.1857518008587012e+03  9.1850745872391872e+03  9.1844572619606624e+03  9.1838948613947105e+03  9.1833816132825214e+03  9.1829119800160315e+03  9.1824810052788089e+03  9.1820843822911011e+03  9.1817184153519174e+03  9.1813799465952598e+03  9.1810662775693927e+03  9.1807750969898771e+03  9.1805044181813228e+03  9.1802525264738542e+03  9.1800179355925738e+03  9.1797993517278264e+03  9.1795956439872680e+03  9.1794058200775835e+03  9.1792290062449501e+03  9.1790644306763552e+03  9.1789114097151232e+03  9.1787693363700964e+03  9.1786376707003328e+03  9.1785159317396046e+03  9.1784036906907440e+03  9.1783005651723961e+03  9.1782062143423664e+03  9.1781203347551527e+03  9.1780426568379353e+03  9.1779729418906390e+03  9.1779109795331460e+03  9.1778565855365450e+03  9.1778095999870202e+03  9.1777698857402029e+03  9.1777373271317138e+03  9.1777118289160844e+03  9.1776933154119106e+03  9.1776817298356491e+03  9.1776770338107963e+03  9.1776792070427018e+03  9.1776882471528024e+03  9.1777041696691449e+03  9.1777270081730185e+03  9.1777568146048452e+03  9.1777936597352746e+03  9.1778376338110575e+03  9.1778888473887091e+03  9.1779474323731611e+03  9.1780135432832431e+03  9.1780873587711794e+03  9.1781690834297206e+03  9.1782589499280784e+03  9.1783572215270378e+03  9.1784641950345740e+03  9.1785802042769701e+03  9.1787056241770151e+03  9.1788408755513283e+03  9.1789864307644020e+03  9.1791428204085114e+03  9.1793106412180041e+03  9.1794905654757658e+03  9.1796833522305369e+03  9.1798898607195642e+03  9.1801110664836979e+03  9.1803480807734395e+03  9.1806021739734988e+03  9.1808748039126749e+03  9.1811676500526701e+03  9.1814826546084387e+03  9.1818220715169609e+03  9.1821885235595546e+03  9.1825850662340508e+03  9.1830152527887440e+03  9.1834831850428527e+03  9.1839935119012280e+03  9.1845512839558342e+03  9.1851614439528985e+03  9.1858274280589103e+03  9.1865477250174281e+03  9.1873085945258354e+03  9.18807379