<?xml version="1.0"?>
<VTKFile type="UnstructuredGrid"  version="0.1"  >
<UnstructuredGrid>
<Piece  NumberOfPoints="21600" NumberOfCells="42542">
<Points>
<DataArray  type="Float64"  NumberOfComponents="3"  format="ascii">0 0 0  0.77 0 0  0.77 0.15 0  0 0.15 0  0.003221757322170014 0 0  0.006443514644340046 0 0  0.009665271966510193 0 0  0.01288702928868034 0 0  0.01610878661085048 0 0  0.01933054393302049 0 0  0.02255230125519027 0 0  0.02577405857735967 0 0  0.02899581589952872 0 0  0.03221757322169801 0 0  0.03543933054386744 0 0  0.03866108786603686 0 0  0.04188284518820627 0 0  0.0451046025103757 0 0  0.04832635983254521 0 0  0.05154811715471607 0 0  0.05476987447688695 0 0  0.05799163179905782 0 0  0.06121338912122846 0 0  0.06443514644339859 0 0  0.06765690376556875 0 0  0.0708786610877389 0 0  0.07410041840990904 0 0  0.0773221757320792 0 0  0.08054393305425039 0 0  0.08376569037642198 0 0  0.0869874476985936 0 0  0.09020920502076518 0 0  0.0934309623429339 0 0  0.0966527196651024 0 0  0.09987447698726967 0 0  0.1030962343094369 0 0  0.1063179916316041 0 0  0.1095397489537714 0 0  0.1127615062759386 0 0  0.1159832635981051 0 0  0.1192050209202709 0 0  0.1224267782424358 0 0  0.1256485355646001 0 0  0.1288702928867644 0 0  0.1320920502089288 0 0  0.1353138075310958 0 0  0.1385355648532632 0 0  0.1417573221754333 0 0  0.1449790794976035 0 0  0.1482008368197736 0 0  0.1514225941419428 0 0  0.1546443514641101 0 0  0.157866108786276 0 0  0.1610878661084403 0 0  0.1643096234306047 0 0  0.167531380752769 0 0  0.1707531380749333 0 0  0.1739748953970977 0 0  0.177196652719262 0 0  0.1804184100414264 0 0  0.1836401673635935 0 0  0.1868619246857611 0 0  0.1900836820079313 0 0  0.1933054393301014 0 0  0.1965271966522716 0 0  0.1997489539744406 0 0  0.2029707112966078 0 0  0.2061924686187736 0 0  0.209414225940938 0 0  0.2126359832631022 0 0  0.2158577405852666 0 0  0.219079497907431 0 0  0.2223012552295953 0 0  0.2255230125517597 0 0  0.2287447698739242 0 0  0.2319665271960914 0 0  0.2351882845182592 0 0  0.2384100418404293 0 0  0.2416317991625994 0 0  0.2448535564847696 0 0  0.2480753138069371 0 0  0.2512970711291014 0 0  0.2545188284512658 0 0  0.2577405857734302 0 0  0.2609623430955986 0 0  0.2641841004177688 0 0  0.2674058577399389 0 0  0.270627615062109 0 0  0.2738493723842792 0 0  0.2770711297064487 0 0  0.280292887028613 0 0  0.2835146443507774 0 0  0.2867364016729417 0 0  0.2899581589951061 0 0  0.2931799163172705 0 0  0.2964016736394348 0 0  0.2996234309615992 0 0  0.3028451882837672 0 0  0.3060669456059373 0 0  0.3092887029281075 0 0  0.3125104602502776 0 0  0.3157322175724478 0 0  0.3189539748946177 0 0  0.322175732216782 0 0  0.3253974895389464 0 0  0.3286192468611107 0 0  0.3318410041832751 0 0  0.3350627615054395 0 0  0.3382845188276038 0 0  0.3415062761497681 0 0  0.3447280334719325 0 0  0.3479497907940968 0 0  0.3511715481162612 0 0  0.3543933054384255 0 0  0.3576150627605947 0 0  0.3608368200827649 0 0  0.364058577404935 0 0  0.3672803347271051 0 0  0.3705020920492753 0 0  0.373723849371444 0 0  0.3769456066936084 0 0  0.3801673640157748 0 0  0.383389121337945 0 0  0.3866108786601209 0 0  0.3898326359823028 0 0  0.3930543933044846 0 0  0.3962761506266662 0 0  0.399497907948848 0 0  0.4027196652710298 0 0  0.4059414225932116 0 0  0.4091631799153934 0 0  0.4123849372375751 0 0  0.4156066945597569 0 0  0.4188284518819387 0 0  0.4220502092041222 0 0  0.4252719665263097 0 0  0.4284937238484974 0 0  0.4317154811706849 0 0  0.4349372384928725 0 0  0.4381589958150601 0 0  0.4413807531372476 0 0  0.4446025104594352 0 0  0.4478242677816181 0 0  0.4510460251037998 0 0  0.4542677824259815 0 0  0.4574895397481634 0 0  0.4607112970703451 0 0  0.4639330543925269 0 0  0.4671548117147087 0 0  0.4703765690368904 0 0  0.4735983263590722 0 0  0.4768200836812568 0 0  0.4800418410034444 0 0  0.483263598325632 0 0  0.4864853556478196 0 0  0.4897071129700028 0 0  0.4929288702921845 0 0  0.4961506276143663 0 0  0.4993723849365479 0 0  0.5025941422587239 0 0  0.5058158995809008 0 0  0.5090376569030826 0 0  0.5122594142252677 0 0  0.515481171547461 0 0  0.5187029288696494 0 0  0.5219246861918312 0 0  0.525146443514013 0 0  0.5283682008361947 0 0  0.5315899581583845 0 0  0.5348117154805778 0 0  0.5380334728027617 0 0  0.5412552301249435 0 0  0.5444769874471141 0 0  0.5476987447692853 0 0  0.550920502091467 0 0  0.5541422594136513 0 0  0.5573640167358447 0 0  0.560585774058034 0 0  0.5638075313802158 0 0  0.5670292887023975 0 0  0.5702510460245793 0 0  0.5734728033467682 0 0  0.5766945606689615 0 0  0.579916317991155 0 0  0.5831380753133483 0 0  0.5863598326355314 0 0  0.5895815899577131 0 0  0.5928033472798949 0 0  0.5960251046020785 0 0  0.5992468619242718 0 0  0.6024686192464619 0 0  0.6056903765686437 0 0  0.6089121338908206 0 0  0.6121338912129908 0 0  0.6153556485351673 0 0  0.618577405857349 0 0  0.6217991631795386 0 0  0.625020920501732 0 0  0.6282426778239159 0 0  0.6314644351460976 0 0  0.6346861924682795 0 0  0.6379079497904622 0 0  0.6411297071126555 0 0  0.6443514644348465 0 0  0.6475732217570283 0 0  0.650794979079206 0 0  0.6540167364013761 0 0  0.6572384937235518 0 0  0.6604602510457335 0 0  0.6636820083679225 0 0  0.6669037656901158 0 0  0.6701255230123004 0 0  0.6733472803344823 0 0  0.6765690376566641 0 0  0.6797907949788459 0 0  0.6830125523010393 0 0  0.686234309623231 0 0  0.6894560669454127 0 0  0.6926778242675914 0 0  0.6958995815897615 0 0  0.6991213389119363 0 0  0.7023430962341181 0 0  0.7055648535563062 0 0  0.7087866108784994 0 0  0.712008368200685 0 0  0.7152301255228668 0 0  0.7184518828450486 0 0  0.7216736401672305 0 0  0.724895397489423 0 0  0.7281171548116155 0 0  0.7313389121337973 0 0  0.7345606694559768 0 0  0.7377824267781468 0 0  0.7410041841003209 0 0  0.7442259414225026 0 0  0.7474476987446899 0 0  0.7506694560668832 0 0  0.7538912133890696 0 0  0.7571129707112513 0 0  0.760334728033433 0 0  0.7635564853556149 0 0  0.7667782426778067 0 0  0.77 0.001685393258423789 0  0.77 0.003370786516847669 0  0.77 0.005056179775271247 0  0.77 0.006741573033694517 0  0.77 0.008426966292117821 0  0.77 0.01011235955054176 0  0.77 0.01179775280896623 0  0.77 0.0134831460673904 0  0.77 0.01516853932581489 0  0.77 0.01685393258423891 0  0.77 0.01853932584266291 0  0.77 0.02022471910108589 0  0.77 0.02191011235950794 0  0.77 0.02359550561792999 0  0.77 0.02528089887635205 0  0.77 0.02696629213477411 0  0.77 0.02865168539319714 0  0.77 0.03033707865161956 0  0.77 0.03202247191004162 0  0.77 0.03370786516846367 0  0.77 0.03539325842688572 0  0.77 0.03707865168530778 0  0.77 0.03876404494372984 0  0.77 0.0404494382021519 0  0.77 0.04213483146057394 0  0.77 0.04382022471899601 0  0.77 0.04550561797741807 0  0.77 0.04719101123584013 0  0.77 0.04887640449426219 0  0.77 0.05056179775268425 0  0.77 0.0522471910111063 0  0.77 0.05393258426952837 0  0.77 0.05561797752795105 0  0.77 0.05730337078637505 0  0.77 0.05898876404479723 0  0.77 0.0606741573032193 0  0.77 0.06235955056164135 0  0.77 0.06404494382006341 0  0.77 0.06573033707848548 0  0.77 0.06741573033690752 0  0.77 0.06910112359532959 0  0.77 0.07078651685375165 0  0.77 0.0724719101121737 0  0.77 0.07415730337059653 0  0.77 0.07584269662902443 0  0.77 0.07752808988745429 0  0.77 0.07921348314588413 0  0.77 0.08089887640431678 0  0.77 0.08258426966274923 0  0.77 0.08426966292117907 0  0.77 0.08595505617960987 0  0.77 0.08764044943804362 0  0.77 0.08932584269647403 0  0.77 0.09101123595490389 0  0.77 0.09269662921333673 0  0.77 0.09438202247176901 0  0.77 0.09606741573019884 0  0.77 0.09775280898862983 0  0.77 0.09943820224706355 0  0.77 0.1011235955054938 0  0.77 0.1028089887639236 0  0.77 0.1044943820223567 0  0.77 0.1061797752807888 0  0.77 0.1078651685392186 0  0.77 0.1095505617976498 0  0.77 0.1112359550560835 0  0.77 0.1129213483145136 0  0.77 0.1146067415729456 0  0.77 0.1162921348313787 0  0.77 0.1179775280898085 0  0.77 0.1196629213482387 0  0.77 0.1213483146066724 0  0.77 0.1230337078651035 0  0.77 0.1247191011235322 0  0.77 0.1264044943819605 0  0.77 0.1280898876403903 0  0.77 0.1297752808988242 0  0.77 0.1314606741572554 0  0.77 0.1331460674156853 0  0.77 0.1348314606741154 0  0.77 0.1365168539325504 0  0.77 0.1382022471909802 0  0.77 0.13988764044941 0  0.77 0.1415730337078443 0  0.77 0.1432584269662752 0  0.77 0.144943820224705 0  0.77 0.1466292134831355 0  0.77 0.1483146067415701 0  0.7667782426778414 0.15 0  0.7635564853556813 0.15 0  0.7603347280335111 0.15 0  0.757112970711341 0.15 0  0.7538912133891708 0.15 0  0.7506694560670005 0.15 0  0.7474476987448303 0.15 0  0.7442259414226602 0.15 0  0.74100418410049 0.15 0  0.7377824267783197 0.15 0  0.7345606694561496 0.15 0  0.7313389121339794 0.15 0  0.7281171548118092 0.15 0  0.724895397489639 0.15 0  0.7216736401674688 0.15 0  0.7184518828452986 0.15 0  0.7152301255231284 0.15 0  0.7120083682009583 0.15 0  0.708786610878788 0.15 0  0.7055648535566178 0.15 0  0.7023430962344477 0.15 0  0.6991213389122775 0.15 0  0.6958995815901072 0.15 0  0.692677824267937 0.15 0  0.6894560669457669 0.15 0  0.6862343096235967 0.15 0  0.6830125523014264 0.15 0  0.6797907949792563 0.15 0  0.6765690376570861 0.15 0  0.6733472803349159 0.15 0  0.6701255230127456 0.15 0  0.6669037656905755 0.15 0  0.6636820083684053 0.15 0  0.6604602510462351 0.15 0  0.657238493724065 0.15 0  0.6540167364018947 0.15 0  0.6507949790797245 0.15 0  0.6475732217575543 0.15 0  0.644351464435384 0.15 0  0.6411297071132231 0.15 0  0.6379079497910645 0.15 0  0.634686192468906 0.15 0  0.6314644351467468 0.15 0  0.6282426778245765 0.15 0  0.6250209205024085 0.15 0  0.62179916318025 0.15 0  0.6185774058580914 0.15 0  0.6153556485359328 0.15 0  0.6121338912137689 0.15 0  0.6089121338915987 0.15 0  0.6056903765694354 0.15 0  0.6024686192472768 0.15 0  0.5992468619251182 0.15 0  0.5960251046029597 0.15 0  0.5928033472807912 0.15 0  0.589581589958621 0.15 0  0.5863598326364508 0.15 0  0.5831380753142792 0.15 0  0.5799163179920974 0.15 0  0.57669456
[...]
<PointData  Scalars="pressure"> 
<DataArray  type="Float64"  Name="pressure"  format="ascii">1.5900246540374708e+04  4.0549114089189997e-01  -3.0042993709128657e-01  1.5885858530171698e+04  1.5761637055806446e+04  1.5652905431917949e+04  1.5545145483517948e+04  1.5437710001409110e+04  1.5330642581680202e+04  1.5223808781475127e+04  1.5117131626266988e+04  1.5010566923626036e+04  1.4904086168682097e+04  1.4797669911248526e+04  1.4691304332374324e+04  1.4584979284179210e+04  1.4478687112718397e+04  1.4372421917475378e+04  1.4266179066551695e+04  1.4159954868436937e+04  1.4053746343312963e+04  1.3947551059689591e+04  1.3841367015136857e+04  1.3735192547520359e+04  1.3629026267801328e+04  1.3522867008382056e+04  1.3416713782855801e+04  1.3310565754257092e+04  1.3204422209740433e+04  1.3098282540185051e+04  1.2992146223620341e+04  1.2886012811648108e+04  1.2779881918239638e+04  1.2673753210431802e+04  1.2567626400556401e+04  1.2461501239715484e+04  1.2355377512278097e+04  1.2249255031218983e+04  1.2143133634156080e+04  1.2037013179970800e+04  1.1930893545917123e+04  1.1824774625142169e+04  1.1718656324554799e+04  1.1612538562989545e+04  1.1506421269621893e+04  1.1400304382598106e+04  1.1294187847848938e+04  1.1188071618060345e+04  1.1081955651780007e+04  1.0975839912639703e+04  1.0869724368678235e+04  1.0763608991750552e+04  1.0657493757011314e+04  1.0551378642462769e+04  1.0445263628557686e+04  1.0339148697850169e+04  1.0233033834686985e+04  1.0126919024934068e+04  1.0020804255732699e+04  9.9146895152809284e+03  9.8085747926360746e+03  9.7024600775350973e+03  9.5963453602285826e+03  9.4902306313265490e+03  9.3841158816521529e+03  9.2780011021014579e+03  9.1718862835063446e+03  9.0657714164982008e+03  8.9596564913699694e+03  8.8535414979340185e+03  8.7474264253732399e+03  8.6413112620826778e+03  8.5351959954985741e+03  8.4290806119117697e+03  8.3229650962617688e+03  8.2168494319072834e+03  8.1107336003691053e+03  8.0046175810390459e+03  7.8985013508498769e+03  7.7923848838979893e+03  7.6862681510111261e+03  7.5801511192503231e+03  7.4740337513344875e+03  7.3679160049733346e+03  7.2617978320903530e+03  7.1556791779157193e+03  7.0495599799219272e+03  6.9434401665708856e+03  6.8373196558326708e+03  6.7311983534261935e+03  6.6250761507192983e+03  6.5189529222084784e+03  6.4128285224780311e+03  6.3067027825060113e+03  6.2005755051469077e+03  6.0944464595657046e+03  5.9883153743240709e+03  5.8821819287154030e+03  5.7760457418004462e+03  5.6699063583850902e+03  5.5637632308807079e+03  5.4576156955402248e+03  5.3514629408913124e+03  5.2453039651564040e+03  5.1391375178414119e+03  5.0329620181296887e+03  4.9267754383514621e+03  4.8205751327385215e+03  4.7143575793858527e+03  4.6081179916120072e+03  4.5018497094837194e+03  4.3955430061335337e+03  4.2891825462792922e+03  4.1827445985069726e+03  4.0762011828766194e+03  3.9695032235606509e+03  3.8623769239785861e+03  3.7539128611849628e+03  3.6397287822782250e+03  2.5754991424198965e+03  2.5055325827139618e+03  2.4359103660612777e+03  2.3831261285333458e+03  2.3667241942854735e+03  2.3462921962924938e+03  2.3261666312154634e+03  2.3061514550907359e+03  2.2861787910644703e+03  2.2662322443764074e+03  2.2463027991733420e+03  2.2263850813367299e+03  2.2064757750958379e+03  2.1865727111776141e+03  2.1666744040897847e+03  2.1467798001593060e+03  2.1268881302357845e+03  2.1069988192435253e+03  2.0871114283974616e+03  2.0672256170329347e+03  2.0473411166623316e+03  2.0274577129009947e+03  2.0075752325994283e+03  1.9876935345041447e+03  1.9678125023616292e+03  1.9479320397467768e+03  1.9280520661293413e+03  1.9081725138433667e+03  1.8882933257246707e+03  1.8684144532491450e+03  1.8485358550510593e+03  1.8286574957330085e+03  1.8087793449020287e+03  1.7889013763829232e+03  1.7690235675716028e+03  1.7491458989000457e+03  1.7292683533910879e+03  1.7093909162858038e+03  1.6895135747302857e+03  1.6696363175110539e+03  1.6497591348306969e+03  1.6298820181167823e+03  1.6100049598588482e+03  1.5901279534687342e+03  1.5702509931605362e+03  1.5503740738474701e+03  1.5304971910525883e+03  1.5106203408317581e+03  1.4907435197070413e+03  1.4708667246087412e+03  1.4509899528252604e+03  1.4311132019593585e+03  1.4112364698899039e+03  1.3913597547389063e+03  1.3714830548423381e+03  1.3516063687249700e+03  1.3317296950783768e+03  1.3118530327413971e+03  1.2919763806834260e+03  1.2720997379894177e+03  1.2522231038468935e+03  1.2323464775346868e+03  1.2124698584128757e+03  1.1925932459141447e+03  1.1727166395360737e+03  1.1528400388343778e+03  1.1329634434171076e+03  1.1130868529393126e+03  1.0932102670986947e+03  1.0733336856316125e+03  1.0534571083096087e+03  1.0335805349365821e+03  1.0137039653460201e+03  9.9382739939874989e+02  9.7395083698110670e+02  9.5407427800317760e+02  9.3419772239760846e+02  9.1432117011836533e+02  8.9444462113989493e+02  8.7456807545643915e+02  8.5469153308136424e+02  8.3481499404701788e+02  8.1493845840460267e+02  7.9506192622421361e+02  7.7518539759533473e+02  7.5530887262719853e+02  7.3543235144952314e+02  7.1555583421369488e+02  6.9567932109398714e+02  6.7580281228948365e+02  6.5592630802618703e+02  6.3604980855976953e+02  6.1617331417897992e+02  5.9629682520963775e+02  5.7642034201993170e+02  5.5654386502682860e+02  5.3666739470397567e+02  5.1679093159191893e+02  4.9691447631049544e+02  4.7703802957469838e+02  4.5716159221513726e+02  4.3728516520393759e+02  4.1740874968871827e+02  3.9753234703678947e+02  3.7765595889366654e+02  3.5777958726151536e+02  3.3790323460538360e+02  3.1802690399996061e+02  2.9815059933530171e+02  2.7827432561096902e+02  2.5839808936664480e+02  2.3852189932817578e+02  2.1864576740711064e+02  1.9876971030299333e+02  1.7889375218124434e+02  1.5901792939032862e+02  1.3914229931151962e+02  1.1926695791203572e+02  9.9392079034040108e+01  7.9518056196056662e+01  5.9645949556973250e+01  3.9775658529458447e+01  1.9905396688201925e+01  8.4075686474955863e-02  4.3198874001576203e-03  9.2468889552379857e-04  5.6852801436541424e-04  3.2495077676622503e-04  1.9100724810481467e-04  1.1944424160526427e-04  7.8885098845416079e-05  5.4502350938589977e-05  3.9093913151021235e-05  2.8934243331988413e-05  2.1988154888440093e-05  1.7089663705286499e-05  1.3541959843509447e-05  1.0912773881588305e-05  8.9249548359287681e-06  7.3955504917686003e-06  6.2006302795019126e-06  5.2542932173707413e-06  4.4957638508368391e-06  3.8812449567661449e-06  3.3786477431825684e-06  2.9641076907634836e-06  2.6196348270076929e-06  2.3314999419976017e-06  2.0891078178233718e-06  1.8841984506676286e-06  1.7102728619071872e-06  1.5621749901305877e-06  1.4357837019182330e-06  1.3277833808475154e-06  1.2354914022076758e-06  1.1567271642226940e-06  1.0897118947758223e-06  1.0329914290074167e-06  9.8537632486004740e-07  9.4589524701009116e-07  9.1375849599981677e-07  8.8832952123233348e-07  8.6910267320053010e-07  8.5568598524102619e-07  8.4778800139234127e-07  8.4520799996995964e-07  8.4782907736649345e-07  8.5561373147619859e-07  8.6860176440917110e-07  8.8691027176508528e-07  9.1073581848803289e-07  9.4035876411225754e-07  9.7614993308746402e-07  1.0185799022543395e-06  1.0682312722042139e-06  1.1258144444585540e-06  1.1921876251704272e-06  1.2683819320586023e-06  1.3556328738163004e-06  1.4554196879658509e-06  1.5695146637006698e-06  1.7000450817705291e-06  1.8495713217199832e-06  2.0211858057871171e-06  2.2186390040482583e-06  2.4465007592625151e-06  2.7103681412261204e-06  3.0171349320613637e-06  3.3753433140829680e-06  3.7956458050716774e-06  4.2914162019430796e-06  4.8795625304817856e-06  5.5816153247859442e-06  6.4251915836488878e-06  7.4459707712610127e-06  8.6903638126629213e-06  1.0219104866633838e-05  1.2112030424415029e-05  1.4474279625535004e-05  1.7443919908809567e-05  2.1200251886194557e-05  2.5970094278293404e-05  3.2025433993398855e-05  3.9664308441711223e-05  4.9213959116762721e-05  6.1710293788472584e-05  9.1608369111548449e-05  3.6482795972363571e-04  3.3469967237975268e-03  2.3683371981849558e-02  1.3918324749714883e-02  1.9712061884727973e+01  3.9716787753236574e+01  5.9604588034162390e+01  7.9486581206742159e+01  9.9367105780466304e+01  1.1924632765937791e+02  1.3912478468734440e+02  1.5900276994917979e+02  1.7888044057595644e+02  1.9875789062941973e+02  2.1863518001218341e+02  2.3851234862439131e+02  2.5838942405882108e+02  2.7826642600400493e+02  2.9814336888461258e+02  3.1802026351072163e+02  3.3789711814426721e+02  3.5777393920944343e+02  3.7765073177833619e+02  3.9752749991050746e+02  4.1740424689526992e+02  4.3728097542763749e+02  4.5715768773814972e+02  4.7703438569005607e+02  4.9691107085300308e+02  5.1678774455957000e+02  5.3666440794910466e+02  5.5654106200205979e+02  5.7641770756712526e+02  5.9629434538284897e+02  6.1617097609500922e+02  6.3604760027067118e+02  6.5592421840964721e+02  6.7580083095389773e+02  6.9567743829530104e+02  7.1555404078211814e+02  7.3543063872439882e+02  7.5530723239854376e+02  7.7518382205118007e+02  7.9506040790241661e+02  8.1493699014886226e+02  8.3481356896598811e+02  8.5469014451034707e+02  8.7456671692159341e+02  8.9444328632405438e+02  9.1431985282853259e+02  9.3419641653389715e+02  9.5407297752837326e+02  9.7394953589104364e+02  9.9382609169319721e+02  1.0137026449997010e+03  1.0335791958706589e+03  1.0534557443629117e+03  1.0733322905316818e+03  1.0932088344325036e+03  1.1130853761231028e+03  1.1329619156658191e+03  1.1528384531301615e+03  1.1727149885957479e+03  1.1925915221554601e+03  1.2124680539194160e+03  1.2323445840192383e+03  1.2522211126130899e+03  1.2720976398914872e+03  1.2919741660838333e+03  1.3118506914660675e+03  1.3317272163696168e+03  1.3516037411915347e+03  1.3714802664062547e+03  1.3913567925792906e+03  1.4112333203827711e+03  1.4311098506137421e+03  1.4509863842153225e+03  1.4708629223008122e+03  1.4907394661818862e+03  1.5106160174011243e+03  1.5304925777695814e+03  1.5503691494106406e+03  1.5702457348106636e+03  1.5901223368776230e+03  1.6099989590095493e+03  1.6298756051739865e+03  1.6497522800007041e+03  1.6696289888901442e+03  1.6895057381399654e+03  1.7093825350937041e+03  1.7292593883156217e+03  1.7491363077971162e+03  1.7690133052009639e+03  1.7888903941518233e+03  1.8087675905830995e+03  1.8286449131531908e+03  1.8485223837477490e+03  1.8684000280894115e+03  1.8882778764828915e+03  1.9081559647323177e+03  1.9280343352796913e+03  1.9479130386301440e+03  1.9677921351535226e+03  1.9876716973854568e+03  2.0075518130001342e+03  2.0274325886982260e+03  2.0473141553611858e+03  2.0671966749856360e+03  2.0870803501648707e+03  2.1069654372863288e+03  2.1268522652681359e+03  2.1467412627522217e+03  2.1666329985592597e+03  2.1865282435790464e+03  2.2064280685138556e+03  2.2263340039730697e+03  2.2462483137130293e+03  2.2661744819014571e+03  2.2861181366964147e+03  2.3060890063641600e+03  2.3261040215209600e+03  2.3461779348654595e+03  2.3663691528854333e+03  2.3888158231349416e+03  2.4243709114743438e+03  2.5001790333411009e+03  3.5371069156730955e+03  3.6496003985289858e+03  3.7571919577073909e+03  3.8641033929691184e+03  3.9706965294384172e+03  4.0771622691553453e+03  4.1835381043825219e+03  4.2898494475824891e+03  4.3961160297851120e+03  4.5023505201907619e+03  4.6085610514912923e+03  4.7147532306647308e+03  4.8209311016446100e+03  4.9270976461039209e+03  5.0332551063198316e+03  5.1394052013031423e+03  5.2455492709298396e+03  5.3516883742596765e+03  5.4578233585521875e+03  5.5639549087761716e+03  5.6700835837624018e+03  5.7762098430427468e+03  5.8823340670820826e+03  5.9884565727429899e+03  6.0945776252575870e+03  6.2006974476042024e+03  6.3068162279302478e+03  6.4129341254869014e+03  6.5190512754170231e+03  6.6251677926496213e+03  6.7312837750922818e+03  6.8373993062652826e+03  6.9435144574893575e+03  7.0496292897126923e+03  7.1557438550452762e+03  7.2618581980519402e+03  7.3679723568476375e+03  7.4740863640289490e+03  7.5802002474675264e+03  7.6863140309905903e+03  7.7924277349640643e+03  7.8985413767939699e+03  8.0046549713600925e+03  8.1107685313902766e+03  8.2168820677860313e+03  8.3229955899072193e+03  8.4291091058189977e+03  8.5352226225111972e+03  8.6413361460906035e+03  8.7474496819522756e+03  8.8535632349351308e+03  8.9596768094611198e+03  9.0657904096653838e+03  9.1719040395168322e+03  9.2780177029320676e+03  9.3841314038866985e+03  9.4902451465241520e+03  9.5963589352659419e+03  9.7024727749249960e+03  9.8085866708233189e+03  9.9147006289187029e+03  1.0020814655939588e+04  1.0126928759533686e+04  1.0233042948432058e+04  1.0339157232630863e+04  1.0445271623597211e+04  1.0551386134500317e+04  1.0657500780472885e+04  1.0763615578909590e+04  1.0869730549805437e+04  1.0975845716144126e+04  1.1081961104341457e+04  1.1188076744753935e+04  1.1294192672263463e+04  1.1400308926947333e+04  1.1506425554849975e+04  1.1612542608871981e+04  1.1718660149793614e+04  1.1824778247458544e+04  1.1930896982141143e+04  1.2037016446128302e+04  1.2143136745555041e+04  1.2249258002534600e+04  1.2355380357639086e+04  1.2461503972792525e+04  1.2567629034654112e+04  1.2673755758587622e+04  1.2779884393330374e+04  1.2886015226508172e+04  1.2992148591175986e+04  1.3098284873608822e+04  1.3204424522634316e+04  1.3310568060873627e+04  1.3416716098368399e+04  1.3522869349223785e+04  1.3629028652094421e+04  1.3735194995631848e+04  1.3841369550408888e+04  1.3947553709415890e+04  1.4053749140069373e+04  1.4159957851927440e+04  1.4266182286224661e+04  1.4372425436318663e+04  1.4478691012906678e+04  1.4584983675731515e+04  1.4691309366880678e+04  1.4797675804504081e+04  1.4904093239759652e+04  1.5010575665920158e+04  1.5117142846510553e+04  1.5223823909412455e+04  1.5330664301608065e+04  1.5437742324355038e+04  1.5545202632708457e+04  1.5653184356711983e+04  1.5762417965190512e+04  1.5873509300230051e+04  1.5868539569583592e+04  1.5866056379631584e+04  1.5864401515758083e+04  1.5863125083641035e+04  1.5862081704279941e+04  1.5861202185833998e+04  1.5860444621634815e+04  1.5859781243052194e+04  1.5859192808695199e+04  1.5858665506691605e+04  1.5858189112961296e+04  1.5857755857458915e+04  1.5857359702057336e+04  1.5856995864776300e+04  1.5856660496488792e+04  1.5856350455199594e+04  1.5856063144670998e+04  1.5855796396628552e+04  1.5855548383183763e+04  1.5855317550649941e+04  1.5855102568790096e+04  1.5854902291385231e+04  1.5854715725234260e+04  1.5854542005521800e+04  1.5854380376056264e+04  1.5854230173276850e+04  1.5854090813208664e+04  1.5853961780747391e+04  1.5853842620802105e+04  1.5853732930933769e+04  1.5853632355207848e+04  1.5853540579040764e+04  1.5853457324866717e+04  1.5853382348486977e+04  1.5853315435991977e+04  1.5853256401168101e+04  1.5853205083318628e+04  1.5853161345441831e+04  1.5853125072720755e+04  1.5853096171288002e+04  1.5853074567236676e+04  1.5853060205854890e+04  1.5853053051066843e+04  1.5853053085068137e+04  1.5853060308147469e+04  1.5853074738691070e+04  1.5853096413369762e+04  1.5853125387512822e+04  1.5853161735676880e+04  1.5853205552422245e+04  1.5853256953314176e+04  1.5853316076172036e+04  1.5853383082595818e+04  1.5853458159807160e+04  1.5853541522851336e+04  1.5853633417218040e+04  1.5853734121953012e+04  1.5853843953350135e+04  1.5853963269336087e+04  1.5854092474688181e+04  1.5854232027263031e+04  1.5854382445461641e+04  1.5854544317219646e+04  1.5854718310895334e+04  1.5854905188541052e+04  1.5855105822196314e+04  1.5855321214051948e+04  1.5855552521628360e+04  1.5855801089526314e+04  1.5856068489906240e+04  1.5856356574724927e+04  1.5856667544059614e+04  1.5857004036828073e+04  1.5857369253293104e+04  1.5857767123655767e+04  1.5858202545118198e+04  1.5858681723502637e+04  1.5859212679654505e+04  1.5859806024961264e+04  1.5860476191968221e+04  1.5861243445861583e+04  1.5862137164956956e+04  1.5863200825427566e+04  1.5864499628564054e+04  1.5866152159933377e+04  1.5868611635957168e+04  1.5874690208397087e+04  1.5763670938864170e+04  1.5761715071234328e+04  1.5759847486471768e+04  1.5758377682704167e+04  1.5757193836714740e+04  1.5756207076171828e+04  1.5755364130316948e+04  1.5754631096579242e+04  1.5753984814020016e+04  1.5753408723270526e+04  1.5752890608496016e+04  1.5752421229985284e+04  1.5751993448191257e+04  1.5751601642969894e+04  1.5751241317906904e+04  1.5750908824160548e+04  1.5750601163475676e+04  1.5750315844886052e+04  1.5750050778612687e+04  1.5749804196240086e+04  1.5749574589789845e+04  1.5749360664606173e+04  1.5749161302487171e+04  1.5748975532520792e+04  1.5748802507787585e+04  1.5748641486582970e+04  1.5748491817158860e+04  1.5748352925233445e+04  1.5748224303698993e+04  1.5748105504090585e+04  1.5747996129477700e+04  1.5747895828514900e+04  1.5747804290444303e+04  1.5747721240885870e+04  1.5747646438284981e+04  1.5747579670912670e+04  1.5747520754334786e+04  1.5747469529282393e+04  1.5747425859868910e+04  1.5747389632110153e+04  1.5747360752712100e+04  1.5747339148098401e+04  1.5747324763655826e+04  1.5747317563181126e+04  1.5747317528517173e+04  1.5747324659370890e+04  1.5747338973308833e+04  1.5747360505930392e+04  1.5747389311222341e+04  1.5747425462101983e+04  1.5747469051160802e+04  1.5747520191624692e+04  1.5747579018552160e+04  1.5747645690298074e+04  1.5747720390277331e+04  1.5747803329071701e+04  1.5747894746933243e+04  1.5747994916750655e+04  1.5748104147560833e+04  1.5748222788708019e+04  1.5748351234778183e+04  1.5748489931469072e+04  1.5748639382598049e+04  1.5748800158504739e+04  1.5748972906177356e+04  1.5749158361526823e+04  1.5749357364360976e+04  1.5749570876784519e+04  1.5749800005988503e+04  1.5750046032723532e+04  1.5750310447216272e+04  1.5750594994953024e+04  1.5750901735717336e+04  1.5751233120688474e+04  1.5751592094538666e+04  1.5751982232727727e+04  1.5752407929286594e+04  1.5752874658517119e+04  1.5753389347379129e+04  1.5753960918061994e+04  1.5754601101383087e+04  1.5755325701472413e+04  1.5756156634511484e+04  1.5757125068849457e+04  1.5758273694441483e+04  1.5759639111793284e+04  1.5761121758296840e+04  1.5762024261812867e+04  1.5653111234101651e+04  1.5652796564078832e+04  1.5652107363263769e+04  1.5651306345893297e+04  1.5650515166181676e+04  1.5649775091270963e+04  1.5649095954942619e+04  1.5648476426975412e+04  1.5647911553683178e+04  1.5647395573896096e+04  1.5646922962167648e+04  1.5646488775335270e+04  1.5646088720680049e+04  1.5645719117379258e+04  1.5645376823169734e+04  1.5645059155831956e+04  1.5644763820846285e+04  1.5644488848737341e+04  1.5644232542373207e+04  1.5643993433258529e+04  1.5643770245510048e+04  1.5643561866216089e+04  1.5643367321028616e+04  1.5643185754017213e+04  1.5643016410987675e+04  1.5642858625618845e+04  1.5642711807897427e+04  1.5642575434432858e+04  1.5642449040316640e+04  1.5642332212256279e+04  1.5642224582766410e+04  1.5642125825241323e+04  1.5642035649766338e+04  1.5641953799552290e+04  1.5641880047898558e+04  1.5641814195607625e+04  1.5641756068787849e+04  1.5641705516992895e+04  1.5641662411655521e+04  1.5641626644781152e+04  1.5641598127873402e+04  1.5641576791069143e+04  1.5641562582465398e+04  1.5641555467624677e+04  1.5641555429248881e+04  1.5641562467015452e+04  1.5641576597572539e+04  1.5641597854693000e+04  1.5641626289590260e+04  1.5641661971402016e+04  1.5641704987851312e+04  1.5641755446098057e+04  1.5641813473798178e+04  1.5641879220392275e+04  1.5641952858651075e+04  1.5642034586511303e+04  1.5642124629243244e+04  1.5642223242000393e+04  1.5642330712812613e+04  1.5642447366097835e+04  1.5642573566783931e+04  1.5642709725152747e+04  1.5642856302544045e+04  1.5643013818088246e+04  1.5643182856676694e+04  1.5643364078426917e+04  1.5643558229961498e+04  1.5643766157894936e+04  1.5643988825015307e+04  1.5644227329758953e+04  1.5644482929705517e+04  1.5644757069959745e+04  1.5645051417413224e+04  1.5645367901938267e+04  1.5645708765430312e+04  1.5646076619003446e+04  1.5646474506934814e+04  1.5646905971769220e+04  1.5647375105208155e+04  1.5647886546690273e+04  1.5648445338055386e+04  1.5649056414070237e+04  1.5649723203748954e+04  1.5650444189559592e+04  1.5651205625845349e+04  1.56519712