<?xml version="1.0"?>
<VTKFile type="UnstructuredGrid"  version="0.1"  >
<UnstructuredGrid>
<Piece  NumberOfPoints="21600" NumberOfCells="42542">
<Points>
<DataArray  type="Float64"  NumberOfComponents="3"  format="ascii">0 0 0  0.77 0 0  0.77 0.15 0  0 0.15 0  0.003221757322170014 0 0  0.006443514644340046 0 0  0.009665271966510193 0 0  0.01288702928868034 0 0  0.01610878661085048 0 0  0.01933054393302049 0 0  0.02255230125519027 0 0  0.02577405857735967 0 0  0.02899581589952872 0 0  0.03221757322169801 0 0  0.03543933054386744 0 0  0.03866108786603686 0 0  0.04188284518820627 0 0  0.0451046025103757 0 0  0.04832635983254521 0 0  0.05154811715471607 0 0  0.05476987447688695 0 0  0.05799163179905782 0 0  0.06121338912122846 0 0  0.06443514644339859 0 0  0.06765690376556875 0 0  0.0708786610877389 0 0  0.07410041840990904 0 0  0.0773221757320792 0 0  0.08054393305425039 0 0  0.08376569037642198 0 0  0.0869874476985936 0 0  0.09020920502076518 0 0  0.0934309623429339 0 0  0.0966527196651024 0 0  0.09987447698726967 0 0  0.1030962343094369 0 0  0.1063179916316041 0 0  0.1095397489537714 0 0  0.1127615062759386 0 0  0.1159832635981051 0 0  0.1192050209202709 0 0  0.1224267782424358 0 0  0.1256485355646001 0 0  0.1288702928867644 0 0  0.1320920502089288 0 0  0.1353138075310958 0 0  0.1385355648532632 0 0  0.1417573221754333 0 0  0.1449790794976035 0 0  0.1482008368197736 0 0  0.1514225941419428 0 0  0.1546443514641101 0 0  0.157866108786276 0 0  0.1610878661084403 0 0  0.1643096234306047 0 0  0.167531380752769 0 0  0.1707531380749333 0 0  0.1739748953970977 0 0  0.177196652719262 0 0  0.1804184100414264 0 0  0.1836401673635935 0 0  0.1868619246857611 0 0  0.1900836820079313 0 0  0.1933054393301014 0 0  0.1965271966522716 0 0  0.1997489539744406 0 0  0.2029707112966078 0 0  0.2061924686187736 0 0  0.209414225940938 0 0  0.2126359832631022 0 0  0.2158577405852666 0 0  0.219079497907431 0 0  0.2223012552295953 0 0  0.2255230125517597 0 0  0.2287447698739242 0 0  0.2319665271960914 0 0  0.2351882845182592 0 0  0.2384100418404293 0 0  0.2416317991625994 0 0  0.2448535564847696 0 0  0.2480753138069371 0 0  0.2512970711291014 0 0  0.2545188284512658 0 0  0.2577405857734302 0 0  0.2609623430955986 0 0  0.2641841004177688 0 0  0.2674058577399389 0 0  0.270627615062109 0 0  0.2738493723842792 0 0  0.2770711297064487 0 0  0.280292887028613 0 0  0.2835146443507774 0 0  0.2867364016729417 0 0  0.2899581589951061 0 0  0.2931799163172705 0 0  0.2964016736394348 0 0  0.2996234309615992 0 0  0.3028451882837672 0 0  0.3060669456059373 0 0  0.3092887029281075 0 0  0.3125104602502776 0 0  0.3157322175724478 0 0  0.3189539748946177 0 0  0.322175732216782 0 0  0.3253974895389464 0 0  0.3286192468611107 0 0  0.3318410041832751 0 0  0.3350627615054395 0 0  0.3382845188276038 0 0  0.3415062761497681 0 0  0.3447280334719325 0 0  0.3479497907940968 0 0  0.3511715481162612 0 0  0.3543933054384255 0 0  0.3576150627605947 0 0  0.3608368200827649 0 0  0.364058577404935 0 0  0.3672803347271051 0 0  0.3705020920492753 0 0  0.373723849371444 0 0  0.3769456066936084 0 0  0.3801673640157748 0 0  0.383389121337945 0 0  0.3866108786601209 0 0  0.3898326359823028 0 0  0.3930543933044846 0 0  0.3962761506266662 0 0  0.399497907948848 0 0  0.4027196652710298 0 0  0.4059414225932116 0 0  0.4091631799153934 0 0  0.4123849372375751 0 0  0.4156066945597569 0 0  0.4188284518819387 0 0  0.4220502092041222 0 0  0.4252719665263097 0 0  0.4284937238484974 0 0  0.4317154811706849 0 0  0.4349372384928725 0 0  0.4381589958150601 0 0  0.4413807531372476 0 0  0.4446025104594352 0 0  0.4478242677816181 0 0  0.4510460251037998 0 0  0.4542677824259815 0 0  0.4574895397481634 0 0  0.4607112970703451 0 0  0.4639330543925269 0 0  0.4671548117147087 0 0  0.4703765690368904 0 0  0.4735983263590722 0 0  0.4768200836812568 0 0  0.4800418410034444 0 0  0.483263598325632 0 0  0.4864853556478196 0 0  0.4897071129700028 0 0  0.4929288702921845 0 0  0.4961506276143663 0 0  0.4993723849365479 0 0  0.5025941422587239 0 0  0.5058158995809008 0 0  0.5090376569030826 0 0  0.5122594142252677 0 0  0.515481171547461 0 0  0.5187029288696494 0 0  0.5219246861918312 0 0  0.525146443514013 0 0  0.5283682008361947 0 0  0.5315899581583845 0 0  0.5348117154805778 0 0  0.5380334728027617 0 0  0.5412552301249435 0 0  0.5444769874471141 0 0  0.5476987447692853 0 0  0.550920502091467 0 0  0.5541422594136513 0 0  0.5573640167358447 0 0  0.560585774058034 0 0  0.5638075313802158 0 0  0.5670292887023975 0 0  0.5702510460245793 0 0  0.5734728033467682 0 0  0.5766945606689615 0 0  0.579916317991155 0 0  0.5831380753133483 0 0  0.5863598326355314 0 0  0.5895815899577131 0 0  0.5928033472798949 0 0  0.5960251046020785 0 0  0.5992468619242718 0 0  0.6024686192464619 0 0  0.6056903765686437 0 0  0.6089121338908206 0 0  0.6121338912129908 0 0  0.6153556485351673 0 0  0.618577405857349 0 0  0.6217991631795386 0 0  0.625020920501732 0 0  0.6282426778239159 0 0  0.6314644351460976 0 0  0.6346861924682795 0 0  0.6379079497904622 0 0  0.6411297071126555 0 0  0.6443514644348465 0 0  0.6475732217570283 0 0  0.650794979079206 0 0  0.6540167364013761 0 0  0.6572384937235518 0 0  0.6604602510457335 0 0  0.6636820083679225 0 0  0.6669037656901158 0 0  0.6701255230123004 0 0  0.6733472803344823 0 0  0.6765690376566641 0 0  0.6797907949788459 0 0  0.6830125523010393 0 0  0.686234309623231 0 0  0.6894560669454127 0 0  0.6926778242675914 0 0  0.6958995815897615 0 0  0.6991213389119363 0 0  0.7023430962341181 0 0  0.7055648535563062 0 0  0.7087866108784994 0 0  0.712008368200685 0 0  0.7152301255228668 0 0  0.7184518828450486 0 0  0.7216736401672305 0 0  0.724895397489423 0 0  0.7281171548116155 0 0  0.7313389121337973 0 0  0.7345606694559768 0 0  0.7377824267781468 0 0  0.7410041841003209 0 0  0.7442259414225026 0 0  0.7474476987446899 0 0  0.7506694560668832 0 0  0.7538912133890696 0 0  0.7571129707112513 0 0  0.760334728033433 0 0  0.7635564853556149 0 0  0.7667782426778067 0 0  0.77 0.001685393258423789 0  0.77 0.003370786516847669 0  0.77 0.005056179775271247 0  0.77 0.006741573033694517 0  0.77 0.008426966292117821 0  0.77 0.01011235955054176 0  0.77 0.01179775280896623 0  0.77 0.0134831460673904 0  0.77 0.01516853932581489 0  0.77 0.01685393258423891 0  0.77 0.01853932584266291 0  0.77 0.02022471910108589 0  0.77 0.02191011235950794 0  0.77 0.02359550561792999 0  0.77 0.02528089887635205 0  0.77 0.02696629213477411 0  0.77 0.02865168539319714 0  0.77 0.03033707865161956 0  0.77 0.03202247191004162 0  0.77 0.03370786516846367 0  0.77 0.03539325842688572 0  0.77 0.03707865168530778 0  0.77 0.03876404494372984 0  0.77 0.0404494382021519 0  0.77 0.04213483146057394 0  0.77 0.04382022471899601 0  0.77 0.04550561797741807 0  0.77 0.04719101123584013 0  0.77 0.04887640449426219 0  0.77 0.05056179775268425 0  0.77 0.0522471910111063 0  0.77 0.05393258426952837 0  0.77 0.05561797752795105 0  0.77 0.05730337078637505 0  0.77 0.05898876404479723 0  0.77 0.0606741573032193 0  0.77 0.06235955056164135 0  0.77 0.06404494382006341 0  0.77 0.06573033707848548 0  0.77 0.06741573033690752 0  0.77 0.06910112359532959 0  0.77 0.07078651685375165 0  0.77 0.0724719101121737 0  0.77 0.07415730337059653 0  0.77 0.07584269662902443 0  0.77 0.07752808988745429 0  0.77 0.07921348314588413 0  0.77 0.08089887640431678 0  0.77 0.08258426966274923 0  0.77 0.08426966292117907 0  0.77 0.08595505617960987 0  0.77 0.08764044943804362 0  0.77 0.08932584269647403 0  0.77 0.09101123595490389 0  0.77 0.09269662921333673 0  0.77 0.09438202247176901 0  0.77 0.09606741573019884 0  0.77 0.09775280898862983 0  0.77 0.09943820224706355 0  0.77 0.1011235955054938 0  0.77 0.1028089887639236 0  0.77 0.1044943820223567 0  0.77 0.1061797752807888 0  0.77 0.1078651685392186 0  0.77 0.1095505617976498 0  0.77 0.1112359550560835 0  0.77 0.1129213483145136 0  0.77 0.1146067415729456 0  0.77 0.1162921348313787 0  0.77 0.1179775280898085 0  0.77 0.1196629213482387 0  0.77 0.1213483146066724 0  0.77 0.1230337078651035 0  0.77 0.1247191011235322 0  0.77 0.1264044943819605 0  0.77 0.1280898876403903 0  0.77 0.1297752808988242 0  0.77 0.1314606741572554 0  0.77 0.1331460674156853 0  0.77 0.1348314606741154 0  0.77 0.1365168539325504 0  0.77 0.1382022471909802 0  0.77 0.13988764044941 0  0.77 0.1415730337078443 0  0.77 0.1432584269662752 0  0.77 0.144943820224705 0  0.77 0.1466292134831355 0  0.77 0.1483146067415701 0  0.7667782426778414 0.15 0  0.7635564853556813 0.15 0  0.7603347280335111 0.15 0  0.757112970711341 0.15 0  0.7538912133891708 0.15 0  0.7506694560670005 0.15 0  0.7474476987448303 0.15 0  0.7442259414226602 0.15 0  0.74100418410049 0.15 0  0.7377824267783197 0.15 0  0.7345606694561496 0.15 0  0.7313389121339794 0.15 0  0.7281171548118092 0.15 0  0.724895397489639 0.15 0  0.7216736401674688 0.15 0  0.7184518828452986 0.15 0  0.7152301255231284 0.15 0  0.7120083682009583 0.15 0  0.708786610878788 0.15 0  0.7055648535566178 0.15 0  0.7023430962344477 0.15 0  0.6991213389122775 0.15 0  0.6958995815901072 0.15 0  0.692677824267937 0.15 0  0.6894560669457669 0.15 0  0.6862343096235967 0.15 0  0.6830125523014264 0.15 0  0.6797907949792563 0.15 0  0.6765690376570861 0.15 0  0.6733472803349159 0.15 0  0.6701255230127456 0.15 0  0.6669037656905755 0.15 0  0.6636820083684053 0.15 0  0.6604602510462351 0.15 0  0.657238493724065 0.15 0  0.6540167364018947 0.15 0  0.6507949790797245 0.15 0  0.6475732217575543 0.15 0  0.644351464435384 0.15 0  0.6411297071132231 0.15 0  0.6379079497910645 0.15 0  0.634686192468906 0.15 0  0.6314644351467468 0.15 0  0.6282426778245765 0.15 0  0.6250209205024085 0.15 0  0.62179916318025 0.15 0  0.6185774058580914 0.15 0  0.6153556485359328 0.15 0  0.6121338912137689 0.15 0  0.6089121338915987 0.15 0  0.6056903765694354 0.15 0  0.6024686192472768 0.15 0  0.5992468619251182 0.15 0  0.5960251046029597 0.15 0  0.5928033472807912 0.15 0  0.589581589958621 0.15 0  0.5863598326364508 0.15 0  0.5831380753142792 0.15 0  0.5799163179920974 0.15 0  0.57669456
[...]
<PointData  Scalars="pressure"> 
<DataArray  type="Float64"  Name="pressure"  format="ascii">1.5584933302752390e+04  4.0549113279815407e-01  -3.0042994307576576e-01  1.5570545448239536e+04  1.5446323818058301e+04  1.5337592193667762e+04  1.5229832244398365e+04  1.5122396761047536e+04  1.5015329339697835e+04  1.4908495537485205e+04  1.4801818379872857e+04  1.4695253674419215e+04  1.4588772916240192e+04  1.4482356655133179e+04  1.4375991072128931e+04  1.4269666019326633e+04  1.4163373842758489e+04  1.4057108641882440e+04  1.3950865784771673e+04  1.3844641579884543e+04  1.3738433047368542e+04  1.3632237755695784e+04  1.3526053702395027e+04  1.3419879225286759e+04  1.3313712935282923e+04  1.3207553664732066e+04  1.3101400427168870e+04  1.2995252385564016e+04  1.2889108827002463e+04  1.2782969142287682e+04  1.2676832809366557e+04  1.2570699379751011e+04  1.2464568467314382e+04  1.2358439738986757e+04  1.2252312906983476e+04  1.2146187722279525e+04  1.2040063969105197e+04  1.1933941460283615e+04  1.1827820033266940e+04  1.1721699546755197e+04  1.1615579877803644e+04  1.1509460919341582e+04  1.1403342578038844e+04  1.1297224772467413e+04  1.1191107431514116e+04  1.1084990493007468e+04  1.0978873902528130e+04  1.0872757612375872e+04  1.0766641580671885e+04  1.0660525770576452e+04  1.0554410149606461e+04  1.0448294689038521e+04  1.0342179363385623e+04  1.0236064149937247e+04  1.0129949028353511e+04  1.0023833980305919e+04  9.9177189891573817e+03  9.8116040396757380e+03  9.7054891177752397e+03  9.5993742102812157e+03  9.4932593047134887e+03  9.3871443890848896e+03  9.2810294517103921e+03  9.1749144810244270e+03  9.0687994654019985e+03  8.9626843929811712e+03  8.8565692514831371e+03  8.7504540280267502e+03  8.6443387089341049e+03  8.5382232795232867e+03  8.4321077238845410e+03  8.3259920246352322e+03  8.2198761626487394e+03  8.1137601167517532e+03  8.0076438633835342e+03  7.9015273762096012e+03  7.7954106256815530e+03  7.6892935785319905e+03  7.5831761971933329e+03  7.4770584391250068e+03  7.3709402560322324e+03  7.2648215929543785e+03  7.1587023871972424e+03  7.0525825670773693e+03  6.9464620504378072e+03  6.8403407428867222e+03  6.7342185356951804e+03  6.6280953032754142e+03  6.5219709001380206e+03  6.4158451571967789e+03  6.3097178772501493e+03  6.2035888294139440e+03  6.0974577422070433e+03  5.9913242948856023e+03  5.8851881064777144e+03  5.7790487217607379e+03  5.6729055931211769e+03  5.5667580567901305e+03  5.4606053012763514e+03  5.3544463247855901e+03  5.2482798768094890e+03  5.1421043765187151e+03  5.0359177962324457e+03  4.9297174901729404e+03  4.8234999364264904e+03  4.7172603483042030e+03  4.6109920658662422e+03  4.5046853622393746e+03  4.3983249021363290e+03  4.2918869541385366e+03  4.1853435383021470e+03  4.0786455787958180e+03  3.9715192790353790e+03  3.8630552160711263e+03  3.7488711369923376e+03  2.6550053614100352e+03  2.5850388016029019e+03  2.5154165848496204e+03  2.4626323472443628e+03  2.4462304129708068e+03  2.4257984149434210e+03  2.4056728498294178e+03  2.3856576736644688e+03  2.3656850095942928e+03  2.3457384628582749e+03  2.3258090176028991e+03  2.3058912997092784e+03  2.2859819934063235e+03  2.2660789294206220e+03  2.2461806222595214e+03  2.2262860182495933e+03  2.2063943482400487e+03  2.1865050371547241e+03  2.1666176462080880e+03  2.1467318347349792e+03  2.1268473342472403e+03  2.1069639303596787e+03  2.0870814499221988e+03  2.0671997516806405e+03  2.0473187193808255e+03  2.0274382565969224e+03  2.0075582827978994e+03  1.9876787303169867e+03  1.9677995419890801e+03  1.9479206692890975e+03  1.9280420708502770e+03  1.9081637112741068e+03  1.8882855601664539e+03  1.8684075913508584e+03  1.8485297822218524e+03  1.8286521132099610e+03  1.8087745673364218e+03  1.7888971298406602e+03  1.7690197878670131e+03  1.7491425302000953e+03  1.7292653470404482e+03  1.7093882298134772e+03  1.6895111710064034e+03  1.6696341640285609e+03  1.6497572030914350e+03  1.6298802831052692e+03  1.6100033995900230e+03  1.5901265485983463e+03  1.5702497266487803e+03  1.5503729306680211e+03  1.5304961579404655e+03  1.5106194060644841e+03  1.4907426729144270e+03  1.4708659566073266e+03  1.4509892554740402e+03  1.4311125680339137e+03  1.4112358929724774e+03  1.3913592291223051e+03  1.3714825754458468e+03  1.3516059310207115e+03  1.3317292950267622e+03  1.3118526667345029e+03  1.2919760454952832e+03  1.2720994307323347e+03  1.2522228219330561e+03  1.2323462186423633e+03  1.2124696204566610e+03  1.1925930270187368e+03  1.1727164380131442e+03  1.1528398531621631e+03  1.1329632722223732e+03  1.1130866949814197e+03  1.0932101212554933e+03  1.0733335508869568e+03  1.0534569837422919e+03  1.0335804197105194e+03  1.0137038587015345e+03  9.9382730064483042e+02  9.7395074548851915e+02  9.5407419319833525e+02  9.3419764375710542e+02  9.1432109716410343e+02  8.9444455343473123e+02  8.7456801260029567e+02  8.5469147470774669e+02  8.3481493981989547e+02  8.1493840801561350e+02  7.9506187939015240e+02  7.7518535405589864e+02  7.5530883214295659e+02  7.3543231380008865e+02  7.1555579919607658e+02  6.9567928852110231e+02  6.7580278198881422e+02  6.5592627983856289e+02  6.3604978233826921e+02  6.1617328978793205e+02  5.9629680252371679e+02  5.7642032092333568e+02  5.5654384541253307e+02  5.3666737647305479e+02  5.1679091465292595e+02  4.9691446057890181e+02  4.7703801497237885e+02  4.5716157866990403e+02  4.3728515264911164e+02  4.1740873806274186e+02  3.9753233628287006e+02  3.7765594895945327e+02  3.5777957809880292e+02  3.3790322616984355e+02  3.1802689625089545e+02  2.9815059223542158e+02  2.7827431912618869e+02  2.5839808346589973e+02  2.3852189398325496e+02  2.1864576259250668e+02  1.9876970599576703e+02  1.7889374836090371e+02  1.5901792603872130e+02  1.3914229641273775e+02  1.1926695545233260e+02  9.9392077001757059e+01  7.9518054581558928e+01  5.9645948352587574e+01  3.9775657729457940e+01  1.9905396288791955e+01  8.4075684810700602e-02  4.3198872857860594e-03  9.2468880613342185e-04  5.6852788860793039e-04  3.2495061261375173e-04  1.9100704354999814e-04  1.1944399565512302e-04  7.8884811206116737e-05  5.4502021680843198e-05  3.9093542556394485e-05  2.8933831805554119e-05  2.1987702939513707e-05  1.7089171920342618e-05  1.3541428877338497e-05  1.0912204456048690e-05  8.9243477203120399e-06  7.3949065198854897e-06  6.1999503375928169e-06  5.2535782317821726e-06  4.4950148005683477e-06  3.8804628686394056e-06  3.3778336793221994e-06  2.9632627670913070e-06  2.6187601920132991e-06  2.3305967766310712e-06  2.0881773465807584e-06  1.8832419346037226e-06  1.7092915838767883e-06  1.5611702666345892e-06  1.4347568759387177e-06  1.3267358253932810e-06  1.2344245072112666e-06  1.1556423416931935e-06  1.0886105795870762e-06  1.0318750673048750e-06  9.8424638429015765e-07  9.4475319874697071e-07  9.1260582439012517e-07  8.8716772220058351e-07  8.6793324608429671e-07  8.5451043050933877e-07  8.4660782190683397e-07  8.4402470687969849e-07  8.4664416401986131e-07  8.5442870485737222e-07  8.6741811141088043e-07  8.8572947888848096e-07  9.0955936006840798e-07  9.3918809937294699e-07  9.7498650872282484e-07  1.0174251550357978e-06  1.0670866180796337e-06  1.1246812800455755e-06  1.1910673268511387e-06  1.2672758585534359e-06  1.3545423561532903e-06  1.4543460379842047e-06  1.5684591617228997e-06  1.6990089848115123e-06  1.8485558549152919e-06  2.0201921710875352e-06  2.2176683690575520e-06  2.4455542600591585e-06  2.7094468791234506e-06  3.0162399812939853e-06  3.3744757071416520e-06  3.7948065411965281e-06  4.2906062526528907e-06  4.8787828164981792e-06  5.5808667427889791e-06  6.4244749839663151e-06  7.4452869680062552e-06  8.6897135854804706e-06  1.0218488953100538e-05  1.2111449521158579e-05  1.4473734391267330e-05  1.7443410970598016e-05  2.1199779817126436e-05  2.5969659633029539e-05  3.2025037277978616e-05  3.9663950129159489e-05  4.9213639647897276e-05  6.1710013582154326e-05  9.1608128849138561e-05  3.6482776455286050e-04  3.3469966268575369e-03  2.3683372313735962e-02  1.3918324964376280e-02  1.9712062272325092e+01  3.9716788535977969e+01  5.9604589213256332e+01  7.9486582787307086e+01  9.9367107769498062e+01  1.1924633006568439e+02  1.3912478752158759e+02  1.5900277322391366e+02  1.7888044430567365e+02  1.9875789483060728e+02  2.1863518470338616e+02  2.3851235382628317e+02  2.5838942979428441e+02  2.7826643229821701e+02  2.9814337576514032e+02  3.1802027100762382e+02  3.3789712629020431e+02  3.5777394803979632e+02  3.7765074133133123e+02  3.9752751022734964e+02  4.1740425802028454e+02  4.3728098740841688e+02  4.5715770062570942e+02  4.7703439953899624e+02  4.9691108572167474e+02  5.1678776051024806e+02  5.3666442504816484e+02  5.5654108032015745e+02  5.7641772717937670e+02  5.9629436636901175e+02  6.1617099853966045e+02  6.3604762426337959e+02  6.5592424404514020e+02  6.7580085833221096e+02  6.9567746752191658e+02  7.1555407196807698e+02  7.3543067198638835e+02  7.5530726785894706e+02  7.7518385983808298e+02  7.9506044814955942e+02  8.1493703299552431e+02  8.3481361455679439e+02  8.5469019299497802e+02  8.7456676845437585e+02  8.9444334106342080e+02  9.1431991093631461e+02  9.3419647817442490e+02  9.5407304286735234e+02  9.7394960509416273e+02  9.9382616492442503e+02  1.0137027224192144e+03  1.0335792776323487e+03  1.0534558306113886e+03  1.0733323813986981e+03  1.0932089300327070e+03  1.1130854765490005e+03  1.1329620209818365e+03  1.1528385633656421e+03  1.1727151037367319e+03  1.1925916421350489e+03  1.2124681786064962e+03  1.2323447132053111e+03  1.2522212459969164e+03  1.2720977770611935e+03  1.2919743064961003e+03  1.3118508344219410e+03  1.3317273609864167e+03  1.3516038863702634e+03  1.3714804107938048e+03  1.3913569345246419e+03  1.4112334578862567e+03  1.4311099812682862e+03  1.4509865051384088e+03  1.4708630300557231e+03  1.4907395566865237e+03  1.5106160858224348e+03  1.5304926184012882e+03  1.5503691555315781e+03  1.5702456985205663e+03  1.5901222489066286e+03  1.6099988084970325e+03  1.6298753794115091e+03  1.6497519641328806e+03  1.6696285655660165e+03  1.6895051871059954e+03  1.7093818327176434e+03  1.7292585070282171e+03  1.7491352154357517e+03  1.7690119642356631e+03  1.7888887607694128e+03  1.8087656135993464e+03  1.8286425327150232e+03  1.8485195297775297e+03  1.8683966184099734e+03  1.8882738145442850e+03  1.9081511368374806e+03  1.9280286071739424e+03  1.9479062512751004e+03  1.9677840994445728e+03  1.9876621874854450e+03  2.0075405578387965e+03  2.0274192610088783e+03  2.0472983573647191e+03  2.0671779194412225e+03  2.0870580349118418e+03  2.1069388104766049e+03  2.1268203770163655e+03  2.1467028965272070e+03  2.1665865716019230e+03  2.1864716586275031e+03  2.2063584865216953e+03  2.2262474839260403e+03  2.2461392196608817e+03  2.2660344646157369e+03  2.2859342894926085e+03  2.3058402249006926e+03  2.3257545345961603e+03  2.3456807027466552e+03  2.3656243575101776e+03  2.3855952271529786e+03  2.4056102422913646e+03  2.4256841556239742e+03  2.4458753736387216e+03  2.4683220438904982e+03  2.5038771322424909e+03  2.5796852541427252e+03  3.6462492727803092e+03  3.7587427557134538e+03  3.8663343149824004e+03  3.9732457503523451e+03  4.0798388869500973e+03  4.1863046268186163e+03  4.2926804622234440e+03  4.3989918056305705e+03  4.5052583880737538e+03  4.6114928787577610e+03  4.7177034103796796e+03  4.8238955899233606e+03  4.9300734613288450e+03  5.0362400062768365e+03  5.1423974670532316e+03  5.2485475626787747e+03  5.3546916330409640e+03  5.4608307372124409e+03  5.5669657224675675e+03  5.6730972737921666e+03  5.7792259500364644e+03  5.8853522107547051e+03  5.9914764364372386e+03  6.0975989439757186e+03  6.2037199986356036e+03  6.3098398234331753e+03  6.4159586065596295e+03  6.5220765073162565e+03  6.6281936609031472e+03  6.7343101823147326e+03  6.8404261695336436e+03  6.9465417061660019e+03  7.0526568636306502e+03  7.1587717029884343e+03  7.2648862764772884e+03  7.3710006288090217e+03  7.4771147982673083e+03  7.5832288176414022e+03  7.6893427150243642e+03  7.7954565144960243e+03  7.9015702367108806e+03  8.0076838994063273e+03  8.1137975178406796e+03  8.2199111051762484e+03  8.3260246728121656e+03  8.4321382306766136e+03  8.5382517874865207e+03  8.6443653509765554e+03  8.7504789281068188e+03  8.8565925252504494e+03  8.9627061483654888e+03  9.0688198031563388e+03  9.1749334952259305e+03  9.2810472302235939e+03  9.3871610139908771e+03  9.4932748527073563e+03  9.5993887530417251e+03  9.7055027223077504e+03  9.8116167686310764e+03  9.9177309011291436e+03  1.0023845130106529e+04  1.0129959467272531e+04  1.0236073925982548e+04  1.0342188521508164e+04  1.0448303271343151e+04  1.0554418195548389e+04  1.0660533317145708e+04  1.0766648662566125e+04  1.0872764262162529e+04  1.0978880150797871e+04  1.1084996368518125e+04  1.1191112961326608e+04  1.1297229982075123e+04  1.1403347491489343e+04  1.1509465559354032e+04  1.1615584265881660e+04  1.1721703703295316e+04  1.1827823977665206e+04  1.1933945211039487e+04  1.2040067543925545e+04  1.2146191138183527e+04  1.2252316180410000e+04  1.2358442885907689e+04  1.2464571503354699e+04  1.2570702320319633e+04  1.2676835669802413e+04  1.2782971938025288e+04  1.2889111573765442e+04  1.2995255099595970e+04  1.3101403125512828e+04  1.3207556365577864e+04  1.3313715658404808e+04  1.3419881992606577e+04  1.3526056538719706e+04  1.3632240689700477e+04  1.3738436112933550e+04  1.3844644817947325e+04  1.3950869245948727e+04  1.4057112390269787e+04  1.4163377961584089e+04  1.4269670619612722e+04  1.4375996306423327e+04  1.4482362740147752e+04  1.4588780171927647e+04  1.4695262595021186e+04  1.4801829772940402e+04  1.4908510833555638e+04  1.5015351223839416e+04  1.5122429245041276e+04  1.5229889552209734e+04  1.5337871275383446e+04  1.5447104883384531e+04  1.5558196218267085e+04  1.5553226487494201e+04  1.5550743297319716e+04  1.5549088433128483e+04  1.5547812000598980e+04  1.5546768620731251e+04  1.5545889101685079e+04  1.5545131536792804e+04  1.5544468157425004e+04  1.5543879722191705e+04  1.5543352419221690e+04  1.5542876024435975e+04  1.5542442767790435e+04  1.5542046611159298e+04  1.5541682772563752e+04  1.5541347402878338e+04  1.5541037360109471e+04  1.5540750048021193e+04  1.5540483298340912e+04  1.5540235283182066e+04  1.5540004448860000e+04  1.5539789465139866e+04  1.5539589185804858e+04  1.5539402617656202e+04  1.5539228895880902e+04  1.5539067264289861e+04  1.5538917059324813e+04  1.5538777697013509e+04  1.5538648662254311e+04  1.5538529499959084e+04  1.5538419807691635e+04  1.5538319229520346e+04  1.5538227450864611e+04  1.5538144194161656e+04  1.5538069215215844e+04  1.5538002300120759e+04  1.5537943262665978e+04  1.5537891942158012e+04  1.5537848201598423e+04  1.5537811926173566e+04  1.5537783022019390e+04  1.5537761415232391e+04  1.5537747051104085e+04  1.5537739893562108e+04  1.5537739924805494e+04  1.5537747145126415e+04  1.5537761572914584e+04  1.5537783244844270e+04  1.5537812216248245e+04  1.5537848561686596e+04  1.5537892375723111e+04  1.5537943773926483e+04  1.5538002894119514e+04  1.5538069897905601e+04  1.5538144972509772e+04  1.5538228332980638e+04  1.5538320224811199e+04  1.5538420927050500e+04  1.5538530755995636e+04  1.5538650069576457e+04  1.5538779272573376e+04  1.5538918822846104e+04  1.5539069238798653e+04  1.5539231108369546e+04  1.5539405099919966e+04  1.5539591975505034e+04  1.5539792607166981e+04  1.5540007997099246e+04  1.5540239302824755e+04  1.5540487868946733e+04  1.5540755267627947e+04  1.5541043350827440e+04  1.5541354318624588e+04  1.5541690809939204e+04  1.5542056025035999e+04  1.5542453894117893e+04  1.5542889314388689e+04  1.5543368491672223e+04  1.5543899446815403e+04  1.5544492791207011e+04  1.5545162957393581e+04  1.5545930210562423e+04  1.5546823929030106e+04  1.5547887588970696e+04  1.5549186391675539e+04  1.5550838922712137e+04  1.5553298398502249e+04  1.5559376970806406e+04  1.5448357701147008e+04  1.5446401833650931e+04  1.5444534249122067e+04  1.5443064445687749e+04  1.5441880600130720e+04  1.5440893840118759e+04  1.5440050894892658e+04  1.5439317861880736e+04  1.5438671580143313e+04  1.5438095490310568e+04  1.5437577376546496e+04  1.5437107999138569e+04  1.5436680218538235e+04  1.5436288414599852e+04  1.5435928090907450e+04  1.5435595598617447e+04  1.5435287939472755e+04  1.5435002622505104e+04  1.5434737557933358e+04  1.5434490977339765e+04  1.5434261372743587e+04  1.5434047449486570e+04  1.5433848089364279e+04  1.5433662321462050e+04  1.5433489298857707e+04  1.5433328279843903e+04  1.5433178612669668e+04  1.5433039723050253e+04  1.5432911103874931e+04  1.5432792306675705e+04  1.5432682934518929e+04  1.5432582636055973e+04  1.5432491100525729e+04  1.5432408053544899e+04  1.5432333253555520e+04  1.5432266488825277e+04  1.5432207574916632e+04  1.5432156352557233e+04  1.5432112685857055e+04  1.5432076460828475e+04  1.5432047584173999e+04  1.5432025982313797e+04  1.5432011600631160e+04  1.5432004402919345e+04  1.5432004371017771e+04  1.5432011504629883e+04  1.5432025821318772e+04  1.5432047356680419e+04  1.5432076164698155e+04  1.5432112318285912e+04  1.5432155910031819e+04  1.5432207053158434e+04  1.5432265882720991e+04  1.5432332557071109e+04  1.5432407259620495e+04  1.5432490200947765e+04  1.5432581621301884e+04  1.5432681793568501e+04  1.5432791026781553e+04  1.5432909670282352e+04  1.5433038118654031e+04  1.5433176817591539e+04  1.5433326270909540e+04  1.5433487048945031e+04  1.5433659798683670e+04  1.5433845256033899e+04  1.5434044260801165e+04  1.5434257775087870e+04  1.5434486906082841e+04  1.5434732934534550e+04  1.5434997350667632e+04  1.5435281899966436e+04  1.5435588642212670e+04  1.5435920028583843e+04  1.5436279003750544e+04  1.5436669143171026e+04  1.5437094840874777e+04  1.5437561571162312e+04  1.5438076260992206e+04  1.5438647832552695e+04  1.5439288016660143e+04  1.5440012617443612e+04  1.5440843551083808e+04  1.5441811985929184e+04  1.5442960611934308e+04  1.5444326029604421e+04  1.5445808676331255e+04  1.5446711179975433e+04  1.5337797995883651e+04  1.5337483325995763e+04  1.5336794125415972e+04  1.5335993108381026e+04  1.5335201929104733e+04  1.5334461854728557e+04  1.5333782719033241e+04  1.5333163191796708e+04  1.5332598319331813e+04  1.5332082340467630e+04  1.5331609729756416e+04  1.5331175544034231e+04  1.5330775490580687e+04  1.5330405888571457e+04  1.5330063595741671e+04  1.5329745929869952e+04  1.5329450596434721e+04  1.5329175625958527e+04  1.5328919321307307e+04  1.5328680213983429e+04  1.5328457028101267e+04  1.5328248650746684e+04  1.5328054107569087e+04  1.5327872542635419e+04  1.5327703201748733e+04  1.5327545418585065e+04  1.5327398603128247e+04  1.5327262231984741e+04  1.5327135840243023e+04  1.5327019014607511e+04  1.5326911387589691e+04  1.5326812632580644e+04  1.5326722459662442e+04  1.5326640612042607e+04  1.5326566863017182e+04  1.5326501013385272e+04  1.5326442889251817e+04  1.5326392340167062e+04  1.5326349237560293e+04  1.5326313473433454e+04  1.5326284959286681e+04  1.5326263625253336e+04  1.5326249419426942e+04  1.5326242307366501e+04  1.5326242271770430e+04  1.5326249312312670e+04  1.5326263445637893e+04  1.5326284705515505e+04  1.5326313143155499e+04  1.5326348827692160e+04  1.5326391846845157e+04  1.5326442307771058e+04  1.5326500338122487e+04  1.5326566087336771e+04  1.5326639728181433e+04  1.5326721458590024e+04  1.5326811503829727e+04  1.5326910119050974e+04  1.5327017592280632e+04  1.5327134247933711e+04  1.5327260450935206e+04  1.5327396611564178e+04  1.5327543191157649e+04  1.5327700708843417e+04  1.5327869749510246e+04  1.5328050973273172e+04  1.5328245126752385e+04  1.5328453056560062e+04  1.5328675725482042e+04  1.5328914231952534e+04  1.5329169833549136e+04  1.5329443975374643e+04  1.5329738324318776e+04  1.5330054810252090e+04  1.5330395675068366e+04  1.5330763529880145e+04  1.5331161418963098e+04  1.5331592884860689e+04  1.5332062019273162e+04  1.5332573461638027e+04  1.5333132253794060e+04  1.5333743330507097e+04  1.5334410120790437e+04  1.5335131107111432e+04  1.5335892543812697e+04  1.53366581