<?xml version="1.0"?>
<VTKFile type="UnstructuredGrid"  version="0.1"  >
<UnstructuredGrid>
<Piece  NumberOfPoints="21600" NumberOfCells="42542">
<Points>
<DataArray  type="Float64"  NumberOfComponents="3"  format="ascii">0 0 0  0.77 0 0  0.77 0.15 0  0 0.15 0  0.003221757322170014 0 0  0.006443514644340046 0 0  0.009665271966510193 0 0  0.01288702928868034 0 0  0.01610878661085048 0 0  0.01933054393302049 0 0  0.02255230125519027 0 0  0.02577405857735967 0 0  0.02899581589952872 0 0  0.03221757322169801 0 0  0.03543933054386744 0 0  0.03866108786603686 0 0  0.04188284518820627 0 0  0.0451046025103757 0 0  0.04832635983254521 0 0  0.05154811715471607 0 0  0.05476987447688695 0 0  0.05799163179905782 0 0  0.06121338912122846 0 0  0.06443514644339859 0 0  0.06765690376556875 0 0  0.0708786610877389 0 0  0.07410041840990904 0 0  0.0773221757320792 0 0  0.08054393305425039 0 0  0.08376569037642198 0 0  0.0869874476985936 0 0  0.09020920502076518 0 0  0.0934309623429339 0 0  0.0966527196651024 0 0  0.09987447698726967 0 0  0.1030962343094369 0 0  0.1063179916316041 0 0  0.1095397489537714 0 0  0.1127615062759386 0 0  0.1159832635981051 0 0  0.1192050209202709 0 0  0.1224267782424358 0 0  0.1256485355646001 0 0  0.1288702928867644 0 0  0.1320920502089288 0 0  0.1353138075310958 0 0  0.1385355648532632 0 0  0.1417573221754333 0 0  0.1449790794976035 0 0  0.1482008368197736 0 0  0.1514225941419428 0 0  0.1546443514641101 0 0  0.157866108786276 0 0  0.1610878661084403 0 0  0.1643096234306047 0 0  0.167531380752769 0 0  0.1707531380749333 0 0  0.1739748953970977 0 0  0.177196652719262 0 0  0.1804184100414264 0 0  0.1836401673635935 0 0  0.1868619246857611 0 0  0.1900836820079313 0 0  0.1933054393301014 0 0  0.1965271966522716 0 0  0.1997489539744406 0 0  0.2029707112966078 0 0  0.2061924686187736 0 0  0.209414225940938 0 0  0.2126359832631022 0 0  0.2158577405852666 0 0  0.219079497907431 0 0  0.2223012552295953 0 0  0.2255230125517597 0 0  0.2287447698739242 0 0  0.2319665271960914 0 0  0.2351882845182592 0 0  0.2384100418404293 0 0  0.2416317991625994 0 0  0.2448535564847696 0 0  0.2480753138069371 0 0  0.2512970711291014 0 0  0.2545188284512658 0 0  0.2577405857734302 0 0  0.2609623430955986 0 0  0.2641841004177688 0 0  0.2674058577399389 0 0  0.270627615062109 0 0  0.2738493723842792 0 0  0.2770711297064487 0 0  0.280292887028613 0 0  0.2835146443507774 0 0  0.2867364016729417 0 0  0.2899581589951061 0 0  0.2931799163172705 0 0  0.2964016736394348 0 0  0.2996234309615992 0 0  0.3028451882837672 0 0  0.3060669456059373 0 0  0.3092887029281075 0 0  0.3125104602502776 0 0  0.3157322175724478 0 0  0.3189539748946177 0 0  0.322175732216782 0 0  0.3253974895389464 0 0  0.3286192468611107 0 0  0.3318410041832751 0 0  0.3350627615054395 0 0  0.3382845188276038 0 0  0.3415062761497681 0 0  0.3447280334719325 0 0  0.3479497907940968 0 0  0.3511715481162612 0 0  0.3543933054384255 0 0  0.3576150627605947 0 0  0.3608368200827649 0 0  0.364058577404935 0 0  0.3672803347271051 0 0  0.3705020920492753 0 0  0.373723849371444 0 0  0.3769456066936084 0 0  0.3801673640157748 0 0  0.383389121337945 0 0  0.3866108786601209 0 0  0.3898326359823028 0 0  0.3930543933044846 0 0  0.3962761506266662 0 0  0.399497907948848 0 0  0.4027196652710298 0 0  0.4059414225932116 0 0  0.4091631799153934 0 0  0.4123849372375751 0 0  0.4156066945597569 0 0  0.4188284518819387 0 0  0.4220502092041222 0 0  0.4252719665263097 0 0  0.4284937238484974 0 0  0.4317154811706849 0 0  0.4349372384928725 0 0  0.4381589958150601 0 0  0.4413807531372476 0 0  0.4446025104594352 0 0  0.4478242677816181 0 0  0.4510460251037998 0 0  0.4542677824259815 0 0  0.4574895397481634 0 0  0.4607112970703451 0 0  0.4639330543925269 0 0  0.4671548117147087 0 0  0.4703765690368904 0 0  0.4735983263590722 0 0  0.4768200836812568 0 0  0.4800418410034444 0 0  0.483263598325632 0 0  0.4864853556478196 0 0  0.4897071129700028 0 0  0.4929288702921845 0 0  0.4961506276143663 0 0  0.4993723849365479 0 0  0.5025941422587239 0 0  0.5058158995809008 0 0  0.5090376569030826 0 0  0.5122594142252677 0 0  0.515481171547461 0 0  0.5187029288696494 0 0  0.5219246861918312 0 0  0.525146443514013 0 0  0.5283682008361947 0 0  0.5315899581583845 0 0  0.5348117154805778 0 0  0.5380334728027617 0 0  0.5412552301249435 0 0  0.5444769874471141 0 0  0.5476987447692853 0 0  0.550920502091467 0 0  0.5541422594136513 0 0  0.5573640167358447 0 0  0.560585774058034 0 0  0.5638075313802158 0 0  0.5670292887023975 0 0  0.5702510460245793 0 0  0.5734728033467682 0 0  0.5766945606689615 0 0  0.579916317991155 0 0  0.5831380753133483 0 0  0.5863598326355314 0 0  0.5895815899577131 0 0  0.5928033472798949 0 0  0.5960251046020785 0 0  0.5992468619242718 0 0  0.6024686192464619 0 0  0.6056903765686437 0 0  0.6089121338908206 0 0  0.6121338912129908 0 0  0.6153556485351673 0 0  0.618577405857349 0 0  0.6217991631795386 0 0  0.625020920501732 0 0  0.6282426778239159 0 0  0.6314644351460976 0 0  0.6346861924682795 0 0  0.6379079497904622 0 0  0.6411297071126555 0 0  0.6443514644348465 0 0  0.6475732217570283 0 0  0.650794979079206 0 0  0.6540167364013761 0 0  0.6572384937235518 0 0  0.6604602510457335 0 0  0.6636820083679225 0 0  0.6669037656901158 0 0  0.6701255230123004 0 0  0.6733472803344823 0 0  0.6765690376566641 0 0  0.6797907949788459 0 0  0.6830125523010393 0 0  0.686234309623231 0 0  0.6894560669454127 0 0  0.6926778242675914 0 0  0.6958995815897615 0 0  0.6991213389119363 0 0  0.7023430962341181 0 0  0.7055648535563062 0 0  0.7087866108784994 0 0  0.712008368200685 0 0  0.7152301255228668 0 0  0.7184518828450486 0 0  0.7216736401672305 0 0  0.724895397489423 0 0  0.7281171548116155 0 0  0.7313389121337973 0 0  0.7345606694559768 0 0  0.7377824267781468 0 0  0.7410041841003209 0 0  0.7442259414225026 0 0  0.7474476987446899 0 0  0.7506694560668832 0 0  0.7538912133890696 0 0  0.7571129707112513 0 0  0.760334728033433 0 0  0.7635564853556149 0 0  0.7667782426778067 0 0  0.77 0.001685393258423789 0  0.77 0.003370786516847669 0  0.77 0.005056179775271247 0  0.77 0.006741573033694517 0  0.77 0.008426966292117821 0  0.77 0.01011235955054176 0  0.77 0.01179775280896623 0  0.77 0.0134831460673904 0  0.77 0.01516853932581489 0  0.77 0.01685393258423891 0  0.77 0.01853932584266291 0  0.77 0.02022471910108589 0  0.77 0.02191011235950794 0  0.77 0.02359550561792999 0  0.77 0.02528089887635205 0  0.77 0.02696629213477411 0  0.77 0.02865168539319714 0  0.77 0.03033707865161956 0  0.77 0.03202247191004162 0  0.77 0.03370786516846367 0  0.77 0.03539325842688572 0  0.77 0.03707865168530778 0  0.77 0.03876404494372984 0  0.77 0.0404494382021519 0  0.77 0.04213483146057394 0  0.77 0.04382022471899601 0  0.77 0.04550561797741807 0  0.77 0.04719101123584013 0  0.77 0.04887640449426219 0  0.77 0.05056179775268425 0  0.77 0.0522471910111063 0  0.77 0.05393258426952837 0  0.77 0.05561797752795105 0  0.77 0.05730337078637505 0  0.77 0.05898876404479723 0  0.77 0.0606741573032193 0  0.77 0.06235955056164135 0  0.77 0.06404494382006341 0  0.77 0.06573033707848548 0  0.77 0.06741573033690752 0  0.77 0.06910112359532959 0  0.77 0.07078651685375165 0  0.77 0.0724719101121737 0  0.77 0.07415730337059653 0  0.77 0.07584269662902443 0  0.77 0.07752808988745429 0  0.77 0.07921348314588413 0  0.77 0.08089887640431678 0  0.77 0.08258426966274923 0  0.77 0.08426966292117907 0  0.77 0.08595505617960987 0  0.77 0.08764044943804362 0  0.77 0.08932584269647403 0  0.77 0.09101123595490389 0  0.77 0.09269662921333673 0  0.77 0.09438202247176901 0  0.77 0.09606741573019884 0  0.77 0.09775280898862983 0  0.77 0.09943820224706355 0  0.77 0.1011235955054938 0  0.77 0.1028089887639236 0  0.77 0.1044943820223567 0  0.77 0.1061797752807888 0  0.77 0.1078651685392186 0  0.77 0.1095505617976498 0  0.77 0.1112359550560835 0  0.77 0.1129213483145136 0  0.77 0.1146067415729456 0  0.77 0.1162921348313787 0  0.77 0.1179775280898085 0  0.77 0.1196629213482387 0  0.77 0.1213483146066724 0  0.77 0.1230337078651035 0  0.77 0.1247191011235322 0  0.77 0.1264044943819605 0  0.77 0.1280898876403903 0  0.77 0.1297752808988242 0  0.77 0.1314606741572554 0  0.77 0.1331460674156853 0  0.77 0.1348314606741154 0  0.77 0.1365168539325504 0  0.77 0.1382022471909802 0  0.77 0.13988764044941 0  0.77 0.1415730337078443 0  0.77 0.1432584269662752 0  0.77 0.144943820224705 0  0.77 0.1466292134831355 0  0.77 0.1483146067415701 0  0.7667782426778414 0.15 0  0.7635564853556813 0.15 0  0.7603347280335111 0.15 0  0.757112970711341 0.15 0  0.7538912133891708 0.15 0  0.7506694560670005 0.15 0  0.7474476987448303 0.15 0  0.7442259414226602 0.15 0  0.74100418410049 0.15 0  0.7377824267783197 0.15 0  0.7345606694561496 0.15 0  0.7313389121339794 0.15 0  0.7281171548118092 0.15 0  0.724895397489639 0.15 0  0.7216736401674688 0.15 0  0.7184518828452986 0.15 0  0.7152301255231284 0.15 0  0.7120083682009583 0.15 0  0.708786610878788 0.15 0  0.7055648535566178 0.15 0  0.7023430962344477 0.15 0  0.6991213389122775 0.15 0  0.6958995815901072 0.15 0  0.692677824267937 0.15 0  0.6894560669457669 0.15 0  0.6862343096235967 0.15 0  0.6830125523014264 0.15 0  0.6797907949792563 0.15 0  0.6765690376570861 0.15 0  0.6733472803349159 0.15 0  0.6701255230127456 0.15 0  0.6669037656905755 0.15 0  0.6636820083684053 0.15 0  0.6604602510462351 0.15 0  0.657238493724065 0.15 0  0.6540167364018947 0.15 0  0.6507949790797245 0.15 0  0.6475732217575543 0.15 0  0.644351464435384 0.15 0  0.6411297071132231 0.15 0  0.6379079497910645 0.15 0  0.634686192468906 0.15 0  0.6314644351467468 0.15 0  0.6282426778245765 0.15 0  0.6250209205024085 0.15 0  0.62179916318025 0.15 0  0.6185774058580914 0.15 0  0.6153556485359328 0.15 0  0.6121338912137689 0.15 0  0.6089121338915987 0.15 0  0.6056903765694354 0.15 0  0.6024686192472768 0.15 0  0.5992468619251182 0.15 0  0.5960251046029597 0.15 0  0.5928033472807912 0.15 0  0.589581589958621 0.15 0  0.5863598326364508 0.15 0  0.5831380753142792 0.15 0  0.5799163179920974 0.15 0  0.57669456
[...]
<PointData  Scalars="pressure"> 
<DataArray  type="Float64"  Name="pressure"  format="ascii">1.1801166539616930e+04  4.0549110792770032e-01  -3.0042996167233466e-01  1.1786794964147419e+04  1.1662557037552200e+04  1.1553825343805049e+04  1.1446065274184220e+04  1.1338629618359499e+04  1.1231561970969102e+04  1.1124727887266108e+04  1.1018050390353132e+04  1.0911485284918177e+04  1.0805004062658814e+04  1.0698587269360338e+04  1.0592221081393565e+04  1.0485895345486188e+04  1.0379602401513099e+04  1.0273336341902874e+04  1.0167092526727491e+04  1.0060867255356934e+04  9.9546575376302590e+03  9.8484609303378675e+03  9.7422754177771312e+03  9.6360993227841464e+03  9.5299312392991869e+03  9.4237699804415697e+03  9.3176145379470472e+03  9.2114640500569312e+03  9.1053177757784524e+03  8.9991750740043353e+03  8.8930353863742403e+03  8.7868982230399961e+03  8.6807631506951911e+03  8.5746297823724199e+03  8.4684977686163202e+03  8.3623667897133564e+03  8.2562365487141215e+03  8.1501067650191835e+03  8.0439771683228137e+03  7.9378474927195393e+03  7.8317174707778086e+03  7.7255868273726783e+03  7.6194552730430469e+03  7.5133224965958161e+03  7.4071881566136590e+03  7.3010518714266072e+03  7.1949132069680718e+03  7.0887716617309279e+03  6.9826266477423560e+03  6.8764774660308512e+03  6.7703232743916078e+03  6.6641630442256783e+03  6.5579955016239519e+03  6.4518190453206280e+03  6.3456316297794210e+03  6.2394305936138762e+03  6.1332124012569575e+03  6.0269722540661769e+03  5.9207034816246887e+03  5.8143963478618516e+03  5.7080355093970429e+03  5.6015972276703351e+03  5.4950535164320881e+03  5.3883552942252236e+03  5.2812287590269989e+03  5.1727644820221039e+03  5.0585801992745346e+03  3.6090804529181833e+03  3.5391137868065348e+03  3.4694914696386186e+03  3.4167071593119699e+03  3.4003052053105430e+03  3.3798731851599264e+03  3.3597476011508129e+03  3.3397324086462991e+03  3.3197597303842808e+03  3.2998131713089715e+03  3.2798837153167601e+03  3.2599659880742788e+03  3.2400566736252908e+03  3.2201536025358564e+03  3.2002552891737751e+03  3.1803606797441048e+03  3.1604690049901506e+03  3.1405796897433406e+03  3.1206922951374781e+03  3.1008064804369178e+03  3.0809219770918412e+03  3.0610385706630245e+03  3.0411560879530170e+03  3.0212743876661038e+03  3.0013933535114888e+03  2.9815128890310853e+03  2.9616329136653467e+03  2.9417533597221859e+03  2.9218741700140081e+03  2.9019952959956117e+03  2.8821166962821144e+03  2.8622383354586495e+03  2.8423601831161918e+03  2.8224822130645989e+03  2.8026044026857353e+03  2.7827267323982860e+03  2.7628491852123529e+03  2.7429717463566562e+03  2.7230944029652178e+03  2.7032171438126038e+03  2.6833399590894301e+03  2.6634628402112567e+03  2.6435857796553955e+03  2.6237087708211193e+03  2.6038318079095966e+03  2.5839548858205103e+03  2.5640780000628724e+03  2.5442011466778581e+03  2.5243243221720918e+03  2.5044475234596252e+03  2.4845707478115942e+03  2.4646939928124025e+03  2.4448172563215803e+03  2.4249405364404893e+03  2.4050638314831945e+03  2.3851871399511642e+03  2.3653104605110111e+03  2.3454337919750587e+03  2.3255571332843310e+03  2.3056804834935242e+03  2.2858038417579241e+03  2.2659272073218931e+03  2.2460505795087383e+03  2.2261739577118014e+03  2.2062973413866212e+03  2.1864207300440248e+03  2.1665441232440421e+03  2.1466675205905176e+03  2.1267909217263796e+03  2.1069143263294932e+03  2.0870377341088933e+03  2.0671611448015283e+03  2.0472845581693609e+03  2.0274079739967999e+03  2.0075313920884121e+03  1.9876548122669371e+03  1.9677782343714034e+03  1.9479016582555982e+03  1.9280250837866404e+03  1.9081485108437132e+03  1.8882719393169307e+03  1.8683953691063380e+03  1.8485188001210183e+03  1.8286422322782937e+03  1.8087656655029987e+03  1.7888890997268738e+03  1.7690125348880092e+03  1.7491359709302947e+03  1.7292594078030156e+03  1.7093828454603852e+03  1.6895062838612323e+03  1.6696297229686913e+03  1.6497531627499370e+03  1.6298766031758355e+03  1.6100000442208059e+03  1.5901234858626528e+03  1.5702469280823211e+03  1.5503703708639000e+03  1.5304938141943219e+03  1.5106172580632722e+03  1.4907407024631964e+03  1.4708641473891410e+03  1.4509875928388237e+03  1.4311110388125735e+03  1.4112344853131315e+03  1.3913579323458598e+03  1.3714813799185290e+03  1.3516048280414623e+03  1.3317282767276738e+03  1.3118517259927125e+03  1.2919751758549257e+03  1.2720986263353529e+03  1.2522220774577993e+03  1.2323455292490439e+03  1.2124689817388664e+03  1.1925924349602699e+03  1.1727158889495743e+03  1.1528393437465361e+03  1.1329627993946026e+03  1.1130862559409286e+03  1.0932097134367405e+03  1.0733331719375169e+03  1.0534566315032014e+03  1.0335800921986358e+03  1.0137035540936830e+03  9.9382701726354242e+02  9.7395048178918489e+02  9.5407394775762180e+02  9.3419741526250095e+02  9.1432088440446580e+02  8.9444435529173927e+02  8.7456782804070258e+02  8.5469130277635770e+02  8.3481477963319162e+02  8.1493825875595803e+02  7.9506174030051898e+02  7.7518522443507004e+02  7.5530871134114989e+02  7.3543220121495949e+02  7.1555569426907357e+02  6.9567919073413202e+02  6.7580269086118869e+02  6.5592619492420727e+02  6.3604970322315978e+02  6.1617321608774853e+02  5.9629673388168624e+02  5.7642025700825400e+02  5.5654378591694581e+02  5.3666732111158569e+02  5.1679086316073983e+02  4.9691441271029009e+02  4.7703797049945899e+02  4.5716153738142106e+02  4.3728511434933785e+02  4.1740870257046208e+02  3.9753230343044993e+02  3.7765591859198179e+02  3.5777955007330513e+02  3.3790320035455704e+02  3.1802687252460765e+02  2.9815057048686282e+02  2.7827429925347684e+02  2.5839806537603459e+02  2.3852187759165810e+02  2.1864574782260362e+02  1.9876969277861099e+02  1.7889373663483693e+02  1.5901791574907296e+02  1.3914228751155613e+02  1.1926694789814897e+02  9.9392070759379635e+01  7.9518049621888707e+01  5.9645944652437827e+01  3.9775655271517827e+01  1.9905395061588386e+01  8.4075679696434744e-02  4.3198869357351979e-03  9.2468853496370225e-04  5.6852750782352313e-04  3.2495011594180597e-04  1.9100642476856092e-04  1.1944325165262964e-04  7.8883941019381419e-05  5.4501025448923011e-05  3.9092421022149955e-05  2.8932586120489251e-05  2.1986334539959736e-05  1.7087682483970109e-05  1.3539820282580623e-05  1.0910478757008049e-05  8.9225071491193479e-06  7.3929534612804906e-06  6.1978873322882281e-06  5.2514079737871361e-06  4.4927401156643281e-06  3.8780867282510008e-06  3.3753591769259532e-06  2.9606931343786328e-06  2.6160987669229565e-06  2.3278470264849557e-06  2.0853428400263437e-06  1.8803263486767555e-06  1.7062987000425344e-06  1.5581039575679898e-06  1.4316211059622824e-06  1.3235346405292450e-06  1.2311620264319045e-06  1.1523227762271965e-06  1.0852381809900714e-06  1.0284541599356121e-06  9.8078134651778921e-07  9.4124846313428100e-07  9.0906586274465784e-07  8.8359703631265812e-07  8.6433637786374624e-07  8.5089193787188707e-07  8.4297229737257041e-07  8.4037673567111514e-07  8.4298835439626914e-07  8.5076965624233942e-07  8.6376042522054737e-07  8.8207773902511709e-07  9.0591814070827098e-07  9.3556194817504224e-07  9.7137995162829827e-07  1.0138426797199819e-06  1.0635326705512751e-06  1.1211602713433608e-06  1.1875836131564239e-06  1.2638337452351954e-06  1.3511460852454035e-06  1.4509997887421182e-06  1.5651670455344478e-06  1.6957750373977668e-06  1.8453840358590417e-06  2.0170863576582366e-06  2.2146323472057600e-06  2.4425917251193385e-06  2.7065614389404740e-06  3.0134351386801183e-06  3.3717548572466341e-06  3.7921729879090195e-06  4.2880631706964513e-06  4.8763332889202478e-06  5.5785137173026124e-06  6.4222213013096407e-06  7.4431353458839303e-06  8.6876666218052469e-06  1.0216549114615052e-05  1.2109619153561622e-05  1.4472015714517347e-05  1.7441806071326889e-05  2.1198290664919785e-05  2.5968288060555480e-05  3.2023785013725189e-05  3.9662818766096948e-05  4.9212630662307217e-05  6.1709128386483629e-05  9.1607369650814141e-05  3.6482714743909492e-04  3.3469963170180022e-03  2.3683373338377115e-02  1.3918325627910040e-02  1.9712063476487295e+01  3.9716790967846713e+01  5.9604592876775598e+01  7.9486587698669311e+01  9.9367113950835204e+01  1.1924633754487455e+02  1.3912479633239712e+02  1.5900278340612880e+02  1.7888045590526363e+02  1.9875790789991794e+02  2.1863519930136252e+02  2.3851237001871968e+02  2.5838944765410463e+02  2.7826645190578279e+02  2.9814339720859107e+02  3.1802029438324735e+02  3.3789715170283966e+02  3.5777397560327074e+02  3.7765077116893121e+02  3.9752754247232843e+02  4.1740429281640621e+02  4.3728102491053932e+02  4.5715774100040659e+02  4.7703444296522179e+02  4.9691113239146745e+02  5.1678781062948008e+02  5.3666447883733531e+02  5.5654113801522976e+02  5.7641778903266277e+02  5.9629443265010082e+02  6.1617106953639723e+02  6.3604770028288419e+02  6.5592432541487506e+02  6.7580094540109337e+02  6.9567756066146853e+02  7.1555417157361899e+02  7.3543077847826225e+02  7.5530738168377309e+02  7.7518398147003677e+02  7.9506057809166475e+02  8.1493717178095028e+02  8.3481376275014429e+02  8.5469035119355260e+02  8.7456693728939808e+02  8.9444352120119277e+02  9.1432010307928476e+02  9.3419668306213237e+02  9.5407326127721001e+02  9.7394983784203873e+02  9.9382641286496107e+02  1.0137029864458335e+03  1.0335795586768679e+03  1.0534561296431557e+03  1.0733326994231609e+03  1.0932092680892890e+03  1.1130858357081584e+03  1.1329624023411416e+03  1.1528389680447001e+03  1.1727155328707408e+03  1.1925920968667417e+03  1.2124686600761950e+03  1.2323452225387630e+03  1.2522217842905327e+03  1.2720983453642580e+03  1.2919749057894430e+03  1.3118514655924914e+03  1.3317280247969686e+03  1.3516045834236697e+03  1.3714811414907051e+03  1.3913576990136933e+03  1.4112342560056600e+03  1.4311108124772431e+03  1.4509873684368979e+03  1.4708639238907697e+03  1.4907404788428171e+03  1.5106170332948518e+03  1.5304935872464614e+03  1.5503701406952164e+03  1.5702466936367100e+03  1.5901232460644073e+03  1.6099997979697696e+03  1.6298763493421986e+03  1.6497529001690359e+03  1.6696294504357538e+03  1.6895060001258039e+03  1.7093825492206420e+03  1.7292590976997383e+03  1.7491356455406756e+03  1.7690121927190862e+03  1.7888887392087199e+03  1.8087652849814915e+03  1.8286418300075411e+03  1.8485183742553284e+03  1.8683949176917517e+03  1.8882714602822384e+03  1.9081480019909413e+03  1.9280245427809764e+03  1.9479010826146680e+03  1.9677776214538792e+03  1.9876541592603692e+03  2.0075306959963707e+03  2.0274072316250681e+03  2.0472837661113113e+03  2.0671602994224327e+03  2.0870368315292258e+03  2.1069133624070901e+03  2.1267898920373905e+03  2.1466664204090612e+03  2.1665429475204764e+03  2.1864194733816662e+03  2.2062959980169130e+03  2.2261725214676908e+03  2.2460490437962512e+03  2.2659255650897098e+03  2.2858020854648043e+03  2.3056786050734377e+03  2.3255551241091116e+03  2.3454316428144703e+03  2.3653081614898847e+03  2.3851846805035311e+03  2.4050612003030164e+03  2.4249377214288465e+03  2.4448142445300969e+03  2.4646907703824641e+03  2.4845672999091721e+03  2.5044438342051967e+03  2.5243203745653000e+03  2.5441969225165076e+03  2.5640734798557228e+03  2.5839500486933553e+03  2.6038266315039250e+03  2.6237032311848252e+03  2.6435798511245835e+03  2.6634564952824499e+03  2.6833331682810694e+03  2.7032098755147640e+03  2.7230866232762492e+03  2.7429634189052981e+03  2.7628402709636193e+03  2.7827171894413013e+03  2.8025941860011635e+03  2.8224712742693100e+03  2.8423484701821144e+03  2.8622257924025839e+03  2.8821032628227772e+03  2.9019809071736881e+03  2.9218587557705891e+03  2.9417368444306212e+03  2.9616152156114608e+03  2.9814939198369316e+03  3.0013730174989896e+03  3.0212525811592259e+03  3.0411326985221099e+03  3.0610134763235387e+03  3.0808950454857713e+03  3.1007775680525633e+03  3.1206612466716347e+03  3.1405463377931019e+03  3.1604331704071460e+03  3.1803221732385537e+03  3.2002139152030813e+03  3.2201091672998041e+03  3.2400090003565515e+03  3.2599149451270146e+03  3.2798292655336118e+03  3.2997554459354865e+03  3.3196991147122881e+03  3.3396700003890714e+03  3.3596850338872246e+03  3.3797589682476519e+03  3.3999502104054673e+03  3.4223969115515397e+03  3.4579520538183488e+03  3.5337602949335669e+03  4.9559582701613081e+03  5.0684519542732487e+03  5.1760437232364184e+03  5.2829553874351031e+03  5.3895487765964135e+03  5.4960147976149610e+03  5.6023909478398355e+03  5.7087026454172637e+03  5.8149696277797848e+03  5.9212045713573671e+03  6.0274156170339729e+03  6.1336083810964292e+03  6.2397869180760672e+03  6.3459542217298986e+03  6.4521125481291665e+03  6.5582636320440970e+03  6.6644088313688635e+03  6.7705492257740161e+03  6.8766856861077013e+03  6.9828189243457409e+03  7.0889495302506484e+03  7.1950779987936867e+03  7.3012047510553057e+03  7.4073301504604933e+03  7.5134545156386566e+03  7.6195781308230235e+03  7.7257012544567224e+03  7.8318241264941489e+03  7.9379469747699204e+03  8.0440700207284453e+03  8.1501934847453022e+03  8.2563175912413681e+03  8.3624425737624115e+03  8.4685686801880602e+03  8.5746961782333019e+03  8.6808253614087516e+03  8.7869565556284506e+03  8.8930901266785331e+03  8.9992264887985857e+03  9.1053661146893774e+03  9.2115095473316796e+03  9.3176574141089259e+03  9.4238104438761002e+03  9.5299694878121409e+03  9.6361355451828349e+03  9.7423097955372959e+03  9.8484936394387732e+03  9.9546887506758085e+03  1.0060897144152403e+04  1.0167121265573696e+04  1.0273364112022744e+04  1.0379629397289204e+04  1.0485921783672080e+04  1.0592247215361987e+04  1.0698613412230285e+04  1.0805030626835962e+04  1.0911512853584669e+04  1.1018079856910437e+04  1.1124760765417745e+04  1.1231601026656741e+04  1.1338678942324108e+04  1.1446139167805624e+04  1.1554120833386487e+04  1.1663354408106465e+04  1.1774445732018894e+04  1.1769475992401418e+04  1.1766992786650193e+04  1.1765337900174465e+04  1.1764061438649805e+04  1.1763018023059194e+04  1.1762138461538925e+04  1.1761380847393670e+04  1.1760717411962993e+04  1.1760128913823062e+04  1.1759601541066630e+04  1.1759125069577116e+04  1.1758691729271888e+04  1.1758295481986514e+04  1.1757931545704085e+04  1.1757596071262458e+04  1.1757285916633627e+04  1.1756998485550281e+04  1.1756731609712493e+04  1.1756483461211292e+04  1.1756252486345447e+04  1.1756037354870326e+04  1.1755836920567061e+04  1.1755650190243456e+04  1.1755476299102700e+04  1.1755314490982357e+04  1.1755164102362227e+04  1.1755024549320391e+04  1.1754895316818634e+04  1.1754775949846120e+04  1.1754666046058624e+04  1.1754565249631847e+04  1.1754473246108515e+04  1.1754389758065812e+04  1.1754314541465190e+04  1.1754247382574938e+04  1.1754188095377407e+04  1.1754136519390195e+04  1.1754092517844563e+04  1.1754055976175359e+04  1.1754026800785883e+04  1.1754004918058836e+04  1.1753990273590762e+04  1.1753982831632933e+04  1.1753982574726399e+04  1.1753989503523366e+04  1.1754003636791151e+04  1.1754025011598749e+04  1.1754053683690061e+04  1.1754089728052106e+04  1.1754133239690560e+04  1.1754184334630110e+04  1.1754243151162753e+04  1.1754309851373213e+04  1.1754384622978889e+04  1.1754467681530647e+04  1.1754559273032419e+04  1.1754659677051488e+04  1.1754769210409218e+04  1.1754888231564317e+04  1.1755017145829215e+04  1.1755156411597260e+04  1.1755306547806244e+04  1.1755468142927049e+04  1.1755641865850188e+04  1.1755828479155500e+04  1.1756028855403727e+04  1.1756243997299027e+04  1.1756475062865586e+04  1.1756723397196916e+04  1.1756990572933444e+04  1.1757278442497791e+04  1.1757589206417249e+04  1.1757925504042414e+04  1.1758290536050225e+04  1.1758688233035904e+04  1.1759123492574294e+04  1.1759602520837791e+04  1.1760133338998108e+04  1.1760726558744045e+04  1.1761396612896307e+04  1.1762163766889569e+04  1.1763057399260098e+04  1.1764120986373340e+04  1.1765419729682641e+04  1.1767072214882450e+04  1.1769531658452945e+04  1.1775610212028916e+04  1.1664590924917087e+04  1.1662635075895634e+04  1.1660767523626302e+04  1.1659297766159436e+04  1.1658113980172080e+04  1.1657127293199452e+04  1.1656284434319832e+04  1.1655551500769498e+04  1.1654905331388098e+04  1.1654329366557336e+04  1.1653811390165814e+04  1.1653342162199640e+04  1.1652914542784001e+04  1.1652522911423177e+04  1.1652162771328507e+04  1.1651830473262407e+04  1.1651523018553777e+04  1.1651237915801672e+04  1.1650973074775155e+04  1.1650726726590952e+04  1.1650497362788623e+04  1.1650283688217618e+04  1.1650084584170167e+04  1.1649899079218818e+04  1.1649726325920816e+04  1.1649565582041998e+04  1.1649416195300013e+04  1.1649277590875718e+04  1.1649149261122589e+04  1.1649030757037010e+04  1.1648921681151402e+04  1.1648821681586394e+04  1.1648730447054806e+04  1.1648647702653327e+04  1.1648573206311408e+04  1.1648506745792891e+04  1.1648448136166355e+04  1.1648397217676702e+04  1.1648353853963419e+04  1.1648317930581641e+04  1.1648289353790875e+04  1.1648268049583370e+04  1.1648253962930372e+04  1.1648247057229657e+04  1.1648247313942344e+04  1.1648254732411293e+04  1.1648269329857145e+04  1.1648291141551914e+04  1.1648320221173713e+04  1.1648356641350145e+04  1.1648400494402013e+04  1.1648451893303503e+04  1.1648510972880378e+04  1.1648577891273493e+04  1.1648652831702233e+04  1.1648736004571027e+04  1.1648827649972345e+04  1.1648928040652601e+04  1.1649037485523169e+04  1.1649156333818897e+04  1.1649284980031884e+04  1.1649423869780747e+04  1.1649573506817758e+04  1.1649734461430688e+04  1.1649907380568244e+04  1.1650093000113362e+04  1.1650292159856492e+04  1.1650505821894645e+04  1.1650735093419935e+04  1.1650981255191846e+04  1.1651245797452782e+04  1.1651530465710723e+04  1.1651837319775883e+04  1.1652168810858268e+04  1.1652527883664025e+04  1.1652918113689175e+04  1.1653343895002343e+04  1.1653810701943690e+04  1.1654325461511236e+04  1.1654897095931696e+04  1.1655537336058263e+04  1.1656261986054598e+04  1.1657092962133140e+04  1.1658061432670753e+04  1.1659210087646830e+04  1.1660575527588677e+04  1.1662058189910784e+04  1.1662960702498796e+04  1.1554031150486126e+04  1.1553716499321014e+04  1.1553027331368727e+04  1.1552226360821787e+04  1.1551435241789124e+04  1.1550695241276031e+04  1.1550016192897192e+04  1.1549396766234908e+04  1.1548832007377425e+04  1.1548316154900984e+04  1.1547843683077639e+04  1.1547409648436882e+04  1.1547009757926429e+04  1.1546640330365874e+04  1.1546298223111307e+04  1.1545980753540685e+04  1.1545685626711451e+04  1.1545410872706289e+04  1.1545154793933863e+04  1.1544915921423388e+04  1.1544692978801755e+04  1.1544484852654605e+04  1.1544290568119990e+04  1.1544109268744027e+04  1.1543940199801087e+04  1.1543782694432339e+04  1.1543636162082195e+04  1.1543500078814801e+04  1.1543373979175014e+04  1.1543257449323950e+04  1.1543150121231671e+04  1.1543051667751239e+04  1.1542961798431588e+04  1.1542880255953454e+04  1.1542806813093803e+04  1.1542741270141692e+04  1.1542683452702347e+04  1.1542633209837779e+04  1.1542590412501646e+04  1.1542554952233966e+04  1.1542526740087520e+04  1.1542505705763868e+04  1.1542491796941014e+04  1.1542484978779443e+04  1.1542485233596673e+04  1.1542492560703926e+04  1.1542506976401715e+04  1.1542528514134236e+04  1.1542557224805447e+04  1.1542593177262943e+04  1.1542636458959130e+04  1.1542687176802696e+04  1.1542745458217694e+04  1.1542811452432001e+04  1.1542885332022493e+04  1.1542967294750581e+04  1.1543057565729374e+04  1.1543156399972790e+04  1.1543264085388186e+04  1.1543380946287440e+04  1.1543507347508090e+04  1.1543643699256711e+04  1.1543790462811980e+04  1.1543948157256676e+04  1.1544117367447012e+04  1.1544298753477024e+04  1.1544493061956511e+04  1.1544701139496954e+04  1.1544923948892194e+04  1.1545162588592191e+04  1.1545418316197036e+04  1.1545692576837822e+04  1.1545987037437393e+04  1.1546303627903300e+04  1.1546644590169268e+04  1.1547012535389817e+04  1.1547410507883802e+04  1.1547842050238192e+04  1.1548311254196286e+04  1.1548822759237473e+04  1.1549381607240517e+04  1.1549992733008727e+04  1.1550659565589822e+04  1.1551380587482034e+04  1.1552142053054933e+04  1.15529077