<?xml version="1.0"?>
<VTKFile type="UnstructuredGrid"  version="0.1"  >
<UnstructuredGrid>
<Piece  NumberOfPoints="21600" NumberOfCells="42542">
<Points>
<DataArray  type="Float64"  NumberOfComponents="3"  format="ascii">0 0 0  0.77 0 0  0.77 0.15 0  0 0.15 0  0.003221757322170014 0 0  0.006443514644340046 0 0  0.009665271966510193 0 0  0.01288702928868034 0 0  0.01610878661085048 0 0  0.01933054393302049 0 0  0.02255230125519027 0 0  0.02577405857735967 0 0  0.02899581589952872 0 0  0.03221757322169801 0 0  0.03543933054386744 0 0  0.03866108786603686 0 0  0.04188284518820627 0 0  0.0451046025103757 0 0  0.04832635983254521 0 0  0.05154811715471607 0 0  0.05476987447688695 0 0  0.05799163179905782 0 0  0.06121338912122846 0 0  0.06443514644339859 0 0  0.06765690376556875 0 0  0.0708786610877389 0 0  0.07410041840990904 0 0  0.0773221757320792 0 0  0.08054393305425039 0 0  0.08376569037642198 0 0  0.0869874476985936 0 0  0.09020920502076518 0 0  0.0934309623429339 0 0  0.0966527196651024 0 0  0.09987447698726967 0 0  0.1030962343094369 0 0  0.1063179916316041 0 0  0.1095397489537714 0 0  0.1127615062759386 0 0  0.1159832635981051 0 0  0.1192050209202709 0 0  0.1224267782424358 0 0  0.1256485355646001 0 0  0.1288702928867644 0 0  0.1320920502089288 0 0  0.1353138075310958 0 0  0.1385355648532632 0 0  0.1417573221754333 0 0  0.1449790794976035 0 0  0.1482008368197736 0 0  0.1514225941419428 0 0  0.1546443514641101 0 0  0.157866108786276 0 0  0.1610878661084403 0 0  0.1643096234306047 0 0  0.167531380752769 0 0  0.1707531380749333 0 0  0.1739748953970977 0 0  0.177196652719262 0 0  0.1804184100414264 0 0  0.1836401673635935 0 0  0.1868619246857611 0 0  0.1900836820079313 0 0  0.1933054393301014 0 0  0.1965271966522716 0 0  0.1997489539744406 0 0  0.2029707112966078 0 0  0.2061924686187736 0 0  0.209414225940938 0 0  0.2126359832631022 0 0  0.2158577405852666 0 0  0.219079497907431 0 0  0.2223012552295953 0 0  0.2255230125517597 0 0  0.2287447698739242 0 0  0.2319665271960914 0 0  0.2351882845182592 0 0  0.2384100418404293 0 0  0.2416317991625994 0 0  0.2448535564847696 0 0  0.2480753138069371 0 0  0.2512970711291014 0 0  0.2545188284512658 0 0  0.2577405857734302 0 0  0.2609623430955986 0 0  0.2641841004177688 0 0  0.2674058577399389 0 0  0.270627615062109 0 0  0.2738493723842792 0 0  0.2770711297064487 0 0  0.280292887028613 0 0  0.2835146443507774 0 0  0.2867364016729417 0 0  0.2899581589951061 0 0  0.2931799163172705 0 0  0.2964016736394348 0 0  0.2996234309615992 0 0  0.3028451882837672 0 0  0.3060669456059373 0 0  0.3092887029281075 0 0  0.3125104602502776 0 0  0.3157322175724478 0 0  0.3189539748946177 0 0  0.322175732216782 0 0  0.3253974895389464 0 0  0.3286192468611107 0 0  0.3318410041832751 0 0  0.3350627615054395 0 0  0.3382845188276038 0 0  0.3415062761497681 0 0  0.3447280334719325 0 0  0.3479497907940968 0 0  0.3511715481162612 0 0  0.3543933054384255 0 0  0.3576150627605947 0 0  0.3608368200827649 0 0  0.364058577404935 0 0  0.3672803347271051 0 0  0.3705020920492753 0 0  0.373723849371444 0 0  0.3769456066936084 0 0  0.3801673640157748 0 0  0.383389121337945 0 0  0.3866108786601209 0 0  0.3898326359823028 0 0  0.3930543933044846 0 0  0.3962761506266662 0 0  0.399497907948848 0 0  0.4027196652710298 0 0  0.4059414225932116 0 0  0.4091631799153934 0 0  0.4123849372375751 0 0  0.4156066945597569 0 0  0.4188284518819387 0 0  0.4220502092041222 0 0  0.4252719665263097 0 0  0.4284937238484974 0 0  0.4317154811706849 0 0  0.4349372384928725 0 0  0.4381589958150601 0 0  0.4413807531372476 0 0  0.4446025104594352 0 0  0.4478242677816181 0 0  0.4510460251037998 0 0  0.4542677824259815 0 0  0.4574895397481634 0 0  0.4607112970703451 0 0  0.4639330543925269 0 0  0.4671548117147087 0 0  0.4703765690368904 0 0  0.4735983263590722 0 0  0.4768200836812568 0 0  0.4800418410034444 0 0  0.483263598325632 0 0  0.4864853556478196 0 0  0.4897071129700028 0 0  0.4929288702921845 0 0  0.4961506276143663 0 0  0.4993723849365479 0 0  0.5025941422587239 0 0  0.5058158995809008 0 0  0.5090376569030826 0 0  0.5122594142252677 0 0  0.515481171547461 0 0  0.5187029288696494 0 0  0.5219246861918312 0 0  0.525146443514013 0 0  0.5283682008361947 0 0  0.5315899581583845 0 0  0.5348117154805778 0 0  0.5380334728027617 0 0  0.5412552301249435 0 0  0.5444769874471141 0 0  0.5476987447692853 0 0  0.550920502091467 0 0  0.5541422594136513 0 0  0.5573640167358447 0 0  0.560585774058034 0 0  0.5638075313802158 0 0  0.5670292887023975 0 0  0.5702510460245793 0 0  0.5734728033467682 0 0  0.5766945606689615 0 0  0.579916317991155 0 0  0.5831380753133483 0 0  0.5863598326355314 0 0  0.5895815899577131 0 0  0.5928033472798949 0 0  0.5960251046020785 0 0  0.5992468619242718 0 0  0.6024686192464619 0 0  0.6056903765686437 0 0  0.6089121338908206 0 0  0.6121338912129908 0 0  0.6153556485351673 0 0  0.618577405857349 0 0  0.6217991631795386 0 0  0.625020920501732 0 0  0.6282426778239159 0 0  0.6314644351460976 0 0  0.6346861924682795 0 0  0.6379079497904622 0 0  0.6411297071126555 0 0  0.6443514644348465 0 0  0.6475732217570283 0 0  0.650794979079206 0 0  0.6540167364013761 0 0  0.6572384937235518 0 0  0.6604602510457335 0 0  0.6636820083679225 0 0  0.6669037656901158 0 0  0.6701255230123004 0 0  0.6733472803344823 0 0  0.6765690376566641 0 0  0.6797907949788459 0 0  0.6830125523010393 0 0  0.686234309623231 0 0  0.6894560669454127 0 0  0.6926778242675914 0 0  0.6958995815897615 0 0  0.6991213389119363 0 0  0.7023430962341181 0 0  0.7055648535563062 0 0  0.7087866108784994 0 0  0.712008368200685 0 0  0.7152301255228668 0 0  0.7184518828450486 0 0  0.7216736401672305 0 0  0.724895397489423 0 0  0.7281171548116155 0 0  0.7313389121337973 0 0  0.7345606694559768 0 0  0.7377824267781468 0 0  0.7410041841003209 0 0  0.7442259414225026 0 0  0.7474476987446899 0 0  0.7506694560668832 0 0  0.7538912133890696 0 0  0.7571129707112513 0 0  0.760334728033433 0 0  0.7635564853556149 0 0  0.7667782426778067 0 0  0.77 0.001685393258423789 0  0.77 0.003370786516847669 0  0.77 0.005056179775271247 0  0.77 0.006741573033694517 0  0.77 0.008426966292117821 0  0.77 0.01011235955054176 0  0.77 0.01179775280896623 0  0.77 0.0134831460673904 0  0.77 0.01516853932581489 0  0.77 0.01685393258423891 0  0.77 0.01853932584266291 0  0.77 0.02022471910108589 0  0.77 0.02191011235950794 0  0.77 0.02359550561792999 0  0.77 0.02528089887635205 0  0.77 0.02696629213477411 0  0.77 0.02865168539319714 0  0.77 0.03033707865161956 0  0.77 0.03202247191004162 0  0.77 0.03370786516846367 0  0.77 0.03539325842688572 0  0.77 0.03707865168530778 0  0.77 0.03876404494372984 0  0.77 0.0404494382021519 0  0.77 0.04213483146057394 0  0.77 0.04382022471899601 0  0.77 0.04550561797741807 0  0.77 0.04719101123584013 0  0.77 0.04887640449426219 0  0.77 0.05056179775268425 0  0.77 0.0522471910111063 0  0.77 0.05393258426952837 0  0.77 0.05561797752795105 0  0.77 0.05730337078637505 0  0.77 0.05898876404479723 0  0.77 0.0606741573032193 0  0.77 0.06235955056164135 0  0.77 0.06404494382006341 0  0.77 0.06573033707848548 0  0.77 0.06741573033690752 0  0.77 0.06910112359532959 0  0.77 0.07078651685375165 0  0.77 0.0724719101121737 0  0.77 0.07415730337059653 0  0.77 0.07584269662902443 0  0.77 0.07752808988745429 0  0.77 0.07921348314588413 0  0.77 0.08089887640431678 0  0.77 0.08258426966274923 0  0.77 0.08426966292117907 0  0.77 0.08595505617960987 0  0.77 0.08764044943804362 0  0.77 0.08932584269647403 0  0.77 0.09101123595490389 0  0.77 0.09269662921333673 0  0.77 0.09438202247176901 0  0.77 0.09606741573019884 0  0.77 0.09775280898862983 0  0.77 0.09943820224706355 0  0.77 0.1011235955054938 0  0.77 0.1028089887639236 0  0.77 0.1044943820223567 0  0.77 0.1061797752807888 0  0.77 0.1078651685392186 0  0.77 0.1095505617976498 0  0.77 0.1112359550560835 0  0.77 0.1129213483145136 0  0.77 0.1146067415729456 0  0.77 0.1162921348313787 0  0.77 0.1179775280898085 0  0.77 0.1196629213482387 0  0.77 0.1213483146066724 0  0.77 0.1230337078651035 0  0.77 0.1247191011235322 0  0.77 0.1264044943819605 0  0.77 0.1280898876403903 0  0.77 0.1297752808988242 0  0.77 0.1314606741572554 0  0.77 0.1331460674156853 0  0.77 0.1348314606741154 0  0.77 0.1365168539325504 0  0.77 0.1382022471909802 0  0.77 0.13988764044941 0  0.77 0.1415730337078443 0  0.77 0.1432584269662752 0  0.77 0.144943820224705 0  0.77 0.1466292134831355 0  0.77 0.1483146067415701 0  0.7667782426778414 0.15 0  0.7635564853556813 0.15 0  0.7603347280335111 0.15 0  0.757112970711341 0.15 0  0.7538912133891708 0.15 0  0.7506694560670005 0.15 0  0.7474476987448303 0.15 0  0.7442259414226602 0.15 0  0.74100418410049 0.15 0  0.7377824267783197 0.15 0  0.7345606694561496 0.15 0  0.7313389121339794 0.15 0  0.7281171548118092 0.15 0  0.724895397489639 0.15 0  0.7216736401674688 0.15 0  0.7184518828452986 0.15 0  0.7152301255231284 0.15 0  0.7120083682009583 0.15 0  0.708786610878788 0.15 0  0.7055648535566178 0.15 0  0.7023430962344477 0.15 0  0.6991213389122775 0.15 0  0.6958995815901072 0.15 0  0.692677824267937 0.15 0  0.6894560669457669 0.15 0  0.6862343096235967 0.15 0  0.6830125523014264 0.15 0  0.6797907949792563 0.15 0  0.6765690376570861 0.15 0  0.6733472803349159 0.15 0  0.6701255230127456 0.15 0  0.6669037656905755 0.15 0  0.6636820083684053 0.15 0  0.6604602510462351 0.15 0  0.657238493724065 0.15 0  0.6540167364018947 0.15 0  0.6507949790797245 0.15 0  0.6475732217575543 0.15 0  0.644351464435384 0.15 0  0.6411297071132231 0.15 0  0.6379079497910645 0.15 0  0.634686192468906 0.15 0  0.6314644351467468 0.15 0  0.6282426778245765 0.15 0  0.6250209205024085 0.15 0  0.62179916318025 0.15 0  0.6185774058580914 0.15 0  0.6153556485359328 0.15 0  0.6121338912137689 0.15 0  0.6089121338915987 0.15 0  0.6056903765694354 0.15 0  0.6024686192472768 0.15 0  0.5992468619251182 0.15 0  0.5960251046029597 0.15 0  0.5928033472807912 0.15 0  0.589581589958621 0.15 0  0.5863598326364508 0.15 0  0.5831380753142792 0.15 0  0.5799163179920974 0.15 0  0.57669456
[...]
<PointData  Scalars="pressure"> 
<DataArray  type="Float64"  Name="pressure"  format="ascii">1.3377739283965828e+04  4.0549111079927014e-01  -3.0042995950900525e-01  1.3363355143604433e+04  1.3239129796044464e+04  1.3130398158774418e+04  1.3022638187188679e+04  1.2915202671928775e+04  1.2808135208886721e+04  1.2701301354952580e+04  1.2594624135283490e+04  1.2488059357068725e+04  1.2381578514988716e+04  1.2275162158335112e+04  1.2168796467558177e+04  1.2062471294096518e+04  1.1956178983235599e+04  1.1849913633593409e+04  1.1743670612302041e+04  1.1637446226768461e+04  1.1531237495968111e+04  1.1425041987068676e+04  1.1318857696148791e+04  1.1212682959417987e+04  1.1106516385999408e+04  1.1000356806255571e+04  1.0894203231515958e+04  1.0788054822302145e+04  1.0681910862977882e+04  1.0575770741321488e+04  1.0469633931914585e+04  1.0363499982522673e+04  1.0257368502844842e+04  1.0151239155156178e+04  1.0045111646475953e+04  9.9389857219733567e+03  9.8328611593849710e+03  9.7267377642631327e+03  9.6206153659102365e+03  9.5144938138812468e+03  9.4083729749579725e+03  9.3022527305153526e+03  9.1961329742132439e+03  9.0900136099572665e+03  8.9838945500808331e+03  8.8777757137063218e+03  8.7716570252492438e+03  8.6655384130312923e+03  8.5594198079731486e+03  8.4533011423371354e+03  8.3471823484926826e+03  8.2410633576760847e+03  8.1349440987155649e+03  8.0288244966905468e+03  7.9227044714902095e+03  7.8165839362323122e+03  7.7104627954957214e+03  7.6043409433117176e+03  7.4982182608467492e+03  7.3920946136930897e+03  7.2859698486622592e+03  7.1798437899473092e+03  7.0737162344794679e+03  6.9675869462528990e+03  6.8614556493149021e+03  6.7553220190177371e+03  6.6491856709809954e+03  6.5430461470059272e+03  6.4369028968803268e+03  6.3307552545660474e+03  6.2246024065898418e+03  6.1184433494262730e+03  6.0122768310546071e+03  5.9061012693239500e+03  5.7999146353982869e+03  5.6937142824894090e+03  5.5874966877999350e+03  5.4812570638668649e+03  5.3749887500719215e+03  5.2686820189461487e+03  5.1623215346781599e+03  5.0558835653868518e+03  4.9493401307198565e+03  4.8426421544814966e+03  4.7355158397357764e+03  4.6270517631547928e+03  4.5128676711220633e+03  3.2115489244394626e+03  3.1415823578667628e+03  3.0719601347176203e+03  3.0191758924737355e+03  3.0027739569331552e+03  2.9823419574739210e+03  2.9622163911217449e+03  2.9422012138688833e+03  2.9222285488345155e+03  2.9022820012386451e+03  2.8823525552111610e+03  2.8624348366188847e+03  2.8425255296782680e+03  2.8226224651049461e+03  2.8027241573966021e+03  2.7828295528712356e+03  2.7629378823704401e+03  2.7430485708111660e+03  2.7231611794016935e+03  2.7032753674712408e+03  2.6833908665265189e+03  2.6635074621775452e+03  2.6436249812697838e+03  2.6237432825448827e+03  2.6038622497446781e+03  2.5839817864394936e+03  2.5641018120945591e+03  2.5442222590393635e+03  2.5243430701051861e+03  2.5044641967632829e+03  2.4845855976431653e+03  2.4647072373425149e+03  2.4448290854632951e+03  2.4249511158250052e+03  2.4050733058179185e+03  2.3851956358681309e+03  2.3653180889922469e+03  2.3454406504248036e+03  2.3255633073049908e+03  2.3056860484119507e+03  2.2858088639403932e+03  2.2659317453095687e+03  2.2460546850001424e+03  2.2261776764144506e+03  2.2063007137564923e+03  2.1864237919285911e+03  2.1665469064422423e+03  2.1466700533410103e+03  2.1267932291337684e+03  2.1069164307368110e+03  2.0870396554234690e+03  2.0671629007803390e+03  2.0472861646691433e+03  2.0274094451934641e+03  2.0075327406697004e+03  1.9876560496017246e+03  1.9677793706585994e+03  1.9479027026552099e+03  1.9280260445352317e+03  1.9081493953561962e+03  1.8882727542763823e+03  1.8683961205433229e+03  1.8485194934836870e+03  1.8286428724943921e+03  1.8087662570347661e+03  1.7888896466196891e+03  1.7690130408135344e+03  1.7491364392247751e+03  1.7292598415013101e+03  1.7093832473262278e+03  1.6895066564141796e+03  1.6696300685081328e+03  1.6497534833765144e+03  1.6298769008105685e+03  1.6100003206221925e+03  1.5901237426419686e+03  1.5702471667173263e+03  1.5503705927111341e+03  1.5304940205001390e+03  1.5106174499737683e+03  1.4907408810331317e+03  1.4708643135899890e+03  1.4509877475660244e+03  1.4311111828920859e+03  1.4112346195073571e+03  1.3913580573590059e+03  1.3714814964014636e+03  1.3516049365961235e+03  1.3317283779110719e+03  1.3118518203205688e+03  1.2919752638049852e+03  1.2720987083504037e+03  1.2522221539484233e+03  1.2323456005961345e+03  1.2124690482959229e+03  1.1925924970555013e+03  1.1727159468878260e+03  1.1528393978110528e+03  1.1329628498486506e+03  1.1130863030292810e+03  1.0932097573870460e+03  1.0733332129615565e+03  1.0534566697980465e+03  1.0335801279477150e+03  1.0137035874677659e+03  9.9382704842164651e+02  9.7395051087941397e+02  9.5407397491794086e+02  9.3419744062144935e+02  9.1432090808182249e+02  8.9444437739913189e+02  8.7456784868217721e+02  8.5469132204890332e+02  8.3481479762722699e+02  8.1493827555578264e+02  7.9506175598473396e+02  7.7518523907696488e+02  7.5530872500906264e+02  7.3543221397261379e+02  7.1555570617588739e+02  6.9567920184550769e+02  6.7580270122878107e+02  6.5592620459617331e+02  6.3604971224439032e+02  6.1617322450008305e+02  5.9629674172411410e+02  5.7642026431709962e+02  5.5654379272604228e+02  5.3666732745243496e+02  5.1679086906266230e+02  4.9691441820056394e+02  4.7703797560344788e+02  4.5716154212269453e+02  4.3728511874978187e+02  4.1740870665038210e+02  3.9753230720866605e+02  3.7765592208591693e+02  3.5777955329906649e+02  3.3790320332701185e+02  3.1802687525745216e+02  2.9815057299268614e+02  2.7827430154382051e+02  2.5839806746144546e+02  2.3852187948173750e+02  2.1864574952605238e+02  1.9876969430327003e+02  1.7889373798772340e+02  1.5901791693641303e+02  1.3914228853881383e+02  1.1926694877005230e+02  9.9392071479942572e+01  7.9518050194431709e+01  5.9645945079607564e+01  3.9775655555290719e+01  1.9905395203274551e+01  8.4075680286962509e-02  4.3198869760447149e-03  9.2468856599922959e-04  5.6852755135053683e-04  3.2495017268577406e-04  1.9100649545182786e-04  1.1944333663955026e-04  7.8884040429648072e-05  5.4501139266231751e-05  3.9092549175110129e-05  2.8932728479452820e-05  2.1986490953992571e-05  1.7087852766764891e-05  1.3540004223892839e-05  1.0910676139195438e-05  8.9227177180637767e-06  7.3931769601204651e-06  6.1981234797834141e-06  5.2516564723743552e-06  4.4930006530410173e-06  3.8783589735701033e-06  3.3756427907536576e-06  2.9609877506034393e-06  2.6164040222696462e-06  2.3281625301850723e-06  2.0856681952560938e-06  1.8806611508019485e-06  1.7066425179793734e-06  1.5584563637766983e-06  1.4319816533357849e-06  1.3239028717797767e-06  1.2315374844411028e-06  1.1527049748134299e-06  1.0856266478154569e-06  1.0288484071046523e-06  9.8118087707948219e-07  9.4165276986864277e-07  9.0947443658822145e-07  8.8400936463199702e-07  8.6475194221844960e-07  8.5131022282298539e-07  8.4339276598011628e-07  8.4079886270475922e-07  8.4341161274720009e-07  8.5119351177329816e-07  8.6418434393545046e-07  8.8250119473671359e-07  9.0634059808921523e-07  9.3598287895155814e-07  9.7179882813991242e-07  1.0142589743032414e-06  1.0639458626387410e-06  1.1215698480415195e-06  1.1879890601149428e-06  1.2642345513466389e-06  1.3515417505074180e-06  1.4513898184966282e-06  1.5655509507577125e-06  1.6961523407705709e-06  1.8457542677569510e-06  2.0174490492998572e-06  2.2149870485032545e-06  2.4429379969957492e-06  2.7068988403231726e-06  3.0137632551607385e-06  3.3720732816336825e-06  3.7924813153152189e-06  4.2883610189336151e-06  4.8766202890498820e-06  5.5787895077050397e-06  6.4224855390997950e-06  7.4433877020842716e-06  8.6879067739167126e-06  1.0216776768239594e-05  1.2109834019277027e-05  1.4472217525891849e-05  1.7441994564923884e-05  2.1198465605704158e-05  2.5968449226148037e-05  3.2023932188809801e-05  3.9662951754306145e-05  4.9212749286930661e-05  6.1709232473762667e-05  9.1607458937053161e-05  3.6482722004446601e-04  3.3469963537226134e-03  2.3683373219698094e-02  1.3918325550993404e-02  1.9712063336429726e+01  3.9716790684985611e+01  5.9604592450637625e+01  7.9486587127348670e+01  9.9367113231727146e+01  1.1924633667469688e+02  1.3912479530717306e+02  1.5900278222117041e+02  1.7888045455515135e+02  1.9875790637847683e+02  2.1863519760163396e+02  2.3851236813293079e+02  2.5838944557363232e+02  2.7826644962111516e+02  2.9814339470928439e+02  3.1802029165787843e+02  3.3789714873895542e+02  3.5777397238733079e+02  3.7765076768624749e+02  3.9752753870699866e+02  4.1740428875124252e+02  4.3728102052699160e+02  4.5715773627847801e+02  4.7703443788337984e+02  4.9691112692654787e+02  5.1678780475658323e+02  5.3666447252971489e+02  5.5654113124417347e+02  5.7641778176736534e+02  5.9629442485752804e+02  6.1617106118113770e+02  6.3604769132699562e+02  6.5592431581771621e+02  6.7580093511914561e+02  6.9567754964814640e+02  7.1555415977906648e+02  7.3543076584913706e+02  7.5530736816301589e+02  7.7518396699662549e+02  7.9506056260035336e+02  8.1493715520199123e+02  8.3481374500899187e+02  8.5469033221054940e+02  8.7456691697944245e+02  8.9444349947338310e+02  9.1432007983654466e+02  9.3419665820081593e+02  9.5407323468667789e+02  9.7394980940421431e+02  9.9382638245386340e+02  1.0137029539270784e+03  1.0335795239071481e+03  1.0534560924696907e+03  1.0733326596831191e+03  1.0932092256091846e+03  1.1130857903032165e+03  1.1329623538146373e+03  1.1528389161872685e+03  1.1727154774596597e+03  1.1925920376651909e+03  1.2124685968324873e+03  1.2323451549855579e+03  1.2522217121440276e+03  1.2720982683233678e+03  1.2919748235349657e+03  1.3118513777862768e+03  1.3317279310810852e+03  1.3516044834195886e+03  1.3714810347985081e+03  1.3913575852113202e+03  1.4112341346482131e+03  1.4311106830963620e+03  1.4509872305402375e+03  1.4708637769615989e+03  1.4907403223397816e+03  1.5106168666519279e+03  1.5304934098731494e+03  1.5503699519770332e+03  1.5702464929360283e+03  1.5901230327217240e+03  1.6099995713054846e+03  1.6298761086589891e+03  1.6497526447549544e+03  1.6696291795681750e+03  1.6895057130763585e+03  1.7093822452613363e+03  1.7292587761104335e+03  1.7491353056181872e+03  1.7690118337881554e+03  1.7888883606351817e+03  1.8087648861879895e+03  1.8286414104922189e+03  1.8485179336139593e+03  1.8683944556438878e+03  1.8882709767019987e+03  1.9081474969431817e+03  1.9280240165637040e+03  1.9479005358086656e+03  1.9677770549806874e+03  1.9876535744499295e+03  2.0075300946658410e+03  2.0274066161705423e+03  2.0472831396144777e+03  2.0671596657744767e+03  2.0870361955746839e+03  2.1069127301107605e+03  2.1267892706779176e+03  2.1466658188033825e+03  2.1665423762840032e+03  2.1864189452298583e+03  2.2062955281148593e+03  2.2261721278354148e+03  2.2460487477787797e+03  2.2659253919025332e+03  2.2858020648272313e+03  2.3056787719446329e+03  2.3255555195443653e+03  2.3454323149625975e+03  2.3653091667567824e+03  2.3851860849119835e+03  2.4050630810851699e+03  2.4249401688956441e+03  2.4448173642719589e+03  2.4646946858681163e+03  2.4845721555658060e+03  2.5044497990841246e+03  2.5243276467246919e+03  2.5442057342889802e+03  2.5640841042167408e+03  2.5839628070112994e+03  2.6038419030411442e+03  2.6237214648410459e+03  2.6436015800847099e+03  2.6634823554728850e+03  2.6833639218876515e+03  2.7032464413268376e+03  2.7231301163855724e+03  2.7430152034538219e+03  2.7629020314529716e+03  2.7827910290291011e+03  2.8026827650079563e+03  2.8225780102854528e+03  2.8424778355711442e+03  2.8623837714830788e+03  2.8822980817877965e+03  2.9022242506649891e+03  2.9221679062867797e+03  2.9421387769360572e+03  2.9621537932488754e+03  2.9822277079461223e+03  3.0024189275449653e+03  3.0248655998413524e+03  3.0604206917775464e+03  3.1362288216117377e+03  4.4102458138331012e+03  4.5227393101736934e+03  4.6303308834201898e+03  4.7372423340411342e+03  4.8438354874652241e+03  4.9503012460537029e+03  5.0566771024047757e+03  5.1629884693562744e+03  5.2692550783608986e+03  5.3754895990959885e+03  5.4817001647940933e+03  5.5878923830467438e+03  5.6940702984852887e+03  5.8002368935786217e+03  5.9063944115112627e+03  6.0125445723306075e+03  6.1186887170968475e+03  6.2248279062222991e+03  6.3309629885135491e+03  6.4370946507081198e+03  6.5432234536605183e+03  6.6493498592185197e+03  6.7554742504968899e+03  6.8615969473912246e+03  6.9677182186049204e+03  7.0738382910897417e+03  7.1799573575421891e+03  7.2860755824213375e+03  7.3921931068334743e+03  7.4983100525357286e+03  7.6044265252543510e+03  7.7105426174636677e+03  7.8166584107383787e+03  7.9227739777714405e+03  8.0288893841255158e+03  8.1350046897757275e+03  8.2411199504922533e+03  8.3472352190994789e+03  8.4533505466485512e+03  8.5594659835306265e+03  8.6655815805589045e+03  8.7716973900452340e+03  8.8778134668927432e+03  8.9839298697313297e+03  9.0900466621199721e+03  9.1961639138404571e+03  9.3022817023142452e+03  9.4084001141710833e+03  9.5145192470046895e+03  9.6206392113585916e+03  9.7267601329859917e+03  9.8328821554425649e+03  9.9390054430763503e+03  1.0045130184494619e+04  1.0151256596605503e+04  1.0257384929349189e+04  1.0363515471266614e+04  1.0469648556086315e+04  1.0575784570555166e+04  1.0681923963805124e+04  1.0788067258623594e+04  1.0894215065105560e+04  1.1000368097318193e+04  1.1106527193805372e+04  1.1212693343050771e+04  1.1318867715415810e+04  1.1425051703647234e+04  1.1531246974895541e+04  1.1637455538438597e+04  1.1743679835223482e+04  1.1849922858318947e+04  1.1956188318136848e+04  1.2062480874142304e+04  1.2168806468156197e+04  1.2275172818075795e+04  1.2381590174822732e+04  1.2488072531451737e+04  1.2594639651289612e+04  1.2701320662041036e+04  1.2808161010533526e+04  1.2915238997893151e+04  1.3022699279067083e+04  1.3130680984016077e+04  1.3239914581523810e+04  1.3351005912954661e+04  1.3346036179401137e+04  1.3343552984333268e+04  1.3341898113151177e+04  1.3340621671543287e+04  1.3339578280518321e+04  1.3338698748245735e+04  1.3337941168069245e+04  1.3337277771372535e+04  1.3336689316780541e+04  1.3336161992438829e+04  1.3335685574287038e+04  1.3335252292301509e+04  1.3334856108378868e+04  1.3334492240564590e+04  1.3334156839759444e+04  1.3333846763998035e+04  1.3333559417074535e+04  1.3333292630748501e+04  1.3333044577167519e+04  1.3332813702683108e+04  1.3332598677098624e+04  1.3332398354237523e+04  1.3332211740943372e+04  1.3332037972447559e+04  1.3331876292607461e+04  1.3331726037913368e+04  1.3331586624443655e+04  1.3331457537149421e+04  1.3331338320997284e+04  1.3331228573607892e+04  1.3331127939108477e+04  1.3331036102979324e+04  1.3330952787720518e+04  1.3330877749201247e+04  1.3330810773581834e+04  1.3330751674720452e+04  1.3330700291994061e+04  1.3330656488476421e+04  1.3330620149427798e+04  1.3330591181059715e+04  1.3330569509545758e+04  1.3330555080256074e+04  1.3330547857198306e+04  1.3330547822652823e+04  1.3330554976994341e+04  1.3330569338696201e+04  1.3330590944517362e+04  1.3330619849876130e+04  1.3330656129418892e+04  1.3330699877796395e+04  1.3330751210664806e+04  1.3330810265934757e+04  1.3330877205297733e+04  1.3330952216066940e+04  1.3331035513379105e+04  1.3331127342815169e+04  1.3331227983511702e+04  1.3331337751852860e+04  1.3331457005854865e+04  1.3331586150383700e+04  1.3331725643383599e+04  1.3331876003341960e+04  1.3332037818279405e+04  1.3332211756637704e+04  1.3332398580550915e+04  1.3332599162138420e+04  1.3332814503668877e+04  1.3333045762738255e+04  1.3333294284020571e+04  1.3333561639746993e+04  1.3333849681942360e+04  1.3334160610749153e+04  1.3334497065147430e+04  1.3334862245459182e+04  1.3335260081941462e+04  1.3335695471849023e+04  1.3336174621053293e+04  1.3336705550445293e+04  1.3337298871454397e+04  1.3337969016664101e+04  1.3338736251294898e+04  1.3339629953692764e+04  1.3340693600057317e+04  1.3341992391701453e+04  1.3343644914209239e+04  1.3346104384007833e+04  1.3352182952830706e+04  1.3241163679927691e+04  1.3239207815862854e+04  1.3237340237327813e+04  1.3235870442439424e+04  1.3234686607966278e+04  1.3233699861558585e+04  1.3232856932435569e+04  1.3232123917999959e+04  1.3231477657282596e+04  1.3230901590880345e+04  1.3230383502920153e+04  1.3229914153648784e+04  1.3229486403473431e+04  1.3229094632200726e+04  1.3228734343363602e+04  1.3228401888064180e+04  1.3228094267987935e+04  1.3227808992106173e+04  1.3227543970574483e+04  1.3227297434909120e+04  1.3227067877060770e+04  1.3226854002300188e+04  1.3226654692349681e+04  1.3226468976219179e+04  1.3226296006909164e+04  1.3226135042633114e+04  1.3225985431559275e+04  1.3225846599320606e+04  1.3225718038722760e+04  1.3225599301212998e+04  1.3225489989771924e+04  1.3225389752964325e+04  1.3225298279941831e+04  1.3225215296233388e+04  1.3225140560192911e+04  1.3225073859999784e+04  1.3225015011128091e+04  1.3224963854217209e+04  1.3224920253289101e+04  1.3224884094268500e+04  1.3224855283770781e+04  1.3224833748129642e+04  1.3224819432642693e+04  1.3224812301018370e+04  1.3224812335012299e+04  1.3224819534245253e+04  1.3224833916198877e+04  1.3224855516389011e+04  1.3224884388720264e+04  1.3224920606029351e+04  1.3224964260828747e+04  1.3225015466267016e+04  1.3225074357327105e+04  1.3225141092290127e+04  1.3225215854499113e+04  1.3225298854465898e+04  1.3225390332374569e+04  1.3225490561047875e+04  1.3225599849458829e+04  1.3225718546889855e+04  1.3225847047867241e+04  1.3225985798031139e+04  1.3226135301143495e+04  1.3226296127490667e+04  1.3226468924009752e+04  1.3226654426562734e+04  1.3226853474910658e+04  1.3227067031113613e+04  1.3227296202320178e+04  1.3227542269240637e+04  1.3227806722063471e+04  1.3228091306238908e+04  1.3228398081516532e+04  1.3228729499043726e+04  1.3229088503462923e+04  1.3229478670206181e+04  1.3229904393278721e+04  1.3230371146958700e+04  1.3230885858184223e+04  1.3231457449124951e+04  1.3232097650580496e+04  1.3232822266665025e+04  1.3233653213546168e+04  1.3234621659561091e+04  1.3235770294654943e+04  1.3237135719325772e+04  1.3238618370961489e+04  1.3239520877422885e+04  1.3130603961817156e+04  1.3130289295394921e+04  1.3129600100857471e+04  1.3128799092437237e+04  1.3128007924334188e+04  1.3127267863671799e+04  1.3126588744208857e+04  1.3125969235697348e+04  1.3125404384420302e+04  1.3124888429173092e+04  1.3124415844470483e+04  1.3123981687107382e+04  1.3123581664318628e+04  1.3123212095231618e+04  1.3122869837529817e+04  1.3122552208936942e+04  1.3122256914873331e+04  1.3121981985800454e+04  1.3121725724520265e+04  1.3121486662468429e+04  1.3121263523690008e+04  1.3121055195199116e+04  1.3120860702571119e+04  1.3120679189796783e+04  1.3120509902601010e+04  1.3120352174579863e+04  1.3120205415635557e+04  1.3120069102291469e+04  1.3119942769551644e+04  1.3119826004034931e+04  1.3119718438166252e+04  1.3119619745249302e+04  1.3119529635278106e+04  1.3119447851371640e+04  1.3119374166737065e+04  1.3119308382084400e+04  1.3119250323429500e+04  1.3119199840233610e+04  1.3119156803837299e+04  1.3119121106154198e+04  1.3119092658596657e+04  1.3119071391210940e+04  1.3119057252004284e+04  1.3119050206450303e+04  1.3119050237163070e+04  1.3119057343733344e+04  1.3119071542723861e+04  1.3119092867823436e+04  1.3119121370162904e+04  1.3119157118798941e+04  1.3119200201375206e+04  1.3119250724973930e+04  1.3119308817175153e+04  1.3119374627345429e+04  1.3119448328183356e+04  1.3119530117555481e+04  1.3119620220663934e+04  1.3119718892596073e+04  1.3119826421317732e+04  1.3119943131184911e+04  1.3120069387065676e+04  1.3120205599184228e+04  1.3120352228824840e+04  1.3120509795064640e+04  1.3120678882743850e+04  1.3120860151931043e+04  1.3121054349202041e+04  1.3121262321126769e+04  1.3121485030450867e+04  1.3121723575570421e+04  1.3121979214026956e+04  1.3122253390889215e+04  1.3122547773014910e+04  1.3122864290244557e+04  1.3123205184443885e+04  1.3123573066699322e+04  1.3123970981262384e+04  1.3124402470654284e+04  1.3124871626554886e+04  1.3125383088383214e+04  1.3125941897961406e+04  1.3126552990040500e+04  1.3127219793620838e+04  1.3127940791158640e+04  1.3128702236987225e+04  1.31294678