<?xml version="1.0"?>
<VTKFile type="UnstructuredGrid"  version="0.1"  >
<UnstructuredGrid>
<Piece  NumberOfPoints="21600" NumberOfCells="42542">
<Points>
<DataArray  type="Float64"  NumberOfComponents="3"  format="ascii">0 0 0  0.77 0 0  0.77 0.15 0  0 0.15 0  0.003221757322170014 0 0  0.006443514644340046 0 0  0.009665271966510193 0 0  0.01288702928868034 0 0  0.01610878661085048 0 0  0.01933054393302049 0 0  0.02255230125519027 0 0  0.02577405857735967 0 0  0.02899581589952872 0 0  0.03221757322169801 0 0  0.03543933054386744 0 0  0.03866108786603686 0 0  0.04188284518820627 0 0  0.0451046025103757 0 0  0.04832635983254521 0 0  0.05154811715471607 0 0  0.05476987447688695 0 0  0.05799163179905782 0 0  0.06121338912122846 0 0  0.06443514644339859 0 0  0.06765690376556875 0 0  0.0708786610877389 0 0  0.07410041840990904 0 0  0.0773221757320792 0 0  0.08054393305425039 0 0  0.08376569037642198 0 0  0.0869874476985936 0 0  0.09020920502076518 0 0  0.0934309623429339 0 0  0.0966527196651024 0 0  0.09987447698726967 0 0  0.1030962343094369 0 0  0.1063179916316041 0 0  0.1095397489537714 0 0  0.1127615062759386 0 0  0.1159832635981051 0 0  0.1192050209202709 0 0  0.1224267782424358 0 0  0.1256485355646001 0 0  0.1288702928867644 0 0  0.1320920502089288 0 0  0.1353138075310958 0 0  0.1385355648532632 0 0  0.1417573221754333 0 0  0.1449790794976035 0 0  0.1482008368197736 0 0  0.1514225941419428 0 0  0.1546443514641101 0 0  0.157866108786276 0 0  0.1610878661084403 0 0  0.1643096234306047 0 0  0.167531380752769 0 0  0.1707531380749333 0 0  0.1739748953970977 0 0  0.177196652719262 0 0  0.1804184100414264 0 0  0.1836401673635935 0 0  0.1868619246857611 0 0  0.1900836820079313 0 0  0.1933054393301014 0 0  0.1965271966522716 0 0  0.1997489539744406 0 0  0.2029707112966078 0 0  0.2061924686187736 0 0  0.209414225940938 0 0  0.2126359832631022 0 0  0.2158577405852666 0 0  0.219079497907431 0 0  0.2223012552295953 0 0  0.2255230125517597 0 0  0.2287447698739242 0 0  0.2319665271960914 0 0  0.2351882845182592 0 0  0.2384100418404293 0 0  0.2416317991625994 0 0  0.2448535564847696 0 0  0.2480753138069371 0 0  0.2512970711291014 0 0  0.2545188284512658 0 0  0.2577405857734302 0 0  0.2609623430955986 0 0  0.2641841004177688 0 0  0.2674058577399389 0 0  0.270627615062109 0 0  0.2738493723842792 0 0  0.2770711297064487 0 0  0.280292887028613 0 0  0.2835146443507774 0 0  0.2867364016729417 0 0  0.2899581589951061 0 0  0.2931799163172705 0 0  0.2964016736394348 0 0  0.2996234309615992 0 0  0.3028451882837672 0 0  0.3060669456059373 0 0  0.3092887029281075 0 0  0.3125104602502776 0 0  0.3157322175724478 0 0  0.3189539748946177 0 0  0.322175732216782 0 0  0.3253974895389464 0 0  0.3286192468611107 0 0  0.3318410041832751 0 0  0.3350627615054395 0 0  0.3382845188276038 0 0  0.3415062761497681 0 0  0.3447280334719325 0 0  0.3479497907940968 0 0  0.3511715481162612 0 0  0.3543933054384255 0 0  0.3576150627605947 0 0  0.3608368200827649 0 0  0.364058577404935 0 0  0.3672803347271051 0 0  0.3705020920492753 0 0  0.373723849371444 0 0  0.3769456066936084 0 0  0.3801673640157748 0 0  0.383389121337945 0 0  0.3866108786601209 0 0  0.3898326359823028 0 0  0.3930543933044846 0 0  0.3962761506266662 0 0  0.399497907948848 0 0  0.4027196652710298 0 0  0.4059414225932116 0 0  0.4091631799153934 0 0  0.4123849372375751 0 0  0.4156066945597569 0 0  0.4188284518819387 0 0  0.4220502092041222 0 0  0.4252719665263097 0 0  0.4284937238484974 0 0  0.4317154811706849 0 0  0.4349372384928725 0 0  0.4381589958150601 0 0  0.4413807531372476 0 0  0.4446025104594352 0 0  0.4478242677816181 0 0  0.4510460251037998 0 0  0.4542677824259815 0 0  0.4574895397481634 0 0  0.4607112970703451 0 0  0.4639330543925269 0 0  0.4671548117147087 0 0  0.4703765690368904 0 0  0.4735983263590722 0 0  0.4768200836812568 0 0  0.4800418410034444 0 0  0.483263598325632 0 0  0.4864853556478196 0 0  0.4897071129700028 0 0  0.4929288702921845 0 0  0.4961506276143663 0 0  0.4993723849365479 0 0  0.5025941422587239 0 0  0.5058158995809008 0 0  0.5090376569030826 0 0  0.5122594142252677 0 0  0.515481171547461 0 0  0.5187029288696494 0 0  0.5219246861918312 0 0  0.525146443514013 0 0  0.5283682008361947 0 0  0.5315899581583845 0 0  0.5348117154805778 0 0  0.5380334728027617 0 0  0.5412552301249435 0 0  0.5444769874471141 0 0  0.5476987447692853 0 0  0.550920502091467 0 0  0.5541422594136513 0 0  0.5573640167358447 0 0  0.560585774058034 0 0  0.5638075313802158 0 0  0.5670292887023975 0 0  0.5702510460245793 0 0  0.5734728033467682 0 0  0.5766945606689615 0 0  0.579916317991155 0 0  0.5831380753133483 0 0  0.5863598326355314 0 0  0.5895815899577131 0 0  0.5928033472798949 0 0  0.5960251046020785 0 0  0.5992468619242718 0 0  0.6024686192464619 0 0  0.6056903765686437 0 0  0.6089121338908206 0 0  0.6121338912129908 0 0  0.6153556485351673 0 0  0.618577405857349 0 0  0.6217991631795386 0 0  0.625020920501732 0 0  0.6282426778239159 0 0  0.6314644351460976 0 0  0.6346861924682795 0 0  0.6379079497904622 0 0  0.6411297071126555 0 0  0.6443514644348465 0 0  0.6475732217570283 0 0  0.650794979079206 0 0  0.6540167364013761 0 0  0.6572384937235518 0 0  0.6604602510457335 0 0  0.6636820083679225 0 0  0.6669037656901158 0 0  0.6701255230123004 0 0  0.6733472803344823 0 0  0.6765690376566641 0 0  0.6797907949788459 0 0  0.6830125523010393 0 0  0.686234309623231 0 0  0.6894560669454127 0 0  0.6926778242675914 0 0  0.6958995815897615 0 0  0.6991213389119363 0 0  0.7023430962341181 0 0  0.7055648535563062 0 0  0.7087866108784994 0 0  0.712008368200685 0 0  0.7152301255228668 0 0  0.7184518828450486 0 0  0.7216736401672305 0 0  0.724895397489423 0 0  0.7281171548116155 0 0  0.7313389121337973 0 0  0.7345606694559768 0 0  0.7377824267781468 0 0  0.7410041841003209 0 0  0.7442259414225026 0 0  0.7474476987446899 0 0  0.7506694560668832 0 0  0.7538912133890696 0 0  0.7571129707112513 0 0  0.760334728033433 0 0  0.7635564853556149 0 0  0.7667782426778067 0 0  0.77 0.001685393258423789 0  0.77 0.003370786516847669 0  0.77 0.005056179775271247 0  0.77 0.006741573033694517 0  0.77 0.008426966292117821 0  0.77 0.01011235955054176 0  0.77 0.01179775280896623 0  0.77 0.0134831460673904 0  0.77 0.01516853932581489 0  0.77 0.01685393258423891 0  0.77 0.01853932584266291 0  0.77 0.02022471910108589 0  0.77 0.02191011235950794 0  0.77 0.02359550561792999 0  0.77 0.02528089887635205 0  0.77 0.02696629213477411 0  0.77 0.02865168539319714 0  0.77 0.03033707865161956 0  0.77 0.03202247191004162 0  0.77 0.03370786516846367 0  0.77 0.03539325842688572 0  0.77 0.03707865168530778 0  0.77 0.03876404494372984 0  0.77 0.0404494382021519 0  0.77 0.04213483146057394 0  0.77 0.04382022471899601 0  0.77 0.04550561797741807 0  0.77 0.04719101123584013 0  0.77 0.04887640449426219 0  0.77 0.05056179775268425 0  0.77 0.0522471910111063 0  0.77 0.05393258426952837 0  0.77 0.05561797752795105 0  0.77 0.05730337078637505 0  0.77 0.05898876404479723 0  0.77 0.0606741573032193 0  0.77 0.06235955056164135 0  0.77 0.06404494382006341 0  0.77 0.06573033707848548 0  0.77 0.06741573033690752 0  0.77 0.06910112359532959 0  0.77 0.07078651685375165 0  0.77 0.0724719101121737 0  0.77 0.07415730337059653 0  0.77 0.07584269662902443 0  0.77 0.07752808988745429 0  0.77 0.07921348314588413 0  0.77 0.08089887640431678 0  0.77 0.08258426966274923 0  0.77 0.08426966292117907 0  0.77 0.08595505617960987 0  0.77 0.08764044943804362 0  0.77 0.08932584269647403 0  0.77 0.09101123595490389 0  0.77 0.09269662921333673 0  0.77 0.09438202247176901 0  0.77 0.09606741573019884 0  0.77 0.09775280898862983 0  0.77 0.09943820224706355 0  0.77 0.1011235955054938 0  0.77 0.1028089887639236 0  0.77 0.1044943820223567 0  0.77 0.1061797752807888 0  0.77 0.1078651685392186 0  0.77 0.1095505617976498 0  0.77 0.1112359550560835 0  0.77 0.1129213483145136 0  0.77 0.1146067415729456 0  0.77 0.1162921348313787 0  0.77 0.1179775280898085 0  0.77 0.1196629213482387 0  0.77 0.1213483146066724 0  0.77 0.1230337078651035 0  0.77 0.1247191011235322 0  0.77 0.1264044943819605 0  0.77 0.1280898876403903 0  0.77 0.1297752808988242 0  0.77 0.1314606741572554 0  0.77 0.1331460674156853 0  0.77 0.1348314606741154 0  0.77 0.1365168539325504 0  0.77 0.1382022471909802 0  0.77 0.13988764044941 0  0.77 0.1415730337078443 0  0.77 0.1432584269662752 0  0.77 0.144943820224705 0  0.77 0.1466292134831355 0  0.77 0.1483146067415701 0  0.7667782426778414 0.15 0  0.7635564853556813 0.15 0  0.7603347280335111 0.15 0  0.757112970711341 0.15 0  0.7538912133891708 0.15 0  0.7506694560670005 0.15 0  0.7474476987448303 0.15 0  0.7442259414226602 0.15 0  0.74100418410049 0.15 0  0.7377824267783197 0.15 0  0.7345606694561496 0.15 0  0.7313389121339794 0.15 0  0.7281171548118092 0.15 0  0.724895397489639 0.15 0  0.7216736401674688 0.15 0  0.7184518828452986 0.15 0  0.7152301255231284 0.15 0  0.7120083682009583 0.15 0  0.708786610878788 0.15 0  0.7055648535566178 0.15 0  0.7023430962344477 0.15 0  0.6991213389122775 0.15 0  0.6958995815901072 0.15 0  0.692677824267937 0.15 0  0.6894560669457669 0.15 0  0.6862343096235967 0.15 0  0.6830125523014264 0.15 0  0.6797907949792563 0.15 0  0.6765690376570861 0.15 0  0.6733472803349159 0.15 0  0.6701255230127456 0.15 0  0.6669037656905755 0.15 0  0.6636820083684053 0.15 0  0.6604602510462351 0.15 0  0.657238493724065 0.15 0  0.6540167364018947 0.15 0  0.6507949790797245 0.15 0  0.6475732217575543 0.15 0  0.644351464435384 0.15 0  0.6411297071132231 0.15 0  0.6379079497910645 0.15 0  0.634686192468906 0.15 0  0.6314644351467468 0.15 0  0.6282426778245765 0.15 0  0.6250209205024085 0.15 0  0.62179916318025 0.15 0  0.6185774058580914 0.15 0  0.6153556485359328 0.15 0  0.6121338912137689 0.15 0  0.6089121338915987 0.15 0  0.6056903765694354 0.15 0  0.6024686192472768 0.15 0  0.5992468619251182 0.15 0  0.5960251046029597 0.15 0  0.5928033472807912 0.15 0  0.589581589958621 0.15 0  0.5863598326364508 0.15 0  0.5831380753142792 0.15 0  0.5799163179920974 0.15 0  0.57669456
[...]
<PointData  Scalars="pressure"> 
<DataArray  type="Float64"  Name="pressure"  format="ascii">1.2589454132950796e+04  4.0549110889484885e-01  -3.0042996094324870e-01  1.2575074225070593e+04  1.2450844640822677e+04  1.2342112986759048e+04  1.2234352986046169e+04  1.2126917429075360e+04  1.2019849911422099e+04  1.1913015989564903e+04  1.1806338688145905e+04  1.1699773813729569e+04  1.1593292860254120e+04  1.1486876376142576e+04  1.1380510540839501e+04  1.1274185204628242e+04  1.1167892711474911e+04  1.1061627158497273e+04  1.0955383911126988e+04  1.0849159274848069e+04  1.0742950266465050e+04  1.0636754450697403e+04  1.0530569820864797e+04  1.0424394710068706e+04  1.0318227723931190e+04  1.0212067688870449e+04  1.0105913611770897e+04  9.9997646481423690e+03  9.8936200766946931e+03  9.7874792788234172e+03  9.6813417218990544e+03  9.5752069455332967e+03  9.4690745501971815e+03  9.3629441877118679e+03  9.2568155532419751e+03  9.1506883784991951e+03  9.0445624259258966e+03  8.9384374836722236e+03  8.8323133612152451e+03  8.7261898854943847e+03  8.6200668974571345e+03  8.5139442489236080e+03  8.4078217996891508e+03  8.3016994147910864e+03  8.1955769618699669e+03  8.0894543085565110e+03  7.9833313198140449e+03  7.8772078551600480e+03  7.7710837656832528e+03  7.6649588907572370e+03  7.5588330543336733e+03  7.4527060606701352e+03  7.3465776893097654e+03  7.2404476890779479e+03  7.1343157707874498e+03  7.0281815982420949e+03  6.9220447769830162e+03  6.8159048400148286e+03  6.7097612294464525e+03  6.6036132725357102e+03  6.4974601499553692e+03  6.3913008530675570e+03  6.2851341253854680e+03  6.1789583808559792e+03  6.0727715872320550e+03  5.9665710947426724e+03  5.8603533779802319e+03  5.7541136471959453e+03  5.6478452397675292e+03  5.5415384264664790e+03  5.4351778699327906e+03  5.3287398369188049e+03  5.2221963458655373e+03  5.1154983195006516e+03  5.0083719598477701e+03  4.8999078424574946e+03  4.7857237116094484e+03  3.4103145604143970e+03  3.3403479735979204e+03  3.2707257313321634e+03  3.2179414752477519e+03  3.2015395359559129e+03  3.1811075322936890e+03  3.1609819623565181e+03  3.1409667820082909e+03  3.1209941142903149e+03  3.1010475643662103e+03  3.0811181163181345e+03  3.0612003959719545e+03  3.0412910875087982e+03  3.0213880216137300e+03  3.0014897127578301e+03  2.9815951072359871e+03  2.9617034358696569e+03  2.9418141235583089e+03  2.9219267314949611e+03  2.9020409189955394e+03  2.8821564175551284e+03  2.8622730127736409e+03  2.8423905314877193e+03  2.8225088324313087e+03  2.8026277993395038e+03  2.7827473357767390e+03  2.7628673612031198e+03  2.7429878079436080e+03  2.7231086188254926e+03  2.7032297453165320e+03  2.6833511460431605e+03  2.6634727856003374e+03  2.6435946335876069e+03  2.6237166638222916e+03  2.6038388536927819e+03  2.5839611836234503e+03  2.5640836366293397e+03  2.5442061979435193e+03  2.5243288547038414e+03  2.5044515956882233e+03  2.4845744110902151e+03  2.4646972923279682e+03  2.4448202318810995e+03  2.4249432231509350e+03  2.4050662603404221e+03  2.3851893383508768e+03  2.3653124526927745e+03  2.3454355994086714e+03  2.3255587750064497e+03  2.3056819764013144e+03  2.2858052008654822e+03  2.2659284459843993e+03  2.2460517096185827e+03  2.2261749898703415e+03  2.2062982850547437e+03  2.1864215936742112e+03  2.1665449143963342e+03  2.1466682460344009e+03  2.1267915875303811e+03  2.1069149379400260e+03  2.0870382964196988e+03  2.0671616622148804e+03  2.0472850346500513e+03  2.0274084131197951e+03  2.0075317970809622e+03  1.9876551860457980e+03  1.9677785795757836e+03  1.9479019772763379e+03  1.9280253787920738e+03  1.9081487838026194e+03  1.8882721920189072e+03  1.8683956031799205e+03  1.8485190170497945e+03  1.8286424334152559e+03  1.8087658520833397e+03  1.7888892728794060e+03  1.7690126956453614e+03  1.7491361202380392e+03  1.7292595465278321e+03  1.7093829743973768e+03  1.6895064037404939e+03  1.6696298344612076e+03  1.6497532664728849e+03  1.6298766996973577e+03  1.6100001340643173e+03  1.5901235695107202e+03  1.5702470059801713e+03  1.5503704434225920e+03  1.5304938817936220e+03  1.5106173210542549e+03  1.4907407611706078e+03  1.4708642021135468e+03  1.4509876438585600e+03  1.4311110863855283e+03  1.4112345296783603e+03  1.3913579737250702e+03  1.3714814185174264e+03  1.3516048640509880e+03  1.3317283103251355e+03  1.3118517573428182e+03  1.2919752051107353e+03  1.2720986536391490e+03  1.2522221029418874e+03  1.2323455530364918e+03  1.2124690039441773e+03  1.1925924556900081e+03  1.1727159083029424e+03  1.1528393618159018e+03  1.1329628162659910e+03  1.1130862716944728e+03  1.0932097281470988e+03  1.0733331856742614e+03  1.0534566443311721e+03  1.0335801041782747e+03  1.0137035652813388e+03  9.9382702771175286e+02  9.7395049154694436e+02  9.5407395687062194e+02  9.3419742377335865e+02  9.1432089235293301e+02  8.9444436271489872e+02  8.7456783497314905e+02  8.5469130925036598e+02  8.3481478567887416e+02  8.1493826440141061e+02  7.9506174557195573e+02  7.7518522935694955e+02  7.5530871593629183e+02  7.3543220550465514e+02  7.1555569827318595e+02  6.9567919447119027e+02  6.7580269434847810e+02  6.5592619817784828e+02  6.3604970625818623e+02  6.1617321891817778e+02  5.9629673652058511e+02  5.7642025946780041e+02  5.5654378820848547e+02  5.3666732324568579e+02  5.1679086514723872e+02  4.9691441455834308e+02  4.7703797221758049e+02  4.5716153897752548e+02  4.3728511583077523e+02  4.1740870394405346e+02  3.9753230470251805e+02  3.7765591976838124e+02  3.5777955115944894e+02  3.3790320135544243e+02  3.1802687344483871e+02  2.9815057133067182e+02  2.7827430002474455e+02  2.5839806607830769e+02  2.3852187822816543e+02  2.1864574839627147e+02  1.9876969329207665e+02  1.7889373709046083e+02  1.5901791614894961e+02  1.3914228785752368e+02  1.1926694819179795e+02  9.9392071002060575e+01  7.9518049814718751e+01  5.9645944796307539e+01  3.9775655367092185e+01  1.9905395109308223e+01  8.4075679895325911e-02  4.3198869493087785e-03  9.2468854540867092e-04  5.6852752247140131e-04  3.2495013503831252e-04  1.9100644855396190e-04  1.1944328025145883e-04  7.8883974469251504e-05  5.4501063744979624e-05  3.9092464145942347e-05  2.8932634022094805e-05  2.1986387176732809e-05  1.7087739788016051e-05  1.3539882181221205e-05  1.0910545179394153e-05  8.9225780116637230e-06  7.3930286767066318e-06  6.1979668072405931e-06  5.2514916059165883e-06  4.4928278046447946e-06  3.8781783566849822e-06  3.3754546390629617e-06  2.9607923011303465e-06  2.6162015191599009e-06  2.3279532294844682e-06  2.0854523647340478e-06  1.8804390570356863e-06  1.7064144438318633e-06  1.5582226005779486e-06  1.4317424954803518e-06  1.3236586202077610e-06  1.2312884477017349e-06  1.1524514651791924e-06  1.0853689897432446e-06  1.0285869197192210e-06  9.8091589378261858e-07  9.4138462278362640e-07  9.0920346495456588e-07  8.8373591054328009e-07  8.6447634754252800e-07  8.5103283094228219e-07  8.4311393224291746e-07  8.4051893700348884e-07  8.4313094302124288e-07  8.5091245188534503e-07  8.6390324899860476e-07  8.8222041181989944e-07  9.0606048503551166e-07  9.3570378561342175e-07  9.7152110182254536e-07  1.0139829654927331e-06  1.0636719195329597e-06  1.1212983077692246e-06  1.1877202636816769e-06  1.2639688378931876e-06  1.3512794500199795e-06  1.4511312569586357e-06  1.5652964595961850e-06  1.6959022289756621e-06  1.8455088487097427e-06  2.0172086290812908e-06  2.2147519333203567e-06  2.4427084749542711e-06  2.7066752014017685e-06  3.0135457753735489e-06  3.3718622291848611e-06  3.7922769586323734e-06  4.2881636082010602e-06  4.8764300738040491e-06  5.5786067221765910e-06  6.4223104165108286e-06  7.4432204571898939e-06  8.6877476198481043e-06  1.0216625895937804e-05  1.2109691624669044e-05  1.4472083780322152e-05  1.7441869649030456e-05  2.1198349675793627e-05  2.5968342425352057e-05  3.2023834658005493e-05  3.9662863624859771e-05  4.9212670677429381e-05  6.1709163497414841e-05  9.1607399769870303e-05  3.6482717193383639e-04  3.3469963294095757e-03  2.3683373298394345e-02  1.3918325601994401e-02  1.9712063429285635e+01  3.9716790872517734e+01  5.9604592733159372e+01  7.9486587506122902e+01  9.9367113708479863e+01  1.1924633725160299e+02  1.3912479598686764e+02  1.5900278300675970e+02  1.7888045545022632e+02  1.9875790738712891e+02  2.1863519872847343e+02  2.3851236938310777e+02  2.5838944695285943e+02  2.7826645113569373e+02  2.9814339636613300e+02  3.1802029346456379e+02  3.3789715070372625e+02  3.5777397451915544e+02  3.7765076999485359e+02  3.9752754120291758e+02  4.1740429144585585e+02  4.3728102343258200e+02  4.5715773940828518e+02  4.7703444125165822e+02  4.9691113054863069e+02  5.1678780864895111e+02  5.3666447671006802e+02  5.5654113573151039e+02  5.7641778658206692e+02  5.9629443002144683e+02  6.1617106671769409e+02  6.3604769726128006e+02  6.5592432217659893e+02  6.7580094193139269e+02  6.9567755694454547e+02  7.1555416759255775e+02  7.3543077421495582e+02  7.5530737711884228e+02  7.7518397658274512e+02  7.9506057285982581e+02  8.1493716618083329e+02  8.3481375675636684e+02  8.5469034477897196e+02  8.7456693042499251e+02  8.9444351385593563e+02  9.1432009522001135e+02  9.3419667465339728e+02  9.5407325228113655e+02  9.7394982821815643e+02  9.9382640257003720e+02  1.0137029754336895e+03  1.0335795468981867e+03  1.0534561170452805e+03  1.0733326859498752e+03  1.0932092536805910e+03  1.1130858203000173e+03  1.1329623858652428e+03  1.1528389504281743e+03  1.1727155140358805e+03  1.1925920767307034e+03  1.2124686385506814e+03  1.2323451995296964e+03  1.2522217596977075e+03  1.2720983190809807e+03  1.2919748777021530e+03  1.3118514355803732e+03  1.3317279927315415e+03  1.3516045491683687e+03  1.3714811049004500e+03  1.3913576599344426e+03  1.4112342142739617e+03  1.4311107679197714e+03  1.4509873208699960e+03  1.4708638731199837e+03  1.4907404246624465e+03  1.5106169754875023e+03  1.5304935255826206e+03  1.5503700749328577e+03  1.5702466235209345e+03  1.5901231713271327e+03  1.6099997183294868e+03  1.6298762645038039e+03  1.6497528098237733e+03  1.6696293542612752e+03  1.6895058977863816e+03  1.7093824403675696e+03  1.7292589819719487e+03  1.7491355225656266e+03  1.7690120621139624e+03  1.7888886005820088e+03  1.8087651379350025e+03  1.8286416741389532e+03  1.8485182091613422e+03  1.8683947429719733e+03  1.8882712755439043e+03  1.9081478068546323e+03  1.9280243368874851e+03  1.9479008656332055e+03  1.9677773930918459e+03  1.9876539192749449e+03  2.0075304442082136e+03  2.0274069679344527e+03  2.0472834905171105e+03  2.0671600120443773e+03  2.0870365326339688e+03  2.1069130524386633e+03  2.1267895716527464e+03  2.1466660905194917e+03  2.1665426093398246e+03  2.1864191284823733e+03  2.2062956483951375e+03  2.2261721696188906e+03  2.2460486928028508e+03  2.2659252187227471e+03  2.2858017483017193e+03  2.3056782826345193e+03  2.3255548230155409e+03  2.3454313709713488e+03  2.3653079282981998e+03  2.3851844971056762e+03  2.4050610798672560e+03  2.4249376794790332e+03  2.4448142993280699e+03  2.4646909433718597e+03  2.4845676162309855e+03  2.5044443232973704e+03  2.5243210708609422e+03  2.5441978662582633e+03  2.5640747180473568e+03  2.5839516362140348e+03  2.6038286324162218e+03  2.6237057202744295e+03  2.6435829157185758e+03  2.6634602374043175e+03  2.6833377072152944e+03  2.7032153508728825e+03  2.7230931986813580e+03  2.7429712864452713e+03  2.7628496566079129e+03  2.7827283596767320e+03  2.8026074560249431e+03  2.8224870181927372e+03  2.8423671338600830e+03  2.8622479097348905e+03  2.8821294767074396e+03  2.9020119967849623e+03  2.9218956725733533e+03  2.9417807604749296e+03  2.9616675894252198e+03  2.9815565880864319e+03  3.0014483253028188e+03  3.0213435719914787e+03  3.0412433988862904e+03  3.0611493366332134e+03  3.0810636490308343e+03  3.1009898202957279e+03  3.1209334786427589e+03  3.1409043524046406e+03  3.1609193722761233e+03  3.1809932910439497e+03  3.2011845153112076e+03  3.2236311935754920e+03  3.2591862959202876e+03  3.3349944487647622e+03  4.6831018435399546e+03  4.7955953786865202e+03  4.9031869923654440e+03  5.0100984870906650e+03  5.1166916891741384e+03  5.2231575019086185e+03  5.3295334188682864e+03  5.4358448539802848e+03  5.5421115399242144e+03  5.6483461477620367e+03  5.7545568122948962e+03  5.8607491428970043e+03  5.9669271862287351e+03  6.0730939270711897e+03  6.1792516112474377e+03  6.2854019618173261e+03  6.3915463232838047e+03  6.4976857599956356e+03  6.6038211252619967e+03  6.7099531109724257e+03  6.8160822838772438e+03  6.9222091125729867e+03  7.0283339879007608e+03  7.1344572386037571e+03  7.2405791435191632e+03  7.3466999412065697e+03  7.4528198376612399e+03  7.5589390125801519e+03  7.6650576245319189e+03  7.7711758152894035e+03  7.8772937135256025e+03  7.9834114380283154e+03  8.0895291005537429e+03  8.1956468084214848e+03  8.3017646669333953e+03  8.4078827816866924e+03  8.5140012608489196e+03  8.6201202174519422e+03  8.7262397717631447e+03  8.8323600537952152e+03  8.9384812060133718e+03  9.0446033863111061e+03  9.1507267713285055e+03  9.2568515602014613e+03  9.3629779788463675e+03  9.4691062849007994e+03  9.5752367734729924e+03  9.6813697838849548e+03  9.7875057076381599e+03  9.8936449978971632e+03  9.9997881808609582e+03  1.0105935869502624e+04  1.0212088780309687e+04  1.0318247753854175e+04  1.0424413780312492e+04  1.0530588031452438e+04  1.0636771901183378e+04  1.0742967057611353e+04  1.0849175510794508e+04  1.0955399702312359e+04  1.1061642625741928e+04  1.1167907991899632e+04  1.1274200460568951e+04  1.1380525973818110e+04  1.1486892249733562e+04  1.1593309539379119e+04  1.1699791835914091e+04  1.1806358902740258e+04  1.1913039867614447e+04  1.2019880177399065e+04  1.2126958133242566e+04  1.2234418390105533e+04  1.2342400077956963e+04  1.2451633665600446e+04  1.2562724993782802e+04  1.2557755257611170e+04  1.2555272057933913e+04  1.2553617180161591e+04  1.2552340729986294e+04  1.2551297328417499e+04  1.2550417783624855e+04  1.2549660188952234e+04  1.2548996775783664e+04  1.2548408302744723e+04  1.2547880957982008e+04  1.2547404517436706e+04  1.2546971211087362e+04  1.2546575000833524e+04  1.2546211104724507e+04  1.2545875673665972e+04  1.2545565565698575e+04  1.2545278184623881e+04  1.2545011362210342e+04  1.2544763270616075e+04  1.2544532356204951e+04  1.2544317288794646e+04  1.2544116922225065e+04  1.2543930263358499e+04  1.2543756447447562e+04  1.2543594718373377e+04  1.2543444412652827e+04  1.2543304946393684e+04  1.2543175804579514e+04  1.2543056532212568e+04  1.2542946726952388e+04  1.2542846032968499e+04  1.2542754135786956e+04  1.2542670757957199e+04  1.2542595655401408e+04  1.2542528614336603e+04  1.2542469448681453e+04  1.2542417997877150e+04  1.2542374125065533e+04  1.2542337715578764e+04  1.2542308675704013e+04  1.2542286931694354e+04  1.2542272429003089e+04  1.2542265131724693e+04  1.2542265022229927e+04  1.2542272100987395e+04  1.2542286386567694e+04  1.2542307915830239e+04  1.2542336744296894e+04  1.2542372946720516e+04  1.2542416617861043e+04  1.2542467873486366e+04  1.2542526851621173e+04  1.2542593714073082e+04  1.2542668648273277e+04  1.2542751869478074e+04  1.2542843623389324e+04  1.2542944189265552e+04  1.2543053883613640e+04  1.2543173064572971e+04  1.2543302137132876e+04  1.2543441559360755e+04  1.2543591849866709e+04  1.2543753596793264e+04  1.2543927468702946e+04  1.2544114227849133e+04  1.2544314746468715e+04  1.2544530026945755e+04  1.2544761226989176e+04  1.2545009691383169e+04  1.2545276992465993e+04  1.2545564982366162e+04  1.2545875861326125e+04  1.2546212268421888e+04  1.2546577404067082e+04  1.2546975198605836e+04  1.2547410549375103e+04  1.2547889662323436e+04  1.2548420558413631e+04  1.2549013849141278e+04  1.2549683967150289e+04  1.2550451177715649e+04  1.2551344859231684e+04  1.2552408487940080e+04  1.2553707265189329e+04  1.2555359776591242e+04  1.2557819238584823e+04  1.2563897802871501e+04  1.2452878525741500e+04  1.2450922666150214e+04  1.2449055095427679e+04  1.2447585311673740e+04  1.2446401491633729e+04  1.2445414762928780e+04  1.2444571854742419e+04  1.2443838864435178e+04  1.2443192630989352e+04  1.2442616594947111e+04  1.2442098540374718e+04  1.2441629227452462e+04  1.2441201516515468e+04  1.2440809787292947e+04  1.2440449543235281e+04  1.2440117135357188e+04  1.2439809565252139e+04  1.2439524341795108e+04  1.2439259375041329e+04  1.2439012896402992e+04  1.2438783397723291e+04  1.2438569584162384e+04  1.2438370337329196e+04  1.2438184686117838e+04  1.2438011783410846e+04  1.2437850887301962e+04  1.2437701345838233e+04  1.2437562584530306e+04  1.2437434096060721e+04  1.2437315431753133e+04  1.2437206194464421e+04  1.2437106032635787e+04  1.2437014635295769e+04  1.2436931727850970e+04  1.2436857068534053e+04  1.2436790445404458e+04  1.2436731673817965e+04  1.2436680594297504e+04  1.2436637070750690e+04  1.2436600988990249e+04  1.2436572255522120e+04  1.2436550796573298e+04  1.2436536557337617e+04  1.2436529501422858e+04  1.2436529610487227e+04  1.2436536884057467e+04  1.2436551339524689e+04  1.2436573012317802e+04  1.2436601956258177e+04  1.2436638244102996e+04  1.2436681968289035e+04  1.2436733241892938e+04  1.2436792199829604e+04  1.2436859000315910e+04  1.2436933826634457e+04  1.2437016889240431e+04  1.2437108428265012e+04  1.2437208716481691e+04  1.2437318062817832e+04  1.2437436816513695e+04  1.2437565372056803e+04  1.2437704175051855e+04  1.2437853729228478e+04  1.2438014604843800e+04  1.2438187448808547e+04  1.2438372996961101e+04  1.2438572089041520e+04  1.2438785687091358e+04  1.2439014898242956e+04  1.2439261003192480e+04  1.2439525492116269e+04  1.2439810110454227e+04  1.2440116917947256e+04  1.2440448365735541e+04  1.2440807398455656e+04  1.2441197591534969e+04  1.2441623338975038e+04  1.2442090115051253e+04  1.2442604846699709e+04  1.2443176456088659e+04  1.2443816674016829e+04  1.2444541304597886e+04  1.2445372263999241e+04  1.2446340720558064e+04  1.2447489364219658e+04  1.2448854795482706e+04  1.2450337451737312e+04  1.2451239960848450e+04  1.2342318790881955e+04  1.2342004128988374e+04  1.2341314942344085e+04  1.2340513945172448e+04  1.2339722791650465e+04  1.2338982748871755e+04  1.2338303650558664e+04  1.2337684166420269e+04  1.2337119342690265e+04  1.2336603418108449e+04  1.2336130867127953e+04  1.2335696746476147e+04  1.2335296763314675e+04  1.2334927236692316e+04  1.2334585024208713e+04  1.2334267443498824e+04  1.2333972199889578e+04  1.2333697323744676e+04  1.2333441117764192e+04  1.2333202113278177e+04  1.2332979034222619e+04  1.2332770767499422e+04  1.2332576338568935e+04  1.2332394891304453e+04  1.2332225671311278e+04  1.2332068012064070e+04  1.2331921323342189e+04  1.2331785081545047e+04  1.2331658821551948e+04  1.2331542129856536e+04  1.2331434638758434e+04  1.2331336021436218e+04  1.2331245987759310e+04  1.2331164280722913e+04  1.2331090673411516e+04  1.2331024966413881e+04  1.2330966985626263e+04  1.2330916580392253e+04  1.2330873621936938e+04  1.2330838002060873e+04  1.2330809632065973e+04  1.2330788441890894e+04  1.2330774379438270e+04  1.2330767410080311e+04  1.2330767516333011e+04  1.2330774697692526e+04  1.2330788970630569e+04  1.2330810368748618e+04  1.2330838943093950e+04  1.2330874762643496e+04  1.2330917914965052e+04  1.2330968507068883e+04  1.2331026666466987e+04  1.2331092542461785e+04  1.2331166307691627e+04  1.2331248159966661e+04  1.2331338324436414e+04  1.2331437056139386e+04  1.2331544642996188e+04  1.2331661409321172e+04  1.2331787719944205e+04  1.2331923985054627e+04  1.2332070665905067e+04  1.2332228281544085e+04  1.2332397416786276e+04  1.2332578731677357e+04  1.2332772972772947e+04  1.2332980986625209e+04  1.2333203735964369e+04  1.2333442319173195e+04  1.2333697993781891e+04  1.2333972204849686e+04  1.2334266619226395e+04  1.2334583166746139e+04  1.2334924089269540e+04  1.2335291997879083e+04  1.2335689936823330e+04  1.2336121448621390e+04  1.2336590624951770e+04  1.2337102105232698e+04  1.2337660931285969e+04  1.2338272037862651e+04  1.2338938853963351e+04  1.2339659862044760e+04  1.2340421316440779e+04  1.23411869