<?xml version="1.0"?>
<VTKFile type="UnstructuredGrid"  version="0.1"  >
<UnstructuredGrid>
<Piece  NumberOfPoints="21600" NumberOfCells="42542">
<Points>
<DataArray  type="Float64"  NumberOfComponents="3"  format="ascii">0 0 0  0.77 0 0  0.77 0.15 0  0 0.15 0  0.003221757322170014 0 0  0.006443514644340046 0 0  0.009665271966510193 0 0  0.01288702928868034 0 0  0.01610878661085048 0 0  0.01933054393302049 0 0  0.02255230125519027 0 0  0.02577405857735967 0 0  0.02899581589952872 0 0  0.03221757322169801 0 0  0.03543933054386744 0 0  0.03866108786603686 0 0  0.04188284518820627 0 0  0.0451046025103757 0 0  0.04832635983254521 0 0  0.05154811715471607 0 0  0.05476987447688695 0 0  0.05799163179905782 0 0  0.06121338912122846 0 0  0.06443514644339859 0 0  0.06765690376556875 0 0  0.0708786610877389 0 0  0.07410041840990904 0 0  0.0773221757320792 0 0  0.08054393305425039 0 0  0.08376569037642198 0 0  0.0869874476985936 0 0  0.09020920502076518 0 0  0.0934309623429339 0 0  0.0966527196651024 0 0  0.09987447698726967 0 0  0.1030962343094369 0 0  0.1063179916316041 0 0  0.1095397489537714 0 0  0.1127615062759386 0 0  0.1159832635981051 0 0  0.1192050209202709 0 0  0.1224267782424358 0 0  0.1256485355646001 0 0  0.1288702928867644 0 0  0.1320920502089288 0 0  0.1353138075310958 0 0  0.1385355648532632 0 0  0.1417573221754333 0 0  0.1449790794976035 0 0  0.1482008368197736 0 0  0.1514225941419428 0 0  0.1546443514641101 0 0  0.157866108786276 0 0  0.1610878661084403 0 0  0.1643096234306047 0 0  0.167531380752769 0 0  0.1707531380749333 0 0  0.1739748953970977 0 0  0.177196652719262 0 0  0.1804184100414264 0 0  0.1836401673635935 0 0  0.1868619246857611 0 0  0.1900836820079313 0 0  0.1933054393301014 0 0  0.1965271966522716 0 0  0.1997489539744406 0 0  0.2029707112966078 0 0  0.2061924686187736 0 0  0.209414225940938 0 0  0.2126359832631022 0 0  0.2158577405852666 0 0  0.219079497907431 0 0  0.2223012552295953 0 0  0.2255230125517597 0 0  0.2287447698739242 0 0  0.2319665271960914 0 0  0.2351882845182592 0 0  0.2384100418404293 0 0  0.2416317991625994 0 0  0.2448535564847696 0 0  0.2480753138069371 0 0  0.2512970711291014 0 0  0.2545188284512658 0 0  0.2577405857734302 0 0  0.2609623430955986 0 0  0.2641841004177688 0 0  0.2674058577399389 0 0  0.270627615062109 0 0  0.2738493723842792 0 0  0.2770711297064487 0 0  0.280292887028613 0 0  0.2835146443507774 0 0  0.2867364016729417 0 0  0.2899581589951061 0 0  0.2931799163172705 0 0  0.2964016736394348 0 0  0.2996234309615992 0 0  0.3028451882837672 0 0  0.3060669456059373 0 0  0.3092887029281075 0 0  0.3125104602502776 0 0  0.3157322175724478 0 0  0.3189539748946177 0 0  0.322175732216782 0 0  0.3253974895389464 0 0  0.3286192468611107 0 0  0.3318410041832751 0 0  0.3350627615054395 0 0  0.3382845188276038 0 0  0.3415062761497681 0 0  0.3447280334719325 0 0  0.3479497907940968 0 0  0.3511715481162612 0 0  0.3543933054384255 0 0  0.3576150627605947 0 0  0.3608368200827649 0 0  0.364058577404935 0 0  0.3672803347271051 0 0  0.3705020920492753 0 0  0.373723849371444 0 0  0.3769456066936084 0 0  0.3801673640157748 0 0  0.383389121337945 0 0  0.3866108786601209 0 0  0.3898326359823028 0 0  0.3930543933044846 0 0  0.3962761506266662 0 0  0.399497907948848 0 0  0.4027196652710298 0 0  0.4059414225932116 0 0  0.4091631799153934 0 0  0.4123849372375751 0 0  0.4156066945597569 0 0  0.4188284518819387 0 0  0.4220502092041222 0 0  0.4252719665263097 0 0  0.4284937238484974 0 0  0.4317154811706849 0 0  0.4349372384928725 0 0  0.4381589958150601 0 0  0.4413807531372476 0 0  0.4446025104594352 0 0  0.4478242677816181 0 0  0.4510460251037998 0 0  0.4542677824259815 0 0  0.4574895397481634 0 0  0.4607112970703451 0 0  0.4639330543925269 0 0  0.4671548117147087 0 0  0.4703765690368904 0 0  0.4735983263590722 0 0  0.4768200836812568 0 0  0.4800418410034444 0 0  0.483263598325632 0 0  0.4864853556478196 0 0  0.4897071129700028 0 0  0.4929288702921845 0 0  0.4961506276143663 0 0  0.4993723849365479 0 0  0.5025941422587239 0 0  0.5058158995809008 0 0  0.5090376569030826 0 0  0.5122594142252677 0 0  0.515481171547461 0 0  0.5187029288696494 0 0  0.5219246861918312 0 0  0.525146443514013 0 0  0.5283682008361947 0 0  0.5315899581583845 0 0  0.5348117154805778 0 0  0.5380334728027617 0 0  0.5412552301249435 0 0  0.5444769874471141 0 0  0.5476987447692853 0 0  0.550920502091467 0 0  0.5541422594136513 0 0  0.5573640167358447 0 0  0.560585774058034 0 0  0.5638075313802158 0 0  0.5670292887023975 0 0  0.5702510460245793 0 0  0.5734728033467682 0 0  0.5766945606689615 0 0  0.579916317991155 0 0  0.5831380753133483 0 0  0.5863598326355314 0 0  0.5895815899577131 0 0  0.5928033472798949 0 0  0.5960251046020785 0 0  0.5992468619242718 0 0  0.6024686192464619 0 0  0.6056903765686437 0 0  0.6089121338908206 0 0  0.6121338912129908 0 0  0.6153556485351673 0 0  0.618577405857349 0 0  0.6217991631795386 0 0  0.625020920501732 0 0  0.6282426778239159 0 0  0.6314644351460976 0 0  0.6346861924682795 0 0  0.6379079497904622 0 0  0.6411297071126555 0 0  0.6443514644348465 0 0  0.6475732217570283 0 0  0.650794979079206 0 0  0.6540167364013761 0 0  0.6572384937235518 0 0  0.6604602510457335 0 0  0.6636820083679225 0 0  0.6669037656901158 0 0  0.6701255230123004 0 0  0.6733472803344823 0 0  0.6765690376566641 0 0  0.6797907949788459 0 0  0.6830125523010393 0 0  0.686234309623231 0 0  0.6894560669454127 0 0  0.6926778242675914 0 0  0.6958995815897615 0 0  0.6991213389119363 0 0  0.7023430962341181 0 0  0.7055648535563062 0 0  0.7087866108784994 0 0  0.712008368200685 0 0  0.7152301255228668 0 0  0.7184518828450486 0 0  0.7216736401672305 0 0  0.724895397489423 0 0  0.7281171548116155 0 0  0.7313389121337973 0 0  0.7345606694559768 0 0  0.7377824267781468 0 0  0.7410041841003209 0 0  0.7442259414225026 0 0  0.7474476987446899 0 0  0.7506694560668832 0 0  0.7538912133890696 0 0  0.7571129707112513 0 0  0.760334728033433 0 0  0.7635564853556149 0 0  0.7667782426778067 0 0  0.77 0.001685393258423789 0  0.77 0.003370786516847669 0  0.77 0.005056179775271247 0  0.77 0.006741573033694517 0  0.77 0.008426966292117821 0  0.77 0.01011235955054176 0  0.77 0.01179775280896623 0  0.77 0.0134831460673904 0  0.77 0.01516853932581489 0  0.77 0.01685393258423891 0  0.77 0.01853932584266291 0  0.77 0.02022471910108589 0  0.77 0.02191011235950794 0  0.77 0.02359550561792999 0  0.77 0.02528089887635205 0  0.77 0.02696629213477411 0  0.77 0.02865168539319714 0  0.77 0.03033707865161956 0  0.77 0.03202247191004162 0  0.77 0.03370786516846367 0  0.77 0.03539325842688572 0  0.77 0.03707865168530778 0  0.77 0.03876404494372984 0  0.77 0.0404494382021519 0  0.77 0.04213483146057394 0  0.77 0.04382022471899601 0  0.77 0.04550561797741807 0  0.77 0.04719101123584013 0  0.77 0.04887640449426219 0  0.77 0.05056179775268425 0  0.77 0.0522471910111063 0  0.77 0.05393258426952837 0  0.77 0.05561797752795105 0  0.77 0.05730337078637505 0  0.77 0.05898876404479723 0  0.77 0.0606741573032193 0  0.77 0.06235955056164135 0  0.77 0.06404494382006341 0  0.77 0.06573033707848548 0  0.77 0.06741573033690752 0  0.77 0.06910112359532959 0  0.77 0.07078651685375165 0  0.77 0.0724719101121737 0  0.77 0.07415730337059653 0  0.77 0.07584269662902443 0  0.77 0.07752808988745429 0  0.77 0.07921348314588413 0  0.77 0.08089887640431678 0  0.77 0.08258426966274923 0  0.77 0.08426966292117907 0  0.77 0.08595505617960987 0  0.77 0.08764044943804362 0  0.77 0.08932584269647403 0  0.77 0.09101123595490389 0  0.77 0.09269662921333673 0  0.77 0.09438202247176901 0  0.77 0.09606741573019884 0  0.77 0.09775280898862983 0  0.77 0.09943820224706355 0  0.77 0.1011235955054938 0  0.77 0.1028089887639236 0  0.77 0.1044943820223567 0  0.77 0.1061797752807888 0  0.77 0.1078651685392186 0  0.77 0.1095505617976498 0  0.77 0.1112359550560835 0  0.77 0.1129213483145136 0  0.77 0.1146067415729456 0  0.77 0.1162921348313787 0  0.77 0.1179775280898085 0  0.77 0.1196629213482387 0  0.77 0.1213483146066724 0  0.77 0.1230337078651035 0  0.77 0.1247191011235322 0  0.77 0.1264044943819605 0  0.77 0.1280898876403903 0  0.77 0.1297752808988242 0  0.77 0.1314606741572554 0  0.77 0.1331460674156853 0  0.77 0.1348314606741154 0  0.77 0.1365168539325504 0  0.77 0.1382022471909802 0  0.77 0.13988764044941 0  0.77 0.1415730337078443 0  0.77 0.1432584269662752 0  0.77 0.144943820224705 0  0.77 0.1466292134831355 0  0.77 0.1483146067415701 0  0.7667782426778414 0.15 0  0.7635564853556813 0.15 0  0.7603347280335111 0.15 0  0.757112970711341 0.15 0  0.7538912133891708 0.15 0  0.7506694560670005 0.15 0  0.7474476987448303 0.15 0  0.7442259414226602 0.15 0  0.74100418410049 0.15 0  0.7377824267783197 0.15 0  0.7345606694561496 0.15 0  0.7313389121339794 0.15 0  0.7281171548118092 0.15 0  0.724895397489639 0.15 0  0.7216736401674688 0.15 0  0.7184518828452986 0.15 0  0.7152301255231284 0.15 0  0.7120083682009583 0.15 0  0.708786610878788 0.15 0  0.7055648535566178 0.15 0  0.7023430962344477 0.15 0  0.6991213389122775 0.15 0  0.6958995815901072 0.15 0  0.692677824267937 0.15 0  0.6894560669457669 0.15 0  0.6862343096235967 0.15 0  0.6830125523014264 0.15 0  0.6797907949792563 0.15 0  0.6765690376570861 0.15 0  0.6733472803349159 0.15 0  0.6701255230127456 0.15 0  0.6669037656905755 0.15 0  0.6636820083684053 0.15 0  0.6604602510462351 0.15 0  0.657238493724065 0.15 0  0.6540167364018947 0.15 0  0.6507949790797245 0.15 0  0.6475732217575543 0.15 0  0.644351464435384 0.15 0  0.6411297071132231 0.15 0  0.6379079497910645 0.15 0  0.634686192468906 0.15 0  0.6314644351467468 0.15 0  0.6282426778245765 0.15 0  0.6250209205024085 0.15 0  0.62179916318025 0.15 0  0.6185774058580914 0.15 0  0.6153556485359328 0.15 0  0.6121338912137689 0.15 0  0.6089121338915987 0.15 0  0.6056903765694354 0.15 0  0.6024686192472768 0.15 0  0.5992468619251182 0.15 0  0.5960251046029597 0.15 0  0.5928033472807912 0.15 0  0.589581589958621 0.15 0  0.5863598326364508 0.15 0  0.5831380753142792 0.15 0  0.5799163179920974 0.15 0  0.57669456
[...]
<PointData  Scalars="pressure"> 
<DataArray  type="Float64"  Name="pressure"  format="ascii">1.6057903151880668e+04  4.0549114584966389e-01  -3.0042993344169616e-01  1.6043515078290944e+04  1.5919293667363405e+04  1.5810562043678445e+04  1.5702802095630879e+04  1.5595366614025495e+04  1.5488299194953541e+04  1.5381465395562123e+04  1.5274788241328280e+04  1.5168223539827010e+04  1.5061742786193687e+04  1.4955326530248069e+04  1.4848960953046424e+04  1.4742635906716690e+04  1.4636343737323225e+04  1.4530078544359732e+04  1.4423835695939035e+04  1.4317611500563138e+04  1.4211402978427572e+04  1.4105207698057087e+04  1.3999023657038102e+04  1.3892849193254066e+04  1.3786682917685670e+04  1.3680523662756428e+04  1.3574370442082669e+04  1.3468222418724039e+04  1.3362078879862331e+04  1.3255939216406452e+04  1.3149802906418052e+04  1.3043669501534023e+04  1.2937538615763757e+04  1.2831409916185607e+04  1.2725283115176479e+04  1.2619157963887537e+04  1.2513034246741299e+04  1.2406911776770787e+04  1.2300790391657449e+04  1.2194669950352058e+04  1.2088550330184282e+04  1.1982431424383969e+04  1.1876313139950491e+04  1.1770195395817445e+04  1.1664078121268898e+04  1.1557961254570204e+04  1.1451844741782899e+04  1.1345728535736684e+04  1.1239612595137411e+04  1.1133496883791116e+04  1.1027381369928768e+04  1.0921266025617484e+04  1.0815150826246461e+04  1.0709035750077466e+04  1.0602920777850848e+04  1.0496805892439686e+04  1.0390691078545033e+04  1.0284576322426734e+04  1.0178461611664603e+04  1.0072346934945501e+04  9.9662322818721932e+03  9.8601176427910577e+03  9.7540030086343450e+03  9.6478883707754958e+03  9.5417737208935869e+03  9.4356590508454865e+03  9.3295443525428436e+03  9.2234296178319091e+03  9.1173148383740809e+03  9.0112000055249264e+03  8.9050851102096567e+03  8.7989701427926793e+03  8.6928550929388475e+03  8.5867399494639521e+03  8.4806247001715838e+03  8.3745093316732509e+03  8.2683938291885315e+03  8.1622781763206594e+03  8.0561623548038742e+03  7.9500463442163946e+03  7.8439301216537096e+03  7.7378136613542665e+03  7.6316969342696175e+03  7.5255799075690411e+03  7.4194625440659411e+03  7.3133448015526092e+03  7.2072266320247627e+03  7.1011079807753786e+03  6.9949887853317741e+03  6.8888689742038050e+03  6.7827484654035325e+03  6.6766271646861787e+03  6.5705049634513171e+03  6.4643817362234304e+03  6.3582573376111013e+03  6.2521315986135896e+03  6.1460043221038759e+03  6.0398752772629950e+03  5.9337441926667698e+03  5.8276107476210791e+03  5.7214745611973804e+03  5.6153351782108912e+03  5.5091920510811833e+03  5.4030445160685231e+03  5.2968917617066445e+03  5.1907327862232905e+03  5.0845663391293438e+03  4.9783908396123343e+03  4.8722042600061877e+03  4.7660039545458976e+03  4.6597864013292728e+03  4.5535468136773679e+03  4.4472785316591162e+03  4.3409718284090050e+03  4.2346113686464487e+03  4.1281734209590877e+03  4.0216300054085618e+03  3.9149320461684374e+03  3.8078057466594828e+03  3.6993416839379279e+03  3.5851576051061006e+03  2.5357460330535214e+03  2.4657794733936294e+03  2.3961572567875410e+03  2.3433730192961875e+03  2.3269710850612073e+03  2.3065390870862198e+03  2.2864135220292442e+03  2.2663983459269389e+03  2.2464256819256670e+03  2.2264791352653333e+03  2.2065496900929038e+03  2.1866319722900093e+03  2.1667226660861033e+03  2.1468196022083184e+03  2.1269212951645741e+03  2.1070266912820812e+03  2.0871350214107024e+03  2.0672457104749701e+03  2.0473583196900863e+03  2.0274725083916869e+03  2.0075880080924680e+03  1.9877046044081387e+03  1.9678221241895408e+03  1.9479404261835346e+03  1.9280593941370403e+03  1.9081789316254076e+03  1.8882989581188649e+03  1.8684194059519650e+03  1.8485402179610749e+03  1.8286613456226710e+03  1.8087827475716365e+03  1.7889043884112348e+03  1.7690262377492616e+03  1.7491482694112942e+03  1.7292704607940789e+03  1.7093927923304609e+03  1.6895152470441885e+03  1.6696378101773705e+03  1.6497604688772260e+03  1.6298832119313977e+03  1.6100060295436597e+03  1.5901289131429573e+03  1.5702518552202475e+03  1.5503748491889608e+03  1.5304978892648624e+03  1.5106209703627885e+03  1.4907440880076401e+03  1.4708672382572643e+03  1.4509904176358784e+03  1.4311136230761874e+03  1.4112368518689534e+03  1.3913601016195075e+03  1.3714833702094666e+03  1.3516066557636918e+03  1.3317299566214442e+03  1.3118532713109048e+03  1.2919765985272986e+03  1.2720999371133928e+03  1.2522232860425881e+03  1.2323466444042290e+03  1.2124700113905578e+03  1.1925933862854608e+03  1.1727167684544713e+03  1.1528401573360134e+03  1.1329635524338487e+03  1.1130869533102095e+03  1.0932103595801016e+03  1.0733337709061309e+03  1.0534571869939941e+03  1.0335806075887401e+03  1.0137040324712002e+03  9.9382746145503870e+02  9.7395089438429409e+02  9.5407433113108470e+02  9.3419777159392845e+02  9.1432121569608182e+02  8.9444466338432699e+02  8.7456811462795167e+02  8.5469156941778931e+02  8.3481502776581294e+02  8.1493848970478564e+02  7.9506195528808905e+02  7.7518542459004209e+02  7.5530889770610190e+02  7.3543237475345722e+02  7.1555585587208441e+02  6.9567934122585552e+02  6.7580283100435986e+02  6.5592632542492413e+02  6.3604982473528230e+02  6.1617332921691229e+02  5.9629683918896626e+02  5.7642035501351029e+02  5.5654387710188360e+02  5.3666740592255451e+02  5.1679094201129567e+02  4.9691448598354219e+02  4.7703803855021897e+02  4.5716160053817464e+02  4.3728517291604908e+02  4.1740875682822991e+02  3.9753235363902519e+02  3.7765596499115799e+02  3.5777959288419135e+02  3.3790323978074451e+02  3.1802690875323503e+02  2.9815060368958973e+02  2.7827432958737171e+02  2.5839809298438217e+02  2.3852190260469243e+02  2.1864577035817169e+02  1.9876971294277024e+02  1.7889375452239145e+02  1.5901793144405130e+02  1.3914230108763479e+02  1.1926695941902422e+02  9.9392080279092340e+01  7.9518057185113932e+01  5.9645950294766408e+01  3.9775659019517718e+01  1.9905396932866303e+01  8.4075687494358051e-02  4.3198874703233312e-03  9.2468895055293520e-04  5.6852809183801723e-04  3.2495087792008056e-04  1.9100737417032131e-04  1.1944439317926874e-04  7.8885276102370067e-05  5.4502553829061470e-05  3.9094141502443235e-05  2.8934496877496390e-05  2.1988433312471509e-05  1.7089966635923837e-05  1.3542286871265790e-05  1.0913124556330269e-05  8.9253286635760080e-06  7.3959469536807936e-06  6.2010488283933656e-06  5.2547332673839375e-06  4.4962247810236638e-06  3.8817261333096560e-06  3.3791484919520098e-06  2.9646273218048582e-06  2.6201726241748625e-06  2.3320551573314613e-06  2.0896796895877879e-06  1.8847862006622233e-06  1.7108756808999777e-06  1.5627920649571533e-06  1.4364141933555714e-06  1.3284264384932030e-06  1.2361461587118967e-06  1.1573927454417664e-06  1.0903874140882852e-06  1.0336759812338924e-06  9.8606901686363608e-07  9.4659515772985894e-07  9.1446471334830831e-07  8.8904112103890757e-07  8.6981873318503572e-07  8.5640558036655879e-07  8.4851020533258650e-07  8.4593188952490629e-07  8.4855373102126168e-07  8.5633823294027788e-07  8.6932519788161805e-07  8.8763173541735008e-07  9.1145441083157627e-07  9.4107359359561642e-07  9.7686011936907955e-07  1.0192845734310142e-06  1.0689295653162207e-06  1.1265055177195936e-06  1.1928706388601734e-06  1.2690560702701376e-06  1.3562973296299790e-06  1.4560736725902152e-06  1.5701574044732080e-06  1.7006758191499584e-06  1.8501893194024281e-06  2.0217903522879544e-06  2.2192293937243348e-06  2.4470763127044632e-06  2.7109281968024167e-06  3.0176788577844675e-06  3.3758704841743836e-06  3.7961556267421240e-06  4.2919081022109742e-06  4.8800359606297138e-06  5.5820697502873865e-06  6.4256265014043679e-06  7.4463856993494564e-06  8.6907582876366561e-06  1.0219478459703204e-05  1.2112382719695456e-05  1.4474610229746988e-05  1.7444228461223143e-05  2.1200538039800657e-05  2.5970357713342183e-05  3.2025674407553639e-05  3.9664525554893602e-05  4.9214152676488402e-05  6.1710463542080375e-05  9.1608514653378936e-05  3.6482807791714098e-04  3.3469967822456134e-03  2.3683371778929440e-02  1.3918324618524864e-02  1.9712061648332856e+01  3.9716787275850919e+01  5.9604587315064052e+01  7.9486580242832105e+01  9.9367104567508861e+01  1.1924632619204120e+02  1.3912478295917558e+02  1.5900276795258344e+02  1.7888043830216719e+02  1.9875788806846981e+02  2.1863517715286616e+02  2.3851234545421966e+02  2.5838942056398207e+02  2.7826642216930975e+02  2.9814336469344306e+02  3.1802025894497126e+02  3.3789711318427879e+02  3.5777393383394320e+02  3.7765072596436301e+02  3.9752749363333828e+02  4.1740424012834364e+02  4.3728096814247249e+02  4.5715767990426133e+02  4.7703437727487125e+02  4.9691106182177163e+02  5.1678773487527678e+02  5.3666439757238118e+02  5.5654105089109567e+02  5.7641769567758399e+02  5.9629433266778562e+02  6.1617096250479528e+02  6.3604758575292658e+02  6.5592420290918415e+02  6.7580081441267555e+02  6.9567742065240213e+02  7.1555402197374178e+02  7.3543061868388418e+02  7.5530721105642510e+02  7.7518379933528024e+02  7.9506038373798958e+02  8.1493696445879084e+02  8.3481354167105098e+02  8.5469011552956533e+02  8.7456668617267042e+02  8.9444325372393200e+02  9.1431981829407414e+02  9.3419637998272719e+02  9.5407293887989749e+02  9.7394949506768114e+02  9.9382604862185713e+02  1.0137025996135461e+03  1.0335791481112058e+03  1.0534556941825167e+03  1.0733322378964733e+03  1.0932087793258461e+03  1.1130853185496544e+03  1.1329618556562996e+03  1.1528383907469249e+03  1.1727149239392920e+03  1.1925914553720270e+03  1.2124679852098350e+03  1.2323445136492226e+03  1.2522210409252041e+03  1.2720975673190396e+03  1.2919740931670019e+03  1.3118506188705962e+03  1.3317271449084856e+03  1.3516036718500618e+03  1.3714802003711668e+03  1.3913567312723781e+03  1.4112332654998529e+03  1.4311098041697676e+03  1.4509863485965893e+03  1.4708629003254387e+03  1.4907394611698599e+03  1.5106160332554962e+03  1.5304926190706292e+03  1.5503692215251697e+03  1.5702458440190130e+03  1.5901224905214106e+03  1.6099991656638042e+03  1.6298758748480232e+03  1.6497526243730026e+03  1.6696294215836053e+03  1.6895062750453221e+03  1.7093831947506269e+03  1.7292601923633028e+03  1.7491372815090040e+03  1.7690144781220345e+03  1.7888918008616338e+03  1.8087692716142324e+03  1.8286469161031753e+03  1.8485247646338617e+03  1.8684028530110866e+03  1.8882812236774275e+03  1.9081599271385487e+03  1.9280390237648064e+03  1.9479185860923299e+03  1.9677987017957084e+03  1.9876794775759834e+03  2.0075610443150129e+03  2.0274435640097640e+03  2.0473272392538456e+03  2.0672123264349834e+03  2.0870991544715685e+03  2.1069881520057697e+03  2.1268798878584757e+03  2.1467751329196767e+03  2.1666749578917902e+03  2.1865808933843714e+03  2.2064952031539251e+03  2.2264213713682570e+03  2.2463650261855100e+03  2.2663358958720196e+03  2.2863509110441146e+03  2.3064248244004129e+03  2.3266160424286541e+03  2.3490627126831532e+03  2.3846178010258245e+03  2.4604259228964615e+03  3.4825357370886613e+03  3.5950292199382125e+03  3.7026207791035959e+03  3.8095322143450339e+03  3.9161253507860920e+03  4.0225910904659927e+03  4.1289669256464176e+03  4.2352782687888248e+03  4.3415448509217813e+03  4.4477793412441533e+03  4.5539898724463292e+03  4.6601820515045392e+03  4.7663599223500214e+03  4.8725264666532757e+03  4.9786839266886300e+03  5.0848340214636401e+03  5.1909780908507000e+03  5.2971171939051619e+03  5.4032521778814871e+03  5.5093837277429775e+03  5.6155124023140152e+03  5.7216386611191310e+03  5.8277628846147936e+03  5.9338853896539385e+03  6.0400064414576709e+03  6.1461262629916209e+03  6.2522450423887594e+03  6.3583629388839281e+03  6.4644800876011032e+03  6.5705966034477015e+03  6.6767125843064368e+03  6.7828281136690830e+03  6.8889432628240411e+03  6.9950580926825978e+03  7.1011726553120543e+03  7.2072869952283190e+03  7.3134011504909431e+03  7.4195151536327958e+03  7.5256290324530073e+03  7.6317428106955595e+03  7.7378565086301924e+03  7.8439701435535380e+03  7.9500837302201589e+03  8.0561972812147269e+03  8.1623108072754330e+03  8.2684243175739502e+03  8.3745378199602892e+03  8.4806513211780148e+03  8.5867648270514746e+03  8.6928783426537339e+03  8.7989918724543968e+03  8.9051054204526481e+03  9.0112189902996397e+03  9.1173325854090490e+03  9.2234462090623729e+03  9.3295598645080900e+03  9.4356735550569829e+03  9.5417872841773587e+03  9.6479010555899058e+03  9.7540148733659626e+03  9.8601287420303488e+03  9.9662426666700449e+03  1.0072356653053082e+04  1.0178470707756658e+04  1.0284584838309942e+04  1.0390699053353152e+04  1.0496813362814939e+04  1.0602927778114521e+04  1.0709042312389640e+04  1.0815156980755197e+04  1.0921271800599350e+04  1.1027386791919886e+04  1.1133501977710797e+04  1.1239617384404288e+04  1.1345733042378070e+04  1.1451848986539007e+04  1.1557965256992198e+04  1.1664081899811988e+04  1.1770198967930328e+04  1.1876316522159761e+04  1.1982434632376733e+04  1.2088553378888482e+04  1.2194672854014578e+04  1.2300793163922295e+04  1.2406914430756477e+04  1.2513036795120068e+04  1.2619160418967000e+04  1.2725285488985375e+04  1.2831412220566801e+04  1.2937540862475316e+04  1.3043671702362290e+04  1.3149805073307080e+04  1.3255941361607918e+04  1.3362081016114491e+04  1.3468224559468847e+04  1.3574372601732386e+04  1.3680525857028895e+04  1.3786685164030567e+04  1.3892851511405423e+04  1.3999026069741732e+04  1.4105210232044294e+04  1.4211405665743107e+04  1.4317614380408828e+04  1.4423838817287658e+04  1.4530081969747986e+04  1.4636347548496964e+04  1.4742640213286490e+04  1.4848965906212381e+04  1.4955332345432080e+04  1.5061749782110342e+04  1.5168232209526002e+04  1.5274799391209383e+04  1.5381480455046802e+04  1.5488320848024474e+04  1.5595398871403437e+04  1.5702859180241489e+04  1.5810840904584385e+04  1.5920074513258149e+04  1.6031165848361887e+04  1.6026196117767131e+04  1.6023712927906106e+04  1.6022058064162540e+04  1.6020781632214152e+04  1.6019738253060221e+04  1.6018858734859699e+04  1.6018101170943914e+04  1.6017437792682307e+04  1.6016849358683588e+04  1.6016322057075089e+04  1.6015845663776234e+04  1.6015412408741135e+04  1.6015016253842117e+04  1.6014652417098330e+04  1.6014317049382122e+04  1.6014007008697572e+04  1.6013719698806266e+04  1.6013452951432981e+04  1.6013204938688414e+04  1.6012974106885062e+04  1.6012759125785053e+04  1.6012558849168445e+04  1.6012372283833214e+04  1.6012198564963001e+04  1.6012036936365213e+04  1.6011886734477981e+04  1.6011747375325322e+04  1.6011618343801829e+04  1.6011499184815406e+04  1.6011389495925869e+04  1.6011288921197482e+04  1.6011197146045444e+04  1.6011113892902711e+04  1.6011038917569285e+04  1.6010972006134311e+04  1.6010912972382876e+04  1.6010861655616922e+04  1.6010817918833387e+04  1.6010781647213962e+04  1.6010752746889875e+04  1.6010731143952855e+04  1.6010716783689615e+04  1.6010709630022964e+04  1.6010709665147089e+04  1.6010716889349289e+04  1.6010731321014378e+04  1.6010752996811774e+04  1.6010781972069335e+04  1.6010818321342267e+04  1.6010862139189489e+04  1.6010913541174867e+04  1.6010972665116362e+04  1.6011039672612589e+04  1.6011114750883811e+04  1.6011198114973953e+04  1.6011290010371367e+04  1.6011390716120482e+04  1.6011500548513861e+04  1.6011619865476901e+04  1.6011749071785651e+04  1.6011888625295489e+04  1.6012039044406234e+04  1.6012200917052307e+04  1.6012374911590861e+04  1.6012561790073099e+04  1.6012762424537477e+04  1.6012977817173756e+04  1.6013209125501311e+04  1.6013457694119932e+04  1.6013725095189102e+04  1.6014013180664733e+04  1.6014324150623177e+04  1.6014660643981388e+04  1.6015025861001393e+04  1.6015423731883548e+04  1.6015859153829251e+04  1.6016338332660151e+04  1.6016869289221064e+04  1.6017462634898926e+04  1.6018132802238531e+04  1.6018900056425655e+04  1.6019793775775526e+04  1.6020857436461023e+04  1.6022156239772507e+04  1.6023808771276723e+04  1.6026268247395257e+04  1.6032346819890221e+04  1.5921327550408580e+04  1.5919371682724506e+04  1.5917504097867206e+04  1.5916034293964487e+04  1.5914850447799756e+04  1.5913863687041587e+04  1.5913020740931770e+04  1.5912287706899795e+04  1.5911641424007346e+04  1.5911065332886128e+04  1.5910547217701866e+04  1.5910077838743906e+04  1.5909650056465774e+04  1.5909258250724048e+04  1.5908897925105131e+04  1.5908565430768016e+04  1.5908257769458329e+04  1.5907972450210651e+04  1.5907707383246860e+04  1.5907460800152363e+04  1.5907231192949710e+04  1.5907017266984085e+04  1.5906817904054604e+04  1.5906632133250283e+04  1.5906459107652758e+04  1.5906298085558583e+04  1.5906148415220825e+04  1.5906009522358845e+04  1.5905880899866133e+04  1.5905762099279002e+04  1.5905652723668209e+04  1.5905552421689590e+04  1.5905460882586562e+04  1.5905377831980422e+04  1.5905303028317900e+04  1.5905236259871379e+04  1.5905177342208077e+04  1.5905126116060437e+04  1.5905082445543279e+04  1.5905046216673825e+04  1.5905017336159459e+04  1.5904995730425235e+04  1.5904981344859343e+04  1.5904974143259944e+04  1.5904974107471335e+04  1.5904981237201846e+04  1.5904995550019430e+04  1.5905017081524898e+04  1.5905045885706393e+04  1.5905082035482619e+04  1.5905125623446424e+04  1.5905176762825058e+04  1.5905235588678379e+04  1.5905302259362566e+04  1.5905376958293848e+04  1.5905459896055268e+04  1.5905551312900157e+04  1.5905651481718458e+04  1.5905760711548290e+04  1.5905879351735100e+04  1.5906007796866024e+04  1.5906146492639949e+04  1.5906295942875349e+04  1.5906456717912939e+04  1.5906629464741989e+04  1.5906814919274437e+04  1.5907013921319105e+04  1.5907227432981650e+04  1.5907456561454028e+04  1.5907702587487738e+04  1.5907967001310282e+04  1.5908251548408762e+04  1.5908558288567492e+04  1.5908889672966458e+04  1.5909248646278573e+04  1.5909638783964296e+04  1.5910064480055160e+04  1.5910531208853579e+04  1.5911045897319891e+04  1.5911617467643933e+04  1.5912257650643516e+04  1.5912982250449017e+04  1.5913813183242284e+04  1.5914781617372775e+04  1.5915930242795876e+04  1.5917295660017504e+04  1.5918778306429764e+04  1.5919680809893378e+04  1.5810767845849097e+04  1.5810453175771589e+04  1.5809763974861147e+04  1.5808962957354659e+04  1.5808171777466559e+04  1.5807431702339147e+04  1.5806752565754168e+04  1.5806133037490727e+04  1.5805568163863058e+04  1.5805052183701770e+04  1.5804579571560858e+04  1.5804145384278290e+04  1.5803745329135751e+04  1.5803375725311154e+04  1.5803033430542035e+04  1.5802715762609600e+04  1.5802420426994993e+04  1.5802145454223666e+04  1.5801889147164577e+04  1.5801650037323261e+04  1.5801426848817431e+04  1.5801218468736395e+04  1.5801023922733148e+04  1.5800842354878341e+04  1.5800673010978853e+04  1.5800515224714671e+04  1.5800368406073669e+04  1.5800232031666463e+04  1.5800105636585784e+04  1.5799988807540371e+04  1.5799881177046154e+04  1.5799782418498702e+04  1.5799692241984658e+04  1.5799610390716183e+04  1.5799536637994015e+04  1.5799470784621999e+04  1.5799412656709870e+04  1.5799362103812698e+04  1.5799318997364642e+04  1.5799283229372530e+04  1.5799254711341400e+04  1.5799233373409535e+04  1.5799219163675392e+04  1.5799212047702898e+04  1.5799212008195385e+04  1.5799219044831711e+04  1.5799233174261437e+04  1.5799254430258834e+04  1.5799282864038732e+04  1.5799318544740216e+04  1.5799361560087704e+04  1.5799412017242474e+04  1.5799470043861813e+04  1.5799535789387644e+04  1.5799609426592018e+04  1.5799691153412952e+04  1.5799781195122014e+04  1.5799879806873942e+04  1.5799987276699832e+04  1.5800103929018827e+04  1.5800230128759966e+04  1.5800366286206256e+04  1.5800512862698566e+04  1.5800670377368409e+04  1.5800839415108203e+04  1.5801020636036475e+04  1.5801214786776816e+04  1.5801422713944688e+04  1.5801645380329066e+04  1.5801883884367198e+04  1.5802139483639556e+04  1.5802413623251703e+04  1.5802707970095984e+04  1.5803024454045444e+04  1.5803365316996216e+04  1.5803733170063026e+04  1.5804131057523615e+04  1.5804562521923357e+04  1.5805031654964256e+04  1.5805543096085434e+04  1.5806101887127130e+04  1.5806712962856482e+04  1.5807379752287952e+04  1.5808100737889879e+04  1.5808862174005708e+04  1.58096278