<?xml version="1.0"?>
<VTKFile type="UnstructuredGrid"  version="0.1"  >
<UnstructuredGrid>
<Piece  NumberOfPoints="21600" NumberOfCells="42542">
<Points>
<DataArray  type="Float64"  NumberOfComponents="3"  format="ascii">0 0 0  0.77 0 0  0.77 0.15 0  0 0.15 0  0.003221757322170014 0 0  0.006443514644340046 0 0  0.009665271966510193 0 0  0.01288702928868034 0 0  0.01610878661085048 0 0  0.01933054393302049 0 0  0.02255230125519027 0 0  0.02577405857735967 0 0  0.02899581589952872 0 0  0.03221757322169801 0 0  0.03543933054386744 0 0  0.03866108786603686 0 0  0.04188284518820627 0 0  0.0451046025103757 0 0  0.04832635983254521 0 0  0.05154811715471607 0 0  0.05476987447688695 0 0  0.05799163179905782 0 0  0.06121338912122846 0 0  0.06443514644339859 0 0  0.06765690376556875 0 0  0.0708786610877389 0 0  0.07410041840990904 0 0  0.0773221757320792 0 0  0.08054393305425039 0 0  0.08376569037642198 0 0  0.0869874476985936 0 0  0.09020920502076518 0 0  0.0934309623429339 0 0  0.0966527196651024 0 0  0.09987447698726967 0 0  0.1030962343094369 0 0  0.1063179916316041 0 0  0.1095397489537714 0 0  0.1127615062759386 0 0  0.1159832635981051 0 0  0.1192050209202709 0 0  0.1224267782424358 0 0  0.1256485355646001 0 0  0.1288702928867644 0 0  0.1320920502089288 0 0  0.1353138075310958 0 0  0.1385355648532632 0 0  0.1417573221754333 0 0  0.1449790794976035 0 0  0.1482008368197736 0 0  0.1514225941419428 0 0  0.1546443514641101 0 0  0.157866108786276 0 0  0.1610878661084403 0 0  0.1643096234306047 0 0  0.167531380752769 0 0  0.1707531380749333 0 0  0.1739748953970977 0 0  0.177196652719262 0 0  0.1804184100414264 0 0  0.1836401673635935 0 0  0.1868619246857611 0 0  0.1900836820079313 0 0  0.1933054393301014 0 0  0.1965271966522716 0 0  0.1997489539744406 0 0  0.2029707112966078 0 0  0.2061924686187736 0 0  0.209414225940938 0 0  0.2126359832631022 0 0  0.2158577405852666 0 0  0.219079497907431 0 0  0.2223012552295953 0 0  0.2255230125517597 0 0  0.2287447698739242 0 0  0.2319665271960914 0 0  0.2351882845182592 0 0  0.2384100418404293 0 0  0.2416317991625994 0 0  0.2448535564847696 0 0  0.2480753138069371 0 0  0.2512970711291014 0 0  0.2545188284512658 0 0  0.2577405857734302 0 0  0.2609623430955986 0 0  0.2641841004177688 0 0  0.2674058577399389 0 0  0.270627615062109 0 0  0.2738493723842792 0 0  0.2770711297064487 0 0  0.280292887028613 0 0  0.2835146443507774 0 0  0.2867364016729417 0 0  0.2899581589951061 0 0  0.2931799163172705 0 0  0.2964016736394348 0 0  0.2996234309615992 0 0  0.3028451882837672 0 0  0.3060669456059373 0 0  0.3092887029281075 0 0  0.3125104602502776 0 0  0.3157322175724478 0 0  0.3189539748946177 0 0  0.322175732216782 0 0  0.3253974895389464 0 0  0.3286192468611107 0 0  0.3318410041832751 0 0  0.3350627615054395 0 0  0.3382845188276038 0 0  0.3415062761497681 0 0  0.3447280334719325 0 0  0.3479497907940968 0 0  0.3511715481162612 0 0  0.3543933054384255 0 0  0.3576150627605947 0 0  0.3608368200827649 0 0  0.364058577404935 0 0  0.3672803347271051 0 0  0.3705020920492753 0 0  0.373723849371444 0 0  0.3769456066936084 0 0  0.3801673640157748 0 0  0.383389121337945 0 0  0.3866108786601209 0 0  0.3898326359823028 0 0  0.3930543933044846 0 0  0.3962761506266662 0 0  0.399497907948848 0 0  0.4027196652710298 0 0  0.4059414225932116 0 0  0.4091631799153934 0 0  0.4123849372375751 0 0  0.4156066945597569 0 0  0.4188284518819387 0 0  0.4220502092041222 0 0  0.4252719665263097 0 0  0.4284937238484974 0 0  0.4317154811706849 0 0  0.4349372384928725 0 0  0.4381589958150601 0 0  0.4413807531372476 0 0  0.4446025104594352 0 0  0.4478242677816181 0 0  0.4510460251037998 0 0  0.4542677824259815 0 0  0.4574895397481634 0 0  0.4607112970703451 0 0  0.4639330543925269 0 0  0.4671548117147087 0 0  0.4703765690368904 0 0  0.4735983263590722 0 0  0.4768200836812568 0 0  0.4800418410034444 0 0  0.483263598325632 0 0  0.4864853556478196 0 0  0.4897071129700028 0 0  0.4929288702921845 0 0  0.4961506276143663 0 0  0.4993723849365479 0 0  0.5025941422587239 0 0  0.5058158995809008 0 0  0.5090376569030826 0 0  0.5122594142252677 0 0  0.515481171547461 0 0  0.5187029288696494 0 0  0.5219246861918312 0 0  0.525146443514013 0 0  0.5283682008361947 0 0  0.5315899581583845 0 0  0.5348117154805778 0 0  0.5380334728027617 0 0  0.5412552301249435 0 0  0.5444769874471141 0 0  0.5476987447692853 0 0  0.550920502091467 0 0  0.5541422594136513 0 0  0.5573640167358447 0 0  0.560585774058034 0 0  0.5638075313802158 0 0  0.5670292887023975 0 0  0.5702510460245793 0 0  0.5734728033467682 0 0  0.5766945606689615 0 0  0.579916317991155 0 0  0.5831380753133483 0 0  0.5863598326355314 0 0  0.5895815899577131 0 0  0.5928033472798949 0 0  0.5960251046020785 0 0  0.5992468619242718 0 0  0.6024686192464619 0 0  0.6056903765686437 0 0  0.6089121338908206 0 0  0.6121338912129908 0 0  0.6153556485351673 0 0  0.618577405857349 0 0  0.6217991631795386 0 0  0.625020920501732 0 0  0.6282426778239159 0 0  0.6314644351460976 0 0  0.6346861924682795 0 0  0.6379079497904622 0 0  0.6411297071126555 0 0  0.6443514644348465 0 0  0.6475732217570283 0 0  0.650794979079206 0 0  0.6540167364013761 0 0  0.6572384937235518 0 0  0.6604602510457335 0 0  0.6636820083679225 0 0  0.6669037656901158 0 0  0.6701255230123004 0 0  0.6733472803344823 0 0  0.6765690376566641 0 0  0.6797907949788459 0 0  0.6830125523010393 0 0  0.686234309623231 0 0  0.6894560669454127 0 0  0.6926778242675914 0 0  0.6958995815897615 0 0  0.6991213389119363 0 0  0.7023430962341181 0 0  0.7055648535563062 0 0  0.7087866108784994 0 0  0.712008368200685 0 0  0.7152301255228668 0 0  0.7184518828450486 0 0  0.7216736401672305 0 0  0.724895397489423 0 0  0.7281171548116155 0 0  0.7313389121337973 0 0  0.7345606694559768 0 0  0.7377824267781468 0 0  0.7410041841003209 0 0  0.7442259414225026 0 0  0.7474476987446899 0 0  0.7506694560668832 0 0  0.7538912133890696 0 0  0.7571129707112513 0 0  0.760334728033433 0 0  0.7635564853556149 0 0  0.7667782426778067 0 0  0.77 0.001685393258423789 0  0.77 0.003370786516847669 0  0.77 0.005056179775271247 0  0.77 0.006741573033694517 0  0.77 0.008426966292117821 0  0.77 0.01011235955054176 0  0.77 0.01179775280896623 0  0.77 0.0134831460673904 0  0.77 0.01516853932581489 0  0.77 0.01685393258423891 0  0.77 0.01853932584266291 0  0.77 0.02022471910108589 0  0.77 0.02191011235950794 0  0.77 0.02359550561792999 0  0.77 0.02528089887635205 0  0.77 0.02696629213477411 0  0.77 0.02865168539319714 0  0.77 0.03033707865161956 0  0.77 0.03202247191004162 0  0.77 0.03370786516846367 0  0.77 0.03539325842688572 0  0.77 0.03707865168530778 0  0.77 0.03876404494372984 0  0.77 0.0404494382021519 0  0.77 0.04213483146057394 0  0.77 0.04382022471899601 0  0.77 0.04550561797741807 0  0.77 0.04719101123584013 0  0.77 0.04887640449426219 0  0.77 0.05056179775268425 0  0.77 0.0522471910111063 0  0.77 0.05393258426952837 0  0.77 0.05561797752795105 0  0.77 0.05730337078637505 0  0.77 0.05898876404479723 0  0.77 0.0606741573032193 0  0.77 0.06235955056164135 0  0.77 0.06404494382006341 0  0.77 0.06573033707848548 0  0.77 0.06741573033690752 0  0.77 0.06910112359532959 0  0.77 0.07078651685375165 0  0.77 0.0724719101121737 0  0.77 0.07415730337059653 0  0.77 0.07584269662902443 0  0.77 0.07752808988745429 0  0.77 0.07921348314588413 0  0.77 0.08089887640431678 0  0.77 0.08258426966274923 0  0.77 0.08426966292117907 0  0.77 0.08595505617960987 0  0.77 0.08764044943804362 0  0.77 0.08932584269647403 0  0.77 0.09101123595490389 0  0.77 0.09269662921333673 0  0.77 0.09438202247176901 0  0.77 0.09606741573019884 0  0.77 0.09775280898862983 0  0.77 0.09943820224706355 0  0.77 0.1011235955054938 0  0.77 0.1028089887639236 0  0.77 0.1044943820223567 0  0.77 0.1061797752807888 0  0.77 0.1078651685392186 0  0.77 0.1095505617976498 0  0.77 0.1112359550560835 0  0.77 0.1129213483145136 0  0.77 0.1146067415729456 0  0.77 0.1162921348313787 0  0.77 0.1179775280898085 0  0.77 0.1196629213482387 0  0.77 0.1213483146066724 0  0.77 0.1230337078651035 0  0.77 0.1247191011235322 0  0.77 0.1264044943819605 0  0.77 0.1280898876403903 0  0.77 0.1297752808988242 0  0.77 0.1314606741572554 0  0.77 0.1331460674156853 0  0.77 0.1348314606741154 0  0.77 0.1365168539325504 0  0.77 0.1382022471909802 0  0.77 0.13988764044941 0  0.77 0.1415730337078443 0  0.77 0.1432584269662752 0  0.77 0.144943820224705 0  0.77 0.1466292134831355 0  0.77 0.1483146067415701 0  0.7667782426778414 0.15 0  0.7635564853556813 0.15 0  0.7603347280335111 0.15 0  0.757112970711341 0.15 0  0.7538912133891708 0.15 0  0.7506694560670005 0.15 0  0.7474476987448303 0.15 0  0.7442259414226602 0.15 0  0.74100418410049 0.15 0  0.7377824267783197 0.15 0  0.7345606694561496 0.15 0  0.7313389121339794 0.15 0  0.7281171548118092 0.15 0  0.724895397489639 0.15 0  0.7216736401674688 0.15 0  0.7184518828452986 0.15 0  0.7152301255231284 0.15 0  0.7120083682009583 0.15 0  0.708786610878788 0.15 0  0.7055648535566178 0.15 0  0.7023430962344477 0.15 0  0.6991213389122775 0.15 0  0.6958995815901072 0.15 0  0.692677824267937 0.15 0  0.6894560669457669 0.15 0  0.6862343096235967 0.15 0  0.6830125523014264 0.15 0  0.6797907949792563 0.15 0  0.6765690376570861 0.15 0  0.6733472803349159 0.15 0  0.6701255230127456 0.15 0  0.6669037656905755 0.15 0  0.6636820083684053 0.15 0  0.6604602510462351 0.15 0  0.657238493724065 0.15 0  0.6540167364018947 0.15 0  0.6507949790797245 0.15 0  0.6475732217575543 0.15 0  0.644351464435384 0.15 0  0.6411297071132231 0.15 0  0.6379079497910645 0.15 0  0.634686192468906 0.15 0  0.6314644351467468 0.15 0  0.6282426778245765 0.15 0  0.6250209205024085 0.15 0  0.62179916318025 0.15 0  0.6185774058580914 0.15 0  0.6153556485359328 0.15 0  0.6121338912137689 0.15 0  0.6089121338915987 0.15 0  0.6056903765694354 0.15 0  0.6024686192472768 0.15 0  0.5992468619251182 0.15 0  0.5960251046029597 0.15 0  0.5928033472807912 0.15 0  0.589581589958621 0.15 0  0.5863598326364508 0.15 0  0.5831380753142792 0.15 0  0.5799163179920974 0.15 0  0.57669456
[...]
<PointData  Scalars="pressure"> 
<DataArray  type="Float64"  Name="pressure"  format="ascii">1.7792125697901014e+04  4.0549128341734730e-01  -3.0042983684459662e-01  1.7777737285809064e+04  1.7653516213653947e+04  1.7544784591047366e+04  1.7437024644867026e+04  1.7329589165928650e+04  1.7222521750336411e+04  1.7115687955253907e+04  1.7009010806178623e+04  1.6902446110710051e+04  1.6795965364012220e+04  1.6689549115937887e+04  1.6583183547580793e+04  1.6476858511111081e+04  1.6370566352640217e+04  1.6264301171714169e+04  1.6158058336503495e+04  1.6051834155573697e+04  1.5945625649189895e+04  1.5839430385952925e+04  1.5733246363532175e+04  1.5627071919901460e+04  1.5520905666139688e+04  1.5414746434777031e+04  1.5308593239545506e+04  1.5202445243630153e+04  1.5096301734348621e+04  1.4990162102756900e+04  1.4884025827075886e+04  1.4777892459114793e+04  1.4671761613069524e+04  1.4565632956220274e+04  1.4459506201162427e+04  1.4353381099283648e+04  1.4247257435262572e+04  1.4141135022409660e+04  1.4035013698707004e+04  1.3928893323431308e+04  1.3822773774265803e+04  1.3716654944824042e+04  1.3610536742522116e+04  1.3504419086746466e+04  1.3398301907273604e+04  1.3292185142904822e+04  1.3186068740285362e+04  1.3079952652881189e+04  1.2973836840092341e+04  1.2867721266482878e+04  1.2761605901112314e+04  1.2655490716954255e+04  1.2549375690390667e+04  1.2443260800771726e+04  1.2337146030032256e+04  1.2231031362357684e+04  1.2124916783892493e+04  1.2018802282485945e+04  1.1912687847470021e+04  1.1806573469465407e+04  1.1700459140211748e+04  1.1594344852419426e+04  1.1488230599639153e+04  1.1382116376148173e+04  1.1276002176849704e+04  1.1169887997184846e+04  1.1063773833054578e+04  1.0957659680750854e+04  1.0851545536895397e+04  1.0745431398385052e+04  1.0639317262342842e+04  1.0533203126073729e+04  1.0427088987024346e+04  1.0320974842746013e+04  1.0214860690860407e+04  1.0108746529027198e+04  1.0002632354913498e+04  9.8965181661638362e+03  9.7904039603711062e+03  9.6842897350471485e+03  9.5781754875932238e+03  9.4720612152692029e+03  9.3659469151615303e+03  9.2598325841494661e+03  9.1537182188684110e+03  9.0476038156707218e+03  8.9414893705822924e+03  8.8353748792548176e+03  8.7292603369130120e+03  8.6231457382956760e+03  8.5170310775896942e+03  8.4109163483552657e+03  8.3048015434425124e+03  8.1986866548963662e+03  8.0925716738488927e+03  7.9864565903968214e+03  7.8803413934620721e+03  7.7742260706324323e+03  7.6681106079798492e+03  7.5619949898517971e+03  7.4558791986320912e+03  7.3497632144660975e+03  7.2436470149443276e+03  7.1375305747376296e+03  7.0314138651748190e+03  6.9252968537546003e+03  6.8191795035780906e+03  6.7130617726885739e+03  6.6069436133009167e+03  6.5008249708994726e+03  6.3947057831786587e+03  6.2885859787942200e+03  6.1824654758854986e+03  6.0763441803191827e+03  5.9702219835919113e+03  5.8640987603132417e+03  5.7579743651660419e+03  5.6518486292144999e+03  5.5457213553883794e+03  5.4395923129185958e+03  5.3334612304245393e+03  5.2273277872500094e+03  5.1211916024998900e+03  5.0150522210187910e+03  4.9089090952521783e+03  4.8027615614832166e+03  4.6966088082660599e+03  4.5904498338463754e+03  4.4842833877510366e+03  4.3781078891818570e+03  4.2719213104855999e+03  4.1657210059088829e+03  4.0595034535600944e+03  3.9532638667700035e+03  3.8469955856165006e+03  3.7406888832424424e+03  3.6343284243755688e+03  3.5278904776111808e+03  3.4213470630184402e+03  3.3146491047785571e+03  3.2075228063223039e+03  3.0990587447237212e+03  2.9848746671428030e+03  2.0984618383181896e+03  2.0284952795190220e+03  1.9588730638165657e+03  1.9060888270591759e+03  1.8896868931047984e+03  1.8692548955408174e+03  1.8491293309636417e+03  1.8291141554154133e+03  1.8091414920460495e+03  1.7891949460986671e+03  1.7692655017237266e+03  1.7493477848066689e+03  1.7294384795811393e+03  1.7095354167788323e+03  1.6896371109126612e+03  1.6697425083152527e+03  1.6498508398424224e+03  1.6299615304250865e+03  1.6100741412853865e+03  1.5901883317664970e+03  1.5703038333892202e+03  1.5504204317780916e+03  1.5305379537934418e+03  1.5106562581922772e+03  1.4907752287324656e+03  1.4708947690010725e+03  1.4510147984809896e+03  1.4311352495204101e+03  1.4112560649702064e+03  1.3913771963225083e+03  1.3714986022288642e+03  1.3516202473103897e+03  1.3317421011940930e+03  1.3118641377260535e+03  1.2919863343250554e+03  1.2721086714475136e+03  1.2522311321423158e+03  1.2323537016784976e+03  1.2124763672320039e+03  1.1925991176213381e+03  1.1727219430832604e+03  1.1528448350819253e+03  1.1329677861460291e+03  1.1130907897291206e+03  1.0932138400899701e+03  1.0733369321894434e+03  1.0534600616015703e+03  1.0335832244369067e+03  1.0137064172758990e+03  9.9382963711128559e+02  9.7395288129821063e+02  9.5407614751071151e+02  9.3419943370417218e+02  9.1432273808242348e+02  8.9444605906927870e+02  8.7456939528374050e+02  8.5469274551825242e+02  8.3481610872012720e+02  8.1493948397529255e+02  7.9506287049419507e+02  7.7518626759990673e+02  7.5530967471761767e+02  7.3543309136582980e+02  7.1555651714915757e+02  6.9567995175217322e+02  6.7580339493484735e+02  6.5592684652894411e+02  6.3605030643574310e+02  6.1617377462500724e+02  5.9629725113506299e+02  5.7642073607463703e+02  5.5654422962621140e+02  5.3666773205121933e+02  5.1679124369786621e+02  4.9691476501140136e+02  4.7703829654809539e+02  4.5716183899402824e+02  4.3728539318949794e+02  4.1740896016167306e+02  3.9753254116760684e+02  3.7765613775169538e+02  3.5777975182317704e+02  3.3790338576151760e+02  3.1802704256240912e+02  2.9815072604281056e+02  2.7827444113447115e+02  2.5839819431398627e+02  2.3852199424833535e+02  2.1864585279396005e+02  1.9876978659863764e+02  1.7889381977897759e+02  1.5901798863723724e+02  1.3914235051076000e+02  1.1926700132481355e+02  9.9392114881317198e+01  7.9518084660040003e+01  5.9645970782495084e+01  3.9775672624457492e+01  1.9905403724134214e+01  8.4075715772907345e-02  4.3198894485219465e-03  9.2469055657565192e-04  5.6853036854690028e-04  3.2495385893595367e-04  1.9101109245186186e-04  1.1944886407369386e-04  7.8890502723220988e-05  5.4508532851114463e-05  3.9100865820843401e-05  2.8941956845757398e-05  2.1996617357173165e-05  1.7098861583419265e-05  1.3551878147307051e-05  1.0923396326917020e-05  8.9362639192655689e-06  7.4075275840377276e-06  6.2132556870227023e-06  5.2675462405426483e-06  4.5096228462487177e-06  3.8956874073818395e-06  3.3936502933557676e-06  2.9796462327022024e-06  2.6356845392064587e-06  2.3480353487337411e-06  2.1061028671789848e-06  1.9016265630399525e-06  1.7281069807438128e-06  1.5803876594269289e-06  1.4543471195213354e-06  1.3466694584299767e-06  1.2546718188174974e-06  1.1761734426390394e-06  1.1093954408437161e-06  1.0528835949227453e-06  1.0054484721975541e-06  9.6611878527174851e-07  9.3410495701112235e-07  9.0877059118149844e-07  8.8961025204446187e-07  8.7623223286360123e-07  8.6834538280162446e-07  8.6574932680520003e-07  8.6832754580053633e-07  8.7604297680586683e-07  8.8893587808186128e-07  9.0712384471596122e-07  9.3080397609596361e-07  9.6025717723791242e-07  9.9585486622625079e-07  1.0380682299189847e-06  1.0874804880955562e-06  1.1448027008307169e-06  1.2108937266719250e-06  1.2867853668885418e-06  1.3737138150262577e-06  1.4731590034419708e-06  1.5868939242883836e-06  1.7170465553898201e-06  1.8661779987712758e-06  2.0373813673477846e-06  2.2344078453856538e-06  2.4618279663438343e-06  2.7252395057858143e-06  3.0315369222889212e-06  3.3892630678660652e-06  3.8090711354726593e-06  4.3043355704728448e-06  4.8919650436479805e-06  5.5934907039177964e-06  6.4365301648580993e-06  7.4567634819345411e-06  8.7006021529118762e-06  1.0228780886826731e-05  1.2121136705376399e-05  1.4482809257375461e-05  1.7451866466965356e-05  2.1207609381662639e-05  2.5976857152187251e-05  3.2031597077086312e-05  3.9669866911173228e-05  4.9218908475274929e-05  6.1714629571665782e-05  9.1612082235643333e-05  3.6483096599910489e-04  3.3469981346384418e-03  2.3683366256922338e-02  1.3918321066501647e-02  1.9712055385041097e+01  3.9716774629711288e+01  5.9604568271244013e+01  7.9486554725796580e+01  9.9367072474031346e+01  1.1924628739248138e+02  1.3912473729708753e+02  1.5900271524446285e+02  1.7888037833712679e+02  1.9875782060785872e+02  2.1863510192985453e+02  2.3851226217336389e+02  2.5838932890078536e+02  2.7826632176979354e+02  2.9814325517374721e+02  3.1802013989100470e+02  3.3789698415144380e+02  3.5777379434696309e+02  3.7765057551724624e+02  3.9752733168951931e+02  4.1740406612104380e+02  4.3728078147533830e+02  4.5715747995233914e+02  4.7703416338599334e+02  4.9691083331843669e+02  5.1678749105712438e+02  5.3666413771937323e+02  5.5654077426753861e+02  5.7641740153714250e+02  5.9629402025966772e+02  6.1617063108131345e+02  6.3604723457867260e+02  6.5592383127209143e+02  6.7580042163728945e+02  6.9567700611571809e+02  7.1555358512404371e+02  7.3543015906306368e+02  7.5530672832634809e+02  7.7518329330885081e+02  7.9505985441566156e+02  8.1493641207139046e+02  8.3481296672990970e+02  8.5468951888511242e+02  8.7456606908281503e+02  8.9444261793376438e+02  9.1431916612866019e+02  9.3419571445503425e+02  9.5407226381621865e+02  9.7394881525328833e+02  9.9382536997004524e+02  1.0137019293617371e+03  1.0335784950483610e+03  1.0534550689127977e+03  1.0733316531449109e+03  1.0932082502927008e+03  1.1130848633213193e+03  1.1329614956819021e+03  1.1528381513913930e+03  1.1727148351255771e+03  1.1925915523274441e+03  1.2124683093343126e+03  1.2323451135266062e+03  1.2522219735029428e+03  1.2720988992866990e+03  1.2919759025704082e+03  1.3118529970063823e+03  1.3317301985538354e+03  1.3516075258952037e+03  1.3714850009384918e+03  1.3913626494271907e+03  1.4112405016853263e+03  1.4311185935349993e+03  1.4509969674350434e+03  1.4708756739061932e+03  1.4907547733328170e+03  1.5106343382640796e+03  1.5305144563865674e+03  1.5503952344125598e+03  1.5702768032343529e+03  1.5901593248585384e+03  1.6100430018876536e+03  1.6299280907176317e+03  1.6498149202743800e+03  1.6697039192071079e+03  1.6895956563431423e+03  1.7094909025783568e+03  1.7293907286205149e+03  1.7492966650840951e+03  1.7692109757300013e+03  1.7891371447300633e+03  1.8090808002460208e+03  1.8290516705474263e+03  1.8490666862535236e+03  1.8691406000654256e+03  1.8893318184731625e+03  1.9117784890596649e+03  1.9473335778326168e+03  2.0231417005559435e+03  2.8822527635167608e+03  2.9947462474308104e+03  3.1023378075196251e+03  3.2092492435899485e+03  3.3158423807716304e+03  3.4223081211070353e+03  3.5286839568589567e+03  3.6349953004891277e+03  3.7412618830255788e+03  3.8474963736657792e+03  3.9537069050977589e+03  4.0598990842944186e+03  4.1660769551829817e+03  4.2722434994283703e+03  4.3784009592981538e+03  4.4845510537917316e+03  4.5906951227717454e+03  4.6968342252819702e+03  4.8029692085633405e+03  4.9091007575633985e+03  5.0152294310880861e+03  5.1213556886406004e+03  5.2274799106526470e+03  5.3336024139484161e+03  5.4397234637160955e+03  5.5458432828834539e+03  5.6519620595399438e+03  5.7580799528703501e+03  5.8641970979413181e+03  5.9703136095946074e+03  6.0764295856375775e+03  6.1825451094757873e+03  6.2886602522986459e+03  6.3947750749041788e+03  6.5008896292297923e+03  6.6070039596429879e+03  6.7131181040330093e+03  6.8192320947378685e+03  6.9253459593338002e+03  7.0314597213094430e+03  7.1375734006427328e+03  7.2436870142960861e+03  7.3498005766411607e+03  7.4559140998245202e+03  7.5620275940826050e+03  7.6681410680131858e+03  7.7742545288096026e+03  7.8803679824629935e+03  7.9864814339369132e+03  8.0925948873184452e+03  8.1987083459484402e+03  8.3048218125344483e+03  8.4109352892484894e+03  8.5170487778114348e+03  8.6231622795665808e+03  8.7292757955429079e+03  8.8353893265102579e+03  8.9415028730272461e+03  9.0476164354837201e+03  9.1537300141370779e+03  9.2598436091445310e+03  9.3659572205922032e+03  9.4720708485201394e+03  9.5781844929465296e+03  9.6842981538891199e+03  9.7904118313847284e+03  9.8965255255088850e+03  1.0002639236393778e+04  1.0108752964246902e+04  1.0214866709370903e+04  1.0320980472182026e+04  1.0427094253232075e+04  1.0533208053230148e+04  1.0639321873066589e+04  1.0745435713841129e+04  1.0851549576892006e+04  1.0957663463830926e+04  1.1063777376581431e+04  1.1169891317421872e+04  1.1276005289035411e+04  1.1382119294566017e+04  1.1488233337683172e+04  1.1594347422655985e+04  1.1700461554437119e+04  1.1806575738760559e+04  1.1912689982251544e+04  1.2018804292553952e+04  1.2124918678476151e+04  1.2231033150157207e+04  1.2337147719259483e+04  1.2443262399188574e+04  1.2549377205345194e+04  1.2655492155415543e+04  1.2761607269703005e+04  1.2867722571510771e+04  1.2973838087580574e+04  1.3079953848597366e+04  1.3186069889770790e+04  1.3292186251502582e+04  1.3398302980156177e+04  1.3504420128944035e+04  1.3610537758949869e+04  1.3716655940311342e+04  1.3822774753586609e+04  1.3928894291335633e+04  1.4035014659955375e+04  1.4141135981809766e+04  1.4247258397710240e+04  1.4353382069808815e+04  1.4459507184981458e+04  1.4565633958797667e+04  1.4671762640189703e+04  1.4777893516967752e+04  1.4884026922360948e+04  1.4990163242808543e+04  1.5096302927292851e+04  1.5202446498580481e+04  1.5308594566849662e+04  1.5414747846333599e+04  1.5520907175806833e+04  1.5627073544032939e+04  1.5733248121689290e+04  1.5839432301863588e+04  1.5945627752062828e+04  1.6051836481929015e+04  1.6158060932774291e+04  1.6264304098027846e+04  1.6370569688452633e+04  1.6476862363851644e+04  1.6583188066367231e+04  1.6689554514198957e+04  1.6795971958549490e+04  1.6902454392731495e+04  1.7009021580305176e+04  1.7115702649182898e+04  1.7222543046373186e+04  1.7329621073155722e+04  1.7437081384603422e+04  1.7545063110773517e+04  1.7654296720498463e+04  1.7765388055947802e+04  1.7760418325631395e+04  1.7757935136260126e+04  1.7756280273216034e+04  1.7755003842175534e+04  1.7753960464136744e+04  1.7753080947257218e+04  1.7752323384866682e+04  1.7751660008332707e+04  1.7751071576261882e+04  1.7750544276779230e+04  1.7750067885801582e+04  1.7749634633280199e+04  1.7749238481084350e+04  1.7748874647229884e+04  1.7748539282585651e+04  1.7748229245151957e+04  1.7747941938686414e+04  1.7747675194909632e+04  1.7747427185927903e+04  1.7747196358049099e+04  1.7746981381030546e+04  1.7746781108647319e+04  1.7746594547692202e+04  1.7746420833343429e+04  1.7746259209402862e+04  1.7746109012302906e+04  1.7745969658061698e+04  1.7745840631567746e+04  1.7745721477722793e+04  1.7745611794080276e+04  1.7745511224697970e+04  1.7745419454984472e+04  1.7745336207366021e+04  1.7745261237635739e+04  1.7745194331875831e+04  1.7745135303864321e+04  1.7745083992896019e+04  1.7745040261960654e+04  1.7745003996232601e+04  1.7744975101835778e+04  1.7744953504854442e+04  1.7744939150567912e+04  1.7744932002891499e+04  1.7744932044011872e+04  1.7744939274208817e+04  1.7744953711859620e+04  1.7744975393626144e+04  1.7745004374828728e+04  1.7745040730015120e+04  1.7745084553736768e+04  1.7745135961550073e+04  1.7745195091265665e+04  1.7745262104474834e+04  1.7745337188390597e+04  1.7745420558049744e+04  1.7745512458933528e+04  1.7745613170079396e+04  1.7745723007773060e+04  1.7745842329933163e+04  1.7745971541329123e+04  1.7746111099809837e+04  1.7746261523768739e+04  1.7746423401134081e+04  1.7746597400256967e+04  1.7746784283182737e+04  1.7746984921944131e+04  1.7747200318725430e+04  1.7747431631040636e+04  1.7747680203484459e+04  1.7747947608211463e+04  1.7748235697172822e+04  1.7748546670440446e+04  1.7748883166926978e+04  1.7749248386890446e+04  1.7749646260527381e+04  1.7750081685035679e+04  1.7750560866233620e+04  1.7751091824962998e+04  1.7751685172607926e+04  1.7752355341710685e+04  1.7753122597454752e+04  1.7754016318153350e+04  1.7755079979977618e+04  1.7756378784216413e+04  1.7758031316435401e+04  1.7760490793055917e+04  1.7766569365842544e+04  1.7655550096632589e+04  1.7653594228661186e+04  1.7651726643301892e+04  1.7650256838683246e+04  1.7649072991589608e+04  1.7648086229690754e+04  1.7647243282229942e+04  1.7646510246638398e+04  1.7645863961979838e+04  1.7645287868888248e+04  1.7644769751531876e+04  1.7644300370202909e+04  1.7643872585357905e+04  1.7643480776856770e+04  1.7643120448289472e+04  1.7642787950818805e+04  1.7642480286194430e+04  1.7642194963455200e+04  1.7641929892827491e+04  1.7641683305901410e+04  1.7641453694704462e+04  1.7641239764586931e+04  1.7641040397353296e+04  1.7640854622098068e+04  1.7640681591908611e+04  1.7640520565087343e+04  1.7640370889893391e+04  1.7640231992052333e+04  1.7640103364464012e+04  1.7639984558671247e+04  1.7639875177751430e+04  1.7639774870367164e+04  1.7639683325768739e+04  1.7639600269584465e+04  1.7639525460268120e+04  1.7639458686099286e+04  1.7639399762652432e+04  1.7639348530667328e+04  1.7639304854266160e+04  1.7639268619473594e+04  1.7639239733004499e+04  1.7639218121291426e+04  1.7639203729730110e+04  1.7639196522126229e+04  1.7639196480331633e+04  1.7639203604062201e+04  1.7639217910893403e+04  1.7639239436433538e+04  1.7639268234678228e+04  1.7639304378553563e+04  1.7639347960659787e+04  1.7639399094231434e+04  1.7639457914335599e+04  1.7639524579335623e+04  1.7639599272654770e+04  1.7639682204883073e+04  1.7639773616280712e+04  1.7639873779744379e+04  1.7639983004318823e+04  1.7640101639355973e+04  1.7640230079449328e+04  1.7640368770303994e+04  1.7640518215744505e+04  1.7640678986117477e+04  1.7640851728417914e+04  1.7641037178563322e+04  1.7641236176367900e+04  1.7641449683942512e+04  1.7641678808484154e+04  1.7641924830749093e+04  1.7642189240969463e+04  1.7642473784636768e+04  1.7642780521539527e+04  1.7643111902861692e+04  1.7643470873279934e+04  1.7643861008258238e+04  1.7644286701831435e+04  1.7644753428305023e+04  1.7645268114642149e+04  1.7645839683035261e+04  1.7646479864304511e+04  1.7647204462582384e+04  1.7648035394052582e+04  1.7649003827066175e+04  1.7650152451579917e+04  1.7651517868100767e+04  1.7653000514021478e+04  1.7653903017202945e+04  1.7544990393148884e+04  1.7544675722781623e+04  1.7543986521365914e+04  1.7543185503138833e+04  1.7542394322315751e+04  1.7541654246040187e+04  1.7540975108095390e+04  1.7540355578262213e+04  1.7539790702856921e+04  1.7539274720712434e+04  1.7538802106385305e+04  1.7538367916716321e+04  1.7537967858990258e+04  1.7537598252388372e+04  1.7537255954651773e+04  1.7536938283565501e+04  1.7536642944614778e+04  1.7536367968329334e+04  1.7536111657582667e+04  1.7535872543885067e+04  1.7535649351359189e+04  1.7535440967099523e+04  1.7535246416764432e+04  1.7535064844430111e+04  1.7534895495909215e+04  1.7534737704887619e+04  1.7534590881359305e+04  1.7534454501941145e+04  1.7534328101732262e+04  1.7534211267447961e+04  1.7534103631610840e+04  1.7534004867623284e+04  1.7533914685578857e+04  1.7533832828696752e+04  1.7533759070284850e+04  1.7533693211154201e+04  1.7533635077421859e+04  1.7533584518650259e+04  1.7533541406280980e+04  1.7533505632328346e+04  1.7533477108304916e+04  1.7533455764356524e+04  1.7533441548589206e+04  1.7533434426574484e+04  1.7533434381023271e+04  1.7533441411622029e+04  1.7533455535027872e+04  1.7533476785022609e+04  1.7533505212828590e+04  1.7533540887592360e+04  1.7533583897045748e+04  1.7533634348357376e+04  1.7533692369191802e+04  1.7533758108998154e+04  1.7533831740555579e+04  1.7533913461809101e+04  1.7534003498037193e+04  1.7534102104401372e+04  1.7534209568939408e+04  1.7534326216076981e+04  1.7534452410749509e+04  1.7534588563246252e+04  1.7534735134914172e+04  1.7534892644890740e+04  1.7535061678074126e+04  1.7535242894588464e+04  1.7535437041062753e+04  1.7535644964117684e+04  1.7535867626547282e+04  1.7536106126793624e+04  1.7536361722441834e+04  1.7536635858601887e+04  1.7536930202170362e+04  1.7537246683024303e+04  1.7537587543063597e+04  1.7537955393406537e+04  1.7538353278334180e+04  1.7538784740394989e+04  1.7539253871293800e+04  1.7539765310472358e+04  1.7540324099773250e+04  1.7540935173965736e+04  1.7541601962066132e+04  1.7542322946544398e+04  1.7543084381745339e+04  1.75438500