<?xml version="1.0"?>
<VTKFile type="UnstructuredGrid"  version="0.1"  >
<UnstructuredGrid>
<Piece  NumberOfPoints="21600" NumberOfCells="42542">
<Points>
<DataArray  type="Float64"  NumberOfComponents="3"  format="ascii">0 0 0  0.77 0 0  0.77 0.15 0  0 0.15 0  0.003221757322170014 0 0  0.006443514644340046 0 0  0.009665271966510193 0 0  0.01288702928868034 0 0  0.01610878661085048 0 0  0.01933054393302049 0 0  0.02255230125519027 0 0  0.02577405857735967 0 0  0.02899581589952872 0 0  0.03221757322169801 0 0  0.03543933054386744 0 0  0.03866108786603686 0 0  0.04188284518820627 0 0  0.0451046025103757 0 0  0.04832635983254521 0 0  0.05154811715471607 0 0  0.05476987447688695 0 0  0.05799163179905782 0 0  0.06121338912122846 0 0  0.06443514644339859 0 0  0.06765690376556875 0 0  0.0708786610877389 0 0  0.07410041840990904 0 0  0.0773221757320792 0 0  0.08054393305425039 0 0  0.08376569037642198 0 0  0.0869874476985936 0 0  0.09020920502076518 0 0  0.0934309623429339 0 0  0.0966527196651024 0 0  0.09987447698726967 0 0  0.1030962343094369 0 0  0.1063179916316041 0 0  0.1095397489537714 0 0  0.1127615062759386 0 0  0.1159832635981051 0 0  0.1192050209202709 0 0  0.1224267782424358 0 0  0.1256485355646001 0 0  0.1288702928867644 0 0  0.1320920502089288 0 0  0.1353138075310958 0 0  0.1385355648532632 0 0  0.1417573221754333 0 0  0.1449790794976035 0 0  0.1482008368197736 0 0  0.1514225941419428 0 0  0.1546443514641101 0 0  0.157866108786276 0 0  0.1610878661084403 0 0  0.1643096234306047 0 0  0.167531380752769 0 0  0.1707531380749333 0 0  0.1739748953970977 0 0  0.177196652719262 0 0  0.1804184100414264 0 0  0.1836401673635935 0 0  0.1868619246857611 0 0  0.1900836820079313 0 0  0.1933054393301014 0 0  0.1965271966522716 0 0  0.1997489539744406 0 0  0.2029707112966078 0 0  0.2061924686187736 0 0  0.209414225940938 0 0  0.2126359832631022 0 0  0.2158577405852666 0 0  0.219079497907431 0 0  0.2223012552295953 0 0  0.2255230125517597 0 0  0.2287447698739242 0 0  0.2319665271960914 0 0  0.2351882845182592 0 0  0.2384100418404293 0 0  0.2416317991625994 0 0  0.2448535564847696 0 0  0.2480753138069371 0 0  0.2512970711291014 0 0  0.2545188284512658 0 0  0.2577405857734302 0 0  0.2609623430955986 0 0  0.2641841004177688 0 0  0.2674058577399389 0 0  0.270627615062109 0 0  0.2738493723842792 0 0  0.2770711297064487 0 0  0.280292887028613 0 0  0.2835146443507774 0 0  0.2867364016729417 0 0  0.2899581589951061 0 0  0.2931799163172705 0 0  0.2964016736394348 0 0  0.2996234309615992 0 0  0.3028451882837672 0 0  0.3060669456059373 0 0  0.3092887029281075 0 0  0.3125104602502776 0 0  0.3157322175724478 0 0  0.3189539748946177 0 0  0.322175732216782 0 0  0.3253974895389464 0 0  0.3286192468611107 0 0  0.3318410041832751 0 0  0.3350627615054395 0 0  0.3382845188276038 0 0  0.3415062761497681 0 0  0.3447280334719325 0 0  0.3479497907940968 0 0  0.3511715481162612 0 0  0.3543933054384255 0 0  0.3576150627605947 0 0  0.3608368200827649 0 0  0.364058577404935 0 0  0.3672803347271051 0 0  0.3705020920492753 0 0  0.373723849371444 0 0  0.3769456066936084 0 0  0.3801673640157748 0 0  0.383389121337945 0 0  0.3866108786601209 0 0  0.3898326359823028 0 0  0.3930543933044846 0 0  0.3962761506266662 0 0  0.399497907948848 0 0  0.4027196652710298 0 0  0.4059414225932116 0 0  0.4091631799153934 0 0  0.4123849372375751 0 0  0.4156066945597569 0 0  0.4188284518819387 0 0  0.4220502092041222 0 0  0.4252719665263097 0 0  0.4284937238484974 0 0  0.4317154811706849 0 0  0.4349372384928725 0 0  0.4381589958150601 0 0  0.4413807531372476 0 0  0.4446025104594352 0 0  0.4478242677816181 0 0  0.4510460251037998 0 0  0.4542677824259815 0 0  0.4574895397481634 0 0  0.4607112970703451 0 0  0.4639330543925269 0 0  0.4671548117147087 0 0  0.4703765690368904 0 0  0.4735983263590722 0 0  0.4768200836812568 0 0  0.4800418410034444 0 0  0.483263598325632 0 0  0.4864853556478196 0 0  0.4897071129700028 0 0  0.4929288702921845 0 0  0.4961506276143663 0 0  0.4993723849365479 0 0  0.5025941422587239 0 0  0.5058158995809008 0 0  0.5090376569030826 0 0  0.5122594142252677 0 0  0.515481171547461 0 0  0.5187029288696494 0 0  0.5219246861918312 0 0  0.525146443514013 0 0  0.5283682008361947 0 0  0.5315899581583845 0 0  0.5348117154805778 0 0  0.5380334728027617 0 0  0.5412552301249435 0 0  0.5444769874471141 0 0  0.5476987447692853 0 0  0.550920502091467 0 0  0.5541422594136513 0 0  0.5573640167358447 0 0  0.560585774058034 0 0  0.5638075313802158 0 0  0.5670292887023975 0 0  0.5702510460245793 0 0  0.5734728033467682 0 0  0.5766945606689615 0 0  0.579916317991155 0 0  0.5831380753133483 0 0  0.5863598326355314 0 0  0.5895815899577131 0 0  0.5928033472798949 0 0  0.5960251046020785 0 0  0.5992468619242718 0 0  0.6024686192464619 0 0  0.6056903765686437 0 0  0.6089121338908206 0 0  0.6121338912129908 0 0  0.6153556485351673 0 0  0.618577405857349 0 0  0.6217991631795386 0 0  0.625020920501732 0 0  0.6282426778239159 0 0  0.6314644351460976 0 0  0.6346861924682795 0 0  0.6379079497904622 0 0  0.6411297071126555 0 0  0.6443514644348465 0 0  0.6475732217570283 0 0  0.650794979079206 0 0  0.6540167364013761 0 0  0.6572384937235518 0 0  0.6604602510457335 0 0  0.6636820083679225 0 0  0.6669037656901158 0 0  0.6701255230123004 0 0  0.6733472803344823 0 0  0.6765690376566641 0 0  0.6797907949788459 0 0  0.6830125523010393 0 0  0.686234309623231 0 0  0.6894560669454127 0 0  0.6926778242675914 0 0  0.6958995815897615 0 0  0.6991213389119363 0 0  0.7023430962341181 0 0  0.7055648535563062 0 0  0.7087866108784994 0 0  0.712008368200685 0 0  0.7152301255228668 0 0  0.7184518828450486 0 0  0.7216736401672305 0 0  0.724895397489423 0 0  0.7281171548116155 0 0  0.7313389121337973 0 0  0.7345606694559768 0 0  0.7377824267781468 0 0  0.7410041841003209 0 0  0.7442259414225026 0 0  0.7474476987446899 0 0  0.7506694560668832 0 0  0.7538912133890696 0 0  0.7571129707112513 0 0  0.760334728033433 0 0  0.7635564853556149 0 0  0.7667782426778067 0 0  0.77 0.001685393258423789 0  0.77 0.003370786516847669 0  0.77 0.005056179775271247 0  0.77 0.006741573033694517 0  0.77 0.008426966292117821 0  0.77 0.01011235955054176 0  0.77 0.01179775280896623 0  0.77 0.0134831460673904 0  0.77 0.01516853932581489 0  0.77 0.01685393258423891 0  0.77 0.01853932584266291 0  0.77 0.02022471910108589 0  0.77 0.02191011235950794 0  0.77 0.02359550561792999 0  0.77 0.02528089887635205 0  0.77 0.02696629213477411 0  0.77 0.02865168539319714 0  0.77 0.03033707865161956 0  0.77 0.03202247191004162 0  0.77 0.03370786516846367 0  0.77 0.03539325842688572 0  0.77 0.03707865168530778 0  0.77 0.03876404494372984 0  0.77 0.0404494382021519 0  0.77 0.04213483146057394 0  0.77 0.04382022471899601 0  0.77 0.04550561797741807 0  0.77 0.04719101123584013 0  0.77 0.04887640449426219 0  0.77 0.05056179775268425 0  0.77 0.0522471910111063 0  0.77 0.05393258426952837 0  0.77 0.05561797752795105 0  0.77 0.05730337078637505 0  0.77 0.05898876404479723 0  0.77 0.0606741573032193 0  0.77 0.06235955056164135 0  0.77 0.06404494382006341 0  0.77 0.06573033707848548 0  0.77 0.06741573033690752 0  0.77 0.06910112359532959 0  0.77 0.07078651685375165 0  0.77 0.0724719101121737 0  0.77 0.07415730337059653 0  0.77 0.07584269662902443 0  0.77 0.07752808988745429 0  0.77 0.07921348314588413 0  0.77 0.08089887640431678 0  0.77 0.08258426966274923 0  0.77 0.08426966292117907 0  0.77 0.08595505617960987 0  0.77 0.08764044943804362 0  0.77 0.08932584269647403 0  0.77 0.09101123595490389 0  0.77 0.09269662921333673 0  0.77 0.09438202247176901 0  0.77 0.09606741573019884 0  0.77 0.09775280898862983 0  0.77 0.09943820224706355 0  0.77 0.1011235955054938 0  0.77 0.1028089887639236 0  0.77 0.1044943820223567 0  0.77 0.1061797752807888 0  0.77 0.1078651685392186 0  0.77 0.1095505617976498 0  0.77 0.1112359550560835 0  0.77 0.1129213483145136 0  0.77 0.1146067415729456 0  0.77 0.1162921348313787 0  0.77 0.1179775280898085 0  0.77 0.1196629213482387 0  0.77 0.1213483146066724 0  0.77 0.1230337078651035 0  0.77 0.1247191011235322 0  0.77 0.1264044943819605 0  0.77 0.1280898876403903 0  0.77 0.1297752808988242 0  0.77 0.1314606741572554 0  0.77 0.1331460674156853 0  0.77 0.1348314606741154 0  0.77 0.1365168539325504 0  0.77 0.1382022471909802 0  0.77 0.13988764044941 0  0.77 0.1415730337078443 0  0.77 0.1432584269662752 0  0.77 0.144943820224705 0  0.77 0.1466292134831355 0  0.77 0.1483146067415701 0  0.7667782426778414 0.15 0  0.7635564853556813 0.15 0  0.7603347280335111 0.15 0  0.757112970711341 0.15 0  0.7538912133891708 0.15 0  0.7506694560670005 0.15 0  0.7474476987448303 0.15 0  0.7442259414226602 0.15 0  0.74100418410049 0.15 0  0.7377824267783197 0.15 0  0.7345606694561496 0.15 0  0.7313389121339794 0.15 0  0.7281171548118092 0.15 0  0.724895397489639 0.15 0  0.7216736401674688 0.15 0  0.7184518828452986 0.15 0  0.7152301255231284 0.15 0  0.7120083682009583 0.15 0  0.708786610878788 0.15 0  0.7055648535566178 0.15 0  0.7023430962344477 0.15 0  0.6991213389122775 0.15 0  0.6958995815901072 0.15 0  0.692677824267937 0.15 0  0.6894560669457669 0.15 0  0.6862343096235967 0.15 0  0.6830125523014264 0.15 0  0.6797907949792563 0.15 0  0.6765690376570861 0.15 0  0.6733472803349159 0.15 0  0.6701255230127456 0.15 0  0.6669037656905755 0.15 0  0.6636820083684053 0.15 0  0.6604602510462351 0.15 0  0.657238493724065 0.15 0  0.6540167364018947 0.15 0  0.6507949790797245 0.15 0  0.6475732217575543 0.15 0  0.644351464435384 0.15 0  0.6411297071132231 0.15 0  0.6379079497910645 0.15 0  0.634686192468906 0.15 0  0.6314644351467468 0.15 0  0.6282426778245765 0.15 0  0.6250209205024085 0.15 0  0.62179916318025 0.15 0  0.6185774058580914 0.15 0  0.6153556485359328 0.15 0  0.6121338912137689 0.15 0  0.6089121338915987 0.15 0  0.6056903765694354 0.15 0  0.6024686192472768 0.15 0  0.5992468619251182 0.15 0  0.5960251046029597 0.15 0  0.5928033472807912 0.15 0  0.589581589958621 0.15 0  0.5863598326364508 0.15 0  0.5831380753142792 0.15 0  0.5799163179920974 0.15 0  0.57669456
[...]
<PointData  Scalars="pressure"> 
<DataArray  type="Float64"  Name="pressure"  format="ascii">1.4638993409045450e+04  4.0549111837943869e-01  -3.0042995381876020e-01  1.4624606377234506e+04  1.4500383923673864e+04  1.4391652296579850e+04  1.4283892342628167e+04  1.4176456852586824e+04  1.4069389422503145e+04  1.3962555609467867e+04  1.3855878438888067e+04  1.3749313718254762e+04  1.3642832942604680e+04  1.3536416661643716e+04  1.3430051056298198e+04  1.3323725978549237e+04  1.3217433774296458e+04  1.3111168542849799e+04  1.3004925652117967e+04  1.2898701410377127e+04  1.2792492837573534e+04  1.2686297501957511e+04  1.2580113400813756e+04  1.2473938871694534e+04  1.2367772525217282e+04  1.2261613193407375e+04  1.2155459889444945e+04  1.2049311775911838e+04  1.1943168139466494e+04  1.1837028370444474e+04  1.1730891946279147e+04  1.1624758417918634e+04  1.1518627398616878e+04  1.1412498554623106e+04  1.1306371597403642e+04  1.1200246277108794e+04  1.1094122377060130e+04  1.0987999709078504e+04  1.0881878109509511e+04  1.0775757435830250e+04  1.0669637563743072e+04  1.0563518384678902e+04  1.0457399803646314e+04  1.0351281737373343e+04  1.0245164112697752e+04  1.0139046865168477e+04  1.0032929937827173e+04  9.9268132801423708e+03  9.8206968470744650e+03  9.7145805982508864e+03  9.6084644972351871e+03  9.5023485108749283e+03  9.3962326087152851e+03  9.2901167624671343e+03  9.1840009455187628e+03  9.0778851324822463e+03  8.9717692987652845e+03  8.8656534201605591e+03  8.7595374724444700e+03  8.6534214309776580e+03  8.5473052702990499e+03  8.4411889637059940e+03  8.3350724828107304e+03  8.2289557970651022e+03  8.1228388732419580e+03  8.0167216748624387e+03  7.9106041615551367e+03  7.8044862883316600e+03  7.6983680047601047e+03  7.5922492540140574e+03  7.4861299717705315e+03  7.3800100849240016e+03  7.2738895100761110e+03  7.1677681517510400e+03  7.0616459002734919e+03  6.9555226292294874e+03  6.8493981924084537e+03  6.7432724200944203e+03  6.6371451145360897e+03  6.5310160443695522e+03  6.4248849376948183e+03  6.3187514734023134e+03  6.2126152702006984e+03  6.1064758725885576e+03  6.0003327327088591e+03  5.8941851865803746e+03  5.7880324225262757e+03  5.6818734385901698e+03  5.5757069841221064e+03  5.4695314781690795e+03  5.3633448929422993e+03  5.2571445825691353e+03  5.1509270250533600e+03  5.0446874336336268e+03  4.9384191483066134e+03  4.8321124421433142e+03  4.7257519798073727e+03  4.6193140298367707e+03  4.5127706122494183e+03  4.4060726511798266e+03  4.2989463500107577e+03  4.1904822857566251e+03  4.0762982054392501e+03  2.8935240210847996e+03  2.8235574606163632e+03  2.7539352432310425e+03  2.7011510051609635e+03  2.6847490707535771e+03  2.6643170725667342e+03  2.6441915073039045e+03  2.6241763309964158e+03  2.6042036667872849e+03  2.5842571199138506e+03  2.5643276745207409e+03  2.5444099564873914e+03  2.5245006500412251e+03  2.5045975859074219e+03  2.4846992785919947e+03  2.4648046744202361e+03  2.4449130042401248e+03  2.4250236929743023e+03  2.4051363018359939e+03  2.3852504901588245e+03  2.3653659894534203e+03  2.3454825853333127e+03  2.3256001046471588e+03  2.3057184061394705e+03  2.2858373735546784e+03  2.2659569104655034e+03  2.2460769363393883e+03  2.2261973835079225e+03  2.2063181948043257e+03  2.1864393217017177e+03  2.1665607228314202e+03  2.1466823627928707e+03  2.1268042111897548e+03  2.1069262418433150e+03  2.0870484321456192e+03  2.0671707625245522e+03  2.0472932159985544e+03  2.0274157778040417e+03  2.0075384350821143e+03  1.9876611766139777e+03  1.9677839925964474e+03  1.9479068744510093e+03  1.9280298146606860e+03  1.9081528066303147e+03  1.8882758445665388e+03  1.8683989233744974e+03  1.8485220385686744e+03  1.8286451861958262e+03  1.8087683627682163e+03  1.7888915652057319e+03  1.7690147907855808e+03  1.7491380370984828e+03  1.7292613020105880e+03  1.7093845836301657e+03  1.6895078802786327e+03  1.6696311904652043e+03  1.6497545128647407e+03  1.6298778462982348e+03  1.6100011897159027e+03  1.5901245421823012e+03  1.5702479028631860e+03  1.5503712710141917e+03  1.5304946459705782e+03  1.5106180271383948e+03  1.4907414139867944e+03  1.4708648060410969e+03  1.4509882028768920e+03  1.4311116041147172e+03  1.4112350094152134e+03  1.3913584184752374e+03  1.3714818310240207e+03  1.3516052468201140e+03  1.3317286656486867e+03  1.3118520873188568e+03  1.2919755116617318e+03  1.2720989385283203e+03  1.2522223677878542e+03  1.2323457993264321e+03  1.2124692330456596e+03  1.1925926688616350e+03  1.1727161067039376e+03  1.1528395465147644e+03  1.1329629882483052e+03  1.1130864318699726e+03  1.0932098773560583e+03  1.0733333246932882e+03  1.0534567738784638e+03  1.0335802249183882e+03  1.0137036778295316e+03  9.9382713263793380e+02  9.7395058937926831e+02  9.5407404809877562e+02  9.3419750885155668e+02  9.1432097170265729e+02  8.9444443672740260e+02  8.7456790401175465e+02  8.5469137365256711e+02  8.3481484575826448e+02  8.1493832044945577e+02  7.9506179785962240e+02  7.7518527813620085e+02  7.5530876144146600e+02  7.3543224795373442e+02  7.1555573786896514e+02  6.9567923140235530e+02  6.7580272879059987e+02  6.5592623029430194e+02  6.3604973620099838e+02  6.1617324682880962e+02  5.9629676253065725e+02  5.7642028369976140e+02  5.5654381077623191e+02  5.3666734425513403e+02  5.1679088469685394e+02  4.9691443273963017e+02  4.7703798911553662e+02  4.5716155467105881e+02  4.3728513039309320e+02  4.1740871744301978e+02  3.9753231720098438e+02  3.7765593132449118e+02  3.5777956182692088e+02  3.3790321118382781e+02  3.1802688247976090e+02  2.9815057961404557e+02  2.7827430759497611e+02  2.5839807297047872e+02  2.3852188447420050e+02  2.1864575402509038e+02  1.9876969832973140e+02  1.7889374156025985e+02  1.5901792007156860e+02  1.3914229125110373e+02  1.1926695107203261e+02  9.9392073382271477e+01  7.9518051705923654e+01  5.9645946207287452e+01  3.9775656304403938e+01  1.9905395577297845e+01  8.4075681845755909e-02  4.3198870825864356e-03  9.2468864827210246e-04  5.6852766680243530e-04  3.2495032323350752e-04  1.9100668299943050e-04  1.1944356213590900e-04  7.8884304180777624e-05  5.4501441240559287e-05  3.9092889153426408e-05  2.8933106124291025e-05  2.1986905838734747e-05  1.7088304393959199e-05  1.3540492039115607e-05  1.0911199525898188e-05  8.9232760211959601e-06  7.3937694617089940e-06  6.1987494282693359e-06  5.2523150641902674e-06  4.4936910458408838e-06  3.8790802803644786e-06  3.3763940894550126e-06  2.9617680781879873e-06  2.6172123759344118e-06  2.3289978790413175e-06  2.0865294699707005e-06  1.8815472434030867e-06  1.7075523024151602e-06  1.5593886752029463e-06  1.4329353026924757e-06  1.3248766427016177e-06  1.2325301364900258e-06  1.1537152431846199e-06  1.0866532525520971e-06  1.0298900351398111e-06  9.8223621477954662e-07  9.4272047291292515e-07  9.1055315634269812e-07  8.8509773402542088e-07  8.6584858760306469e-07  8.5241375399133189e-07  8.4450179844614462e-07  8.4191199366639875e-07  8.4452744592251825e-07  8.5231063861880481e-07  8.6530136283958453e-07  8.8361670623850207e-07  9.0745320123393817e-07  9.3709118485588020e-07  9.7290144715071267e-07  1.0153545300690009e-06  1.0650329921483214e-06  1.1226471926726305e-06  1.1890552763959760e-06  1.2652883135119063e-06  1.3525817530587690e-06  1.4524147699091962e-06  1.5665595793968514e-06  1.6971433959195430e-06  1.8467265208023770e-06  2.0184013041848760e-06  2.2159181237999240e-06  2.4438467459103324e-06  2.7077841446236414e-06  3.0146240209072458e-06  3.3729084458501390e-06  3.7932898561334689e-06  4.2891419409813082e-06  4.8773726309292275e-06  5.5795123444317822e-06  6.4231779840809970e-06  7.4440489000013605e-06  8.6885359159444670e-06  1.0217373076766699e-05  1.2110396762093084e-05  1.4472746002569090e-05  1.7442488122540671e-05  2.1198923624217608e-05  2.5968871124818716e-05  3.2024317430902443e-05  3.9663299836875763e-05  4.9213059742452702e-05  6.1709504864148563e-05  9.1607692575848619e-05  3.6482740999939654e-04  3.3469964494446157e-03  2.3683372906881238e-02  1.3918325348337739e-02  1.9712062968005753e+01  3.9716789940923739e+01  5.9604591329710956e+01  7.9486585624572129e+01  9.9367111340286939e+01  1.1924633438600895e+02  1.3912479261083797e+02  1.5900277910493196e+02  1.7888045100484467e+02  1.9875790237796667e+02  2.1863519313274443e+02  2.3851236317536507e+02  2.5838944010488393e+02  2.7826644361636914e+02  2.9814338814130866e+02  3.1802028449690459e+02  3.3789714095254908e+02  3.5777396394025061e+02  3.7765075854029163e+02  3.9752752882084098e+02  4.1740427808025390e+02  4.3728100902304834e+02  4.5715772388975711e+02  4.7703442455413858e+02  4.9691111259688802e+02  5.1678778936219919e+02  5.3666445600162569e+02  5.5654111350843675e+02  5.7641776274477218e+02  5.9629440446327897e+02  6.1617103932450095e+02  6.3604766791094073e+02  6.5592429073853009e+02  6.7580090826602520e+02  6.9567752090276713e+02  7.1555412901513034e+02  7.3543073293189536e+02  7.5530733294876916e+02  7.7518392933219809e+02  7.9506052232254513e+02  8.1493711213700487e+02  8.3481369897183879e+02  8.5469028300443142e+02  8.7456686439511350e+02  8.9444344328849365e+02  9.1432001981496910e+02  9.3419659409196538e+02  9.5407316622480835e+02  9.7394973630772722e+02  9.9382630442461095e+02  1.0137028706496814e+03  1.0335794350483293e+03  1.0534559976776443e+03  1.0733325585869225e+03  1.0932091178182720e+03  1.1130856754069346e+03  1.1329622313818988e+03  1.1528387857663424e+03  1.1727153385781185e+03  1.1925918898300561e+03  1.2124684395306183e+03  1.2323449876843306e+03  1.2522215342923641e+03  1.2720980793531880e+03  1.2919746228631334e+03  1.3118511648171409e+03  1.3317277052097190e+03  1.3516042440358547e+03  1.3714807812920899e+03  1.3913573169778936e+03  1.4112338510969423e+03  1.4311103836589516e+03  1.4509869146818003e+03  1.4708634441936294e+03  1.4907399722355876e+03  1.5106164988649155e+03  1.5304930241584232e+03  1.5503695482168330e+03  1.5702460711696281e+03  1.5901225931804813e+03  1.6099991144538619e+03  1.6298756352424805e+03  1.6497521558560059e+03  1.6696286766713281e+03  1.6895051981440768e+03  1.7093817208221524e+03  1.7292582453613634e+03  1.7491347725436003e+03  1.7690113032976890e+03  1.7888878387236546e+03  1.8087643801207707e+03  1.8286409290200413e+03  1.8485174872218274e+03  1.8683940568394853e+03  1.8882706403499119e+03  1.9081472406523228e+03  1.9280238611365680e+03  1.9479005057626043e+03  1.9677771791531793e+03  1.9876538867020279e+03  2.0075306347006540e+03  2.0274074304868388e+03  2.0472842826195083e+03  2.0671612010850267e+03  2.0870381975415157e+03  2.1069152856093010e+03  2.1267924812177566e+03  2.1466698030215380e+03  2.1665472729028165e+03  2.1864249165809902e+03  2.2063027643578225e+03  2.2261808520346754e+03  2.2460592220510011e+03  2.2659379249095950e+03  2.2858170209781638e+03  2.3056965827904087e+03  2.3255766980186968e+03  2.3454574733621416e+03  2.3653390397007897e+03  2.3852215590300261e+03  2.4051052339420612e+03  2.4249903208233882e+03  2.4448771485913890e+03  2.4647661458874277e+03  2.4846578815317876e+03  2.5045531264140659e+03  2.5244529512365020e+03  2.5443588866087075e+03  2.5642731962874559e+03  2.5841993644411518e+03  2.6041430192288208e+03  2.6241138889180147e+03  2.6441289041266418e+03  2.6642028175552773e+03  2.6843940356944368e+03  2.7068407061203184e+03  2.7423957947903727e+03  2.8182039174027318e+03  3.9736763461627152e+03  4.0861698303273051e+03  4.1937613908929789e+03  4.3006728276894037e+03  4.4072659658715347e+03  4.5137317075121218e+03  4.6201075449081973e+03  4.7264188905608271e+03  4.8326854755432805e+03  4.9389199691050608e+03  5.0451305039938261e+03  5.1513226872508094e+03  5.2575005628815552e+03  5.3636671126410292e+03  5.4698245789001730e+03  5.5759746807767851e+03  5.6821187582691682e+03  5.7882578705764108e+03  5.8943928651178157e+03  6.0005244270448366e+03  6.1066531153969281e+03  6.2127793899448870e+03  6.3189036314263358e+03  6.4250261570163284e+03  6.5311472323048320e+03  6.6372670806793349e+03  6.7433858907558679e+03  6.8495038223215734e+03  6.9556210111323962e+03  7.0617375728199013e+03  7.1678536060950473e+03  7.2739691953984784e+03  7.3800844131044223e+03  7.4861993213665737e+03  7.5923139736750863e+03  7.6984284161742153e+03  7.8045426887877147e+03  7.9106568261831917e+03  8.0167708586037534e+03  8.1228848125916302e+03  8.2289987116207594e+03  8.3351125766560999e+03  8.4412264266525726e+03  8.5473402790045784e+03  8.6534541499585357e+03  8.7595680549943027e+03  8.8656820091866120e+03  8.9717960275530568e+03  9.0779101253947447e+03  9.1840243186395655e+03  9.2901386241922173e+03  9.3962530602984298e+03  9.5023676469323145e+03  9.6084824062116513e+03  9.7145973628527390e+03  9.8207125446712453e+03  9.9268279831404343e+03  1.0032943714018724e+04  1.0139059778056588e+04  1.0245176221800200e+04  1.0351293098507824e+04  1.0457410469196946e+04  1.0563528403848270e+04  1.0669646982790364e+04  1.0775766298296374e+04  1.0881886456432367e+04  1.0988007579198240e+04  1.1094129807017680e+04  1.1200253301638975e+04  1.1306378249524994e+04  1.1412504865828161e+04  1.1518633399064160e+04  1.1624764136630833e+04  1.1730897411352149e+04  1.1837033609271844e+04  1.1943173178988205e+04  1.2049316642896889e+04  1.2155464610819306e+04  1.2261617796646895e+04  1.2367777038828061e+04  1.2473943325816270e+04  1.2580117827995031e+04  1.2686301938174567e+04  1.2792497323600743e+04  1.2898705993670654e+04  1.3004930389467660e+04  1.3111173504207991e+04  1.3217439048457305e+04  1.3323731681836622e+04  1.3430057346321368e+04  1.3536423759958980e+04  1.3642841173814477e+04  1.3749323581077047e+04  1.3855890745197401e+04  1.3962571793992065e+04  1.4069412174387224e+04  1.4176490187593490e+04  1.4283950488627786e+04  1.4391932207504629e+04  1.4501165813033085e+04  1.4612257147102560e+04  1.4607287415674749e+04  1.4604804224347863e+04  1.4603149358510633e+04  1.4601872923844290e+04  1.4600829541351437e+04  1.4599950019194790e+04  1.4599192450710094e+04  1.4598529067271871e+04  1.4597940627494618e+04  1.4597413319512109e+04  1.4596936919250888e+04  1.4596503656672867e+04  1.4596107493658834e+04  1.4595743648237043e+04  1.4595408271289618e+04  1.4595098220831074e+04  1.4594810900634036e+04  1.4594544142435007e+04  1.4594296118356981e+04  1.4594065274725372e+04  1.4593850281315878e+04  1.4593649991922690e+04  1.4593463413358497e+04  1.4593289680822223e+04  1.4593128038137131e+04  1.4592977821757744e+04  1.4592838447725040e+04  1.4592709400950996e+04  1.4592590226361526e+04  1.4592480521534846e+04  1.4592379930554125e+04  1.4592288138853915e+04  1.4592204868886945e+04  1.4592129876473402e+04  1.4592062947723021e+04  1.4592003896441820e+04  1.4591952561953056e+04  1.4591908807275271e+04  1.4591872517612079e+04  1.4591843599116879e+04  1.4591821977903839e+04  1.4591807599282365e+04  1.4591800427198072e+04  1.4591800443868184e+04  1.4591807649603177e+04  1.4591822062811125e+04  1.4591843720184792e+04  1.4591872677075437e+04  1.4591909008061692e+04  1.4591952807725882e+04  1.4592004191655227e+04  1.4592063297690975e+04  1.4592130287454922e+04  1.4592205348190397e+04  1.4592288694964154e+04  1.4592380573287217e+04  1.4592481262226433e+04  1.4592591078096517e+04  1.4592710378844720e+04  1.4592839569268555e+04  1.4592979107244575e+04  1.4593129511193287e+04  1.4593291369069417e+04  1.4593465349249946e+04  1.4593652213805404e+04  1.4593852834793011e+04  1.4594068214420786e+04  1.4594299510225741e+04  1.4594548066824696e+04  1.4594815456393506e+04  1.4595103530903772e+04  1.4595414490446874e+04  1.4595750973954036e+04  1.4596116181700811e+04  1.4596514043900310e+04  1.4596949457765913e+04  1.4597428629130422e+04  1.4597959578848953e+04  1.4598552918317919e+04  1.4599223080090735e+04  1.4599990329360868e+04  1.4600884044450384e+04  1.4601947701538091e+04  1.4603246501919328e+04  1.4604899031164641e+04  1.4607358505696593e+04  1.4613437077269789e+04  1.4502417806929365e+04  1.4500461940153562e+04  1.4498594356883032e+04  1.4497124555243152e+04  1.4495940712014028e+04  1.4494953954860195e+04  1.4494111013018441e+04  1.4493377983912336e+04  1.4492731706596720e+04  1.4492155621695576e+04  1.4491637513365986e+04  1.4491168141887820e+04  1.4490740367704257e+04  1.4490348570660695e+04  1.4489988254331553e+04  1.4489655769863040e+04  1.4489348118987202e+04  1.4489062810724325e+04  1.4488797755281239e+04  1.4488551184227626e+04  1.4488321589569625e+04  1.4488107676635345e+04  1.4487908327206240e+04  1.4487722570353040e+04  1.4487549559138548e+04  1.4487388551839973e+04  1.4487238896690504e+04  1.4487100019389178e+04  1.4486971412808714e+04  1.4486852628464256e+04  1.4486743269405009e+04  1.4486642984264925e+04  1.4486551462265248e+04  1.4486468429004810e+04  1.4486393642907613e+04  1.4486326892223156e+04  1.4486267992495574e+04  1.4486216784434084e+04  1.4486173132130172e+04  1.4486136921577656e+04  1.4486108059460479e+04  1.4486086472180232e+04  1.4486072105101670e+04  1.4486064921999556e+04  1.4486064904694884e+04  1.4486072052872789e+04  1.4486086384078153e+04  1.4486107933888910e+04  1.4486136756270511e+04  1.4486172924119172e+04  1.4486216530005546e+04  1.4486267687134910e+04  1.4486326530545493e+04  1.4486393218572151e+04  1.4486467934610124e+04  1.4486550889221859e+04  1.4486642322640470e+04  1.4486742507736086e+04  1.4486851753527470e+04  1.4486970409341122e+04  1.4487098869745754e+04  1.4487237580422259e+04  1.4487387045171658e+04  1.4487547834317711e+04  1.4487720594833270e+04  1.4487906062614422e+04  1.4488105077454664e+04  1.4488318601444924e+04  1.4488547741763017e+04  1.4488793779146879e+04  1.4489058203811057e+04  1.4489342761230342e+04  1.4489649511177333e+04  1.4489980904820943e+04  1.4490339886823656e+04  1.4490730032636149e+04  1.4491155736280827e+04  1.4491622472051642e+04  1.4492137166901128e+04  1.4492708743011995e+04  1.4493348931195607e+04  1.4494073535576568e+04  1.4494904472331629e+04  1.4495872909805843e+04  1.4497021537950910e+04  1.4498386957269857e+04  1.4499869605153101e+04  1.4500772109461019e+04  1.4391858098969158e+04  1.4391543429808040e+04  1.4390854230495550e+04  1.4390053215267766e+04  1.4389262038335926e+04  1.4388521966838185e+04  1.4387842834551220e+04  1.4387223311248144e+04  1.4386658443236289e+04  1.4386142469338476e+04  1.4385669864099978e+04  1.4385235684349202e+04  1.4384835637357402e+04  1.4384466042291218e+04  1.4384123756876086e+04  1.4383806098880321e+04  1.4383510773771393e+04  1.4383235812060311e+04  1.4382979516600870e+04  1.4382740418882760e+04  1.4382517243007122e+04  1.4382308876046078e+04  1.4382114343634783e+04  1.4381932789825487e+04  1.4381763460406073e+04  1.4381605689037015e+04  1.4381458885686156e+04  1.4381322526943644e+04  1.4381196147881259e+04  1.4381079335186427e+04  1.4380971721353349e+04  1.4380872979755548e+04  1.4380782820457318e+04  1.4380700986648193e+04  1.4380627251606038e+04  1.4380561416111619e+04  1.4380503306251441e+04  1.4380452771557184e+04  1.4380409683439500e+04  1.4380373933881665e+04  1.4380345434365103e+04  1.4380324115004492e+04  1.4380309923874687e+04  1.4380302826516077e+04  1.4380302805608542e+04  1.4380309860807583e+04  1.4380324008739575e+04  1.4380345283155755e+04  1.4380373735248118e+04  1.4380409434133153e+04  1.4380452467512932e+04  1.4380502942526662e+04  1.4380560986809858e+04  1.4380626749783012e+04  1.4380700404197078e+04  1.4380782147969365e+04  1.4380872206351114e+04  1.4380970834477170e+04  1.4381078320359160e+04  1.4381194988397208e+04  1.4381321203501815e+04  1.4381457375937933e+04  1.4381603967028886e+04  1.4381761495889177e+04  1.4381930547394717e+04  1.4382111781648124e+04  1.4382305945257602e+04  1.4382513884823818e+04  1.4382736563121554e+04  1.4382975078574433e+04  1.4383230688749958e+04  1.4383504838741293e+04  1.4383799195429057e+04  1.4384115688675165e+04  1.4384456560365297e+04  1.4384824421604349e+04  1.4385222316660922e+04  1.4385653788071886e+04  1.4386122927531433e+04  1.4386634374471530e+04  1.4387193170725955e+04  1.4387804251056057e+04  1.4388471044471204e+04  1.4389192033435347e+04  1.4389953472288245e+04  1.43907191