<?xml version="1.0"?>
<VTKFile type="UnstructuredGrid"  version="0.1"  >
<UnstructuredGrid>
<Piece  NumberOfPoints="21400" NumberOfCells="42336">
<Points>
<DataArray  type="Float64"  NumberOfComponents="3"  format="ascii">0 0 0  0.004583333333333333 0 0  0.009166666666666667 0 0  0.01375 0 0  0.01833333333333333 0 0  0.02291666666666667 0 0  0.0275 0 0  0.03208333333333334 0 0  0.03666666666666667 0 0  0.04125 0 0  0.04583333333333334 0 0  0.05041666666666667 0 0  0.055 0 0  0.05958333333333334 0 0  0.06416666666666668 0 0  0.06875000000000001 0 0  0.07333333333333333 0 0  0.07791666666666666 0 0  0.08249999999999999 0 0  0.08708333333333333 0 0  0.09166666666666667 0 0  0.09625000000000002 0 0  0.1008333333333333 0 0  0.1054166666666667 0 0  0.11 0 0  0.1145833333333333 0 0  0.1191666666666667 0 0  0.12375 0 0  0.1283333333333334 0 0  0.1329166666666667 0 0  0.1375 0 0  0.1420833333333333 0 0  0.1466666666666667 0 0  0.15125 0 0  0.1558333333333333 0 0  0.1604166666666667 0 0  0.165 0 0  0.1695833333333333 0 0  0.1741666666666667 0 0  0.17875 0 0  0.1833333333333333 0 0  0.1879166666666667 0 0  0.1925 0 0  0.1970833333333333 0 0  0.2016666666666667 0 0  0.20625 0 0  0.2108333333333333 0 0  0.2154166666666666 0 0  0.22 0 0  0.2245833333333334 0 0  0.2291666666666667 0 0  0.23375 0 0  0.2383333333333333 0 0  0.2429166666666667 0 0  0.2475 0 0  0.2520833333333333 0 0  0.2566666666666667 0 0  0.26125 0 0  0.2658333333333334 0 0  0.2704166666666666 0 0  0.275 0 0  0.2795833333333334 0 0  0.2841666666666667 0 0  0.28875 0 0  0.2933333333333333 0 0  0.2979166666666667 0 0  0.3025 0 0  0.3070833333333334 0 0  0.3116666666666666 0 0  0.31625 0 0  0.3208333333333333 0 0  0.3254166666666667 0 0  0.33 0 0  0.3345833333333333 0 0  0.3391666666666667 0 0  0.34375 0 0  0.3483333333333333 0 0  0.3529166666666667 0 0  0.3575 0 0  0.3620833333333333 0 0  0.3666666666666667 0 0  0.37125 0 0  0.3758333333333334 0 0  0.3804166666666667 0 0  0.3850000000000001 0 0  0.3895833333333333 0 0  0.3941666666666667 0 0  0.39875 0 0  0.4033333333333334 0 0  0.4079166666666666 0 0  0.4125 0 0  0.4170833333333334 0 0  0.4216666666666667 0 0  0.42625 0 0  0.4308333333333333 0 0  0.4354166666666667 0 0  0.44 0 0  0.4445833333333333 0 0  0.4491666666666667 0 0  0.45375 0 0  0.4583333333333333 0 0  0.4629166666666666 0 0  0.4675 0 0  0.4720833333333334 0 0  0.4766666666666667 0 0  0.4812500000000001 0 0  0.4858333333333333 0 0  0.4904166666666667 0 0  0.495 0 0  0.4995833333333334 0 0  0.5041666666666667 0 0  0.50875 0 0  0.5133333333333334 0 0  0.5179166666666667 0 0  0.5225 0 0  0.5270833333333333 0 0  0.5316666666666667 0 0  0.53625 0 0  0.5408333333333333 0 0  0.5454166666666667 0 0  0.55 0 0  0.5545833333333333 0 0  0.5591666666666667 0 0  0.5637500000000001 0 0  0.5683333333333334 0 0  0.5729166666666666 0 0  0.5775 0 0  0.5820833333333334 0 0  0.5866666666666667 0 0  0.5912499999999999 0 0  0.5958333333333334 0 0  0.6004166666666667 0 0  0.605 0 0  0.6095833333333334 0 0  0.6141666666666667 0 0  0.61875 0 0  0.6233333333333333 0 0  0.6279166666666667 0 0  0.6325000000000001 0 0  0.6370833333333333 0 0  0.6416666666666666 0 0  0.64625 0 0  0.6508333333333334 0 0  0.6554166666666666 0 0  0.6599999999999999 0 0  0.6645833333333334 0 0  0.6691666666666667 0 0  0.67375 0 0  0.6783333333333333 0 0  0.6829166666666667 0 0  0.6875 0 0  0.6920833333333333 0 0  0.6966666666666667 0 0  0.70125 0 0  0.7058333333333333 0 0  0.7104166666666667 0 0  0.7150000000000001 0 0  0.7195833333333334 0 0  0.7241666666666666 0 0  0.72875 0 0  0.7333333333333334 0 0  0.7379166666666667 0 0  0.7425 0 0  0.7470833333333333 0 0  0.7516666666666667 0 0  0.75625 0 0  0.7608333333333334 0 0  0.7654166666666666 0 0  0.7700000000000001 0 0  0 0.002380952380952381 0  0.004583333333333333 0.002380952380952381 0  0.009166666666666667 0.002380952380952381 0  0.01375 0.002380952380952381 0  0.01833333333333333 0.002380952380952381 0  0.02291666666666667 0.002380952380952381 0  0.0275 0.002380952380952381 0  0.03208333333333334 0.002380952380952381 0  0.03666666666666667 0.002380952380952381 0  0.04125 0.002380952380952381 0  0.04583333333333334 0.002380952380952381 0  0.05041666666666667 0.002380952380952381 0  0.055 0.002380952380952381 0  0.05958333333333334 0.002380952380952381 0  0.06416666666666668 0.002380952380952381 0  0.06875000000000001 0.002380952380952381 0  0.07333333333333333 0.002380952380952381 0  0.07791666666666666 0.002380952380952381 0  0.08249999999999999 0.002380952380952381 0  0.08708333333333333 0.002380952380952381 0  0.09166666666666667 0.002380952380952381 0  0.09625000000000002 0.002380952380952381 0  0.1008333333333333 0.002380952380952381 0  0.1054166666666667 0.002380952380952381 0  0.11 0.002380952380952381 0  0.1145833333333333 0.002380952380952381 0  0.1191666666666667 0.002380952380952381 0  0.12375 0.002380952380952381 0  0.1283333333333334 0.002380952380952381 0  0.1329166666666667 0.002380952380952381 0  0.1375 0.002380952380952381 0  0.1420833333333333 0.002380952380952381 0  0.1466666666666667 0.002380952380952381 0  0.15125 0.002380952380952381 0  0.1558333333333333 0.002380952380952381 0  0.1604166666666667 0.002380952380952381 0  0.165 0.002380952380952381 0  0.1695833333333333 0.002380952380952381 0  0.1741666666666667 0.002380952380952381 0  0.17875 0.002380952380952381 0  0.1833333333333333 0.002380952380952381 0  0.1879166666666667 0.002380952380952381 0  0.1925 0.002380952380952381 0  0.1970833333333333 0.002380952380952381 0  0.2016666666666667 0.002380952380952381 0  0.20625 0.002380952380952381 0  0.2108333333333333 0.002380952380952381 0  0.2154166666666666 0.002380952380952381 0  0.22 0.002380952380952381 0  0.2245833333333334 0.002380952380952381 0  0.2291666666666667 0.002380952380952381 0  0.23375 0.002380952380952381 0  0.2383333333333333 0.002380952380952381 0  0.2429166666666667 0.002380952380952381 0  0.2475 0.002380952380952381 0  0.2520833333333333 0.002380952380952381 0  0.2566666666666667 0.002380952380952381 0  0.26125 0.002380952380952381 0  0.2658333333333334 0.002380952380952381 0  0.2704166666666666 0.002380952380952381 0  0.275 0.002380952380952381 0  0.2795833333333334 0.002380952380952381 0  0.2841666666666667 0.002380952380952381 0  0.28875 0.002380952380952381 0  0.2933333333333333 0.002380952380952381 0  0.2979166666666667 0.002380952380952381 0  0.3025 0.002380952380952381 0  0.3070833333333334 0.002380952380952381 0  0.3116666666666666 0.002380952380952381 0  0.31625 0.002380952380952381 0  0.3208333333333333 0.002380952380952381 0  0.3254166666666667 0.002380952380952381 0  0.33 0.002380952380952381 0  0.3345833333333333 0.002380952380952381 0  0.3391666666666667 0.002380952380952381 0  0.34375 0.002380952380952381 0  0.3483333333333333 0.002380952380952381 0  0.3529166666666667 0.002380952380952381 0  0.3575 0.002380952380952381 0  0.3620833333333333 0.002380952380952381 0  0.3666666666666667 0.002380952380952381 0  0.37125 0.002380952380952381 0  0.3758333333333334 0.002380952380952381 0  0.3804166666666667 0.002380952380952381 0  0.3850000000000001 0.002380952380952381 0  0.3895833333333333 0.002380952380952381 0  0.3941666666666667 0.002380952380952381 0  0.39875 0.002380952380952381 0  0.4033333333333334 0.002380952380952381 0  0.4079166666666666 0.002380952380952381 0  0.4125 0.002380952380952381 0  0.4170833333333334 0.002380952380952381 0  0.4216666666666667 0.002380952380952381 0  0.42625 0.002380952380952381 0  0.4308333333333333 0.002380952380952381 0  0.4354166666666667 0.002380952380952381 0  0.44 0.002380952380952381 0  0.4445833333333333 0.002380952380952381 0  0.4491666666666667 0.002380952380952381 0  0.45375 0.002380952380952381 0  0.4583333333333333 0.002380952380952381 0  0.4629166666666666 0.002380952380952381 0  0.4675 0.002380952380952381 0  0.4720833333333334 0.002380952380952381 0  0.4766666666666667 0.002380952380952381 0  0.4812500000000001 0.002380952380952381 0  0.4858333333333333 0.002380952380952381 0  0.4904166666666667 0.002380952380952381 0  0.495 0.002380952380952381 0  0.4995833333333334 0.002380952380952381 0  0.5041666666666667 0.002380952380952381 0  0.50875 0.002380952380952381 0  0.5133333333333334 0.002380952380952381 0  0.5179166666666667 0.002380952380952381 0  0.5225 0.002380952380952381 0  0.5270833333333333 0.002380952380952381 0  0.5316666666666667 0.002380952380952381 0  0.53625 0.002380952380952381 0  0.5408333333333333 0.002380952380952381 0  0.5454166666666667 0.002380952380952381 0  0.55 0.002380952380952381 0  0.5545833333333333 0.002380952380952381 0  0.5591666666666667 0.002380952380952381 0  0.5637500000000001 0.002380952380952381 0  0.5683333333333334 0.002380952380952381 0  0.5729166666666666 0.002380952380952381 0  0.5775 0.002380952380952381 0  0.5820833333333334 0.002380952380952381 0  0.5866666666666667 0.002380952380952381 0  0.5912499999999999 0.002380952380952381 0  0.5958333333333334 0.002380952380952381 0  0.6004166666666667 0.002380952380952381 0  0.605 0.002380952380952381 0  0.6095833333333334 0.002380952380952381 0  0.6141666666666667 0.002380952380952381 0  0.61875 0.002380952380952381 0  0.6233333333333333 0.002380952380952381 0  0.6279166666666667 0.002380952380952381 0  0.6325000000000001 0.002380952380952381 0  0.6370833333333333 0.002380952380952381 0  0.6416666666666666 0.002380952380952381 0  0.64625 0.002380952380952381 0  0.6508333333333334 0.002380952380952381 0  0.6554166666666666 0.002380952380952381 0  0.6599999999999999 0.002380952380952381 0  0.6645833333333334 0.002380952380952381 0  0.6691666666666667 0.002380952380952381 0  0.67375 0.002380952380952381 0  0.6783333333333333 0.002380952380952381 0  0.6829166666666667 0.002380952380952381 0  0.6875 0.002380952380952381 0  0.6920833333333333 0.002380952380952381 0  0.6966666666666667 0.002380952380952381 0  0.70125 0.002380952380952381 0  0.7058333333333333 0.002380952380952381 0  0.7104166666666667 0.002380952380952381 0  0.7150000000000001 0.002380952380952381 
[...]
<PointData  Scalars="concentration"> 
<DataArray  type="Float64"  Name="concentration"  format="ascii">0.0000000000000000e+00  8.0096218647182027e-02  2.3034548117052245e-01  1.7610370178044679e-01  -2.3238446573585324e-02  -1.3067025959312387e-01  -1.7180222968310108e-01  -1.8850685086871752e-01  -1.7735187692018708e-01  -7.9892656105583215e-02  1.1119491365498453e-02  6.9564148385967191e-03  7.4970668941476415e-03  -1.3482898211080142e-03  7.0256196857267092e-03  -9.9092872945288710e-03  1.6339532420207640e-02  -1.2985335605485914e-02  -8.0721497773300864e-03  2.3869349560527706e-02  -2.2693539378516342e-02  1.8351696883980126e-02  -1.2679645557407453e-02  2.2504146508695779e-02  -2.6719217060443348e-02  1.5211582759550191e-02  -9.0241917866520915e-04  8.9245539310761571e-03  -1.0442067292551795e-02  2.2077746686920485e-02  -1.6383575957050277e-02  3.2065534305770055e-02  -2.3062149580201047e-02  4.6664721427928824e-02  -1.9951838712732969e-02  4.7646567336114838e-02  6.0296771206530585e-03  6.6866243714524223e-02  2.5096127717272227e-02  6.6102337382950183e-01  8.8339935983874007e-01  1.0960269262112250e+00  8.7665747944305483e-01  1.0800920710997046e+00  8.8299997279012499e-01  1.0769040549210240e+00  8.8624351997560380e-01  1.0752512032587485e+00  8.8849023459288379e-01  1.0750477097892275e+00  8.9085944887766788e-01  1.0757545176232011e+00  8.9295469390106619e-01  1.0455161073707713e+00  8.8961680726516768e-01  1.0876118530463665e+00  8.7650323832097798e-01  1.1089084678481664e+00  1.0262062253970243e+00  9.7729800934560906e-01  1.0113276998987586e+00  9.8564297892336494e-01  1.0030949473652206e+00  1.0152749324501782e+00  9.9524894165533873e-01  9.6342530672037807e-01  1.0166790653647448e+00  9.7980416732776732e-01  1.0571937680361778e+00  9.7949618732611710e-01  9.8417450869451173e-01  9.3252370835428078e-01  8.6059748884438270e-01  9.0494037781588110e-01  1.0507699418831176e+00  9.7061431843621604e-01  9.6536821913337489e-01  1.0308859777141990e+00  9.0350065525986423e-01  1.1492335154485975e+00  8.0544172015397708e-01  1.1207364720443092e+00  8.5528840714172061e-01  1.1664519640947075e+00  7.9115457590560123e-01  1.2537469747668586e+00  7.1382554969029877e-01  1.3246953092565612e+00  6.5676867269897854e-01  1.3307162899007048e+00  6.7440833814787571e-01  1.3199680562457416e+00  6.9165098277226866e-01  1.3099437140034915e+00  7.0693784523785175e-01  1.2980148397048434e+00  7.2626015067395866e-01  1.2804784300370982e+00  7.5652386850150655e-01  1.2222439857381340e+00  7.7243860641406614e-01  1.2131643360619659e+00  7.8723161644524864e-01  1.2117013083076422e+00  7.9084196994551115e-01  1.2091817721578664e+00  7.9297768140506197e-01  1.2073060030460079e+00  7.9432370684480824e-01  1.2059851273965623e+00  7.9518155664939605e-01  1.2050821550630568e+00  7.9573682909778942e-01  1.2044760819019633e+00  7.9610670796153815e-01  1.2040719759433616e+00  7.9636912219636180e-01  1.2037971758419914e+00  7.9658276369209235e-01  1.2035913688214679e+00  7.9680370162876535e-01  1.2033913684547874e+00  7.9710449797077376e-01  1.2031058928254992e+00  7.9760381709069839e-01  1.2025678917767317e+00  7.9852007128067304e-01  1.2014368392380272e+00  8.0027446062800278e-01  1.1989903872803176e+00  8.0369258011426870e-01  1.1936707547691958e+00  8.1040332428213824e-01  1.1821001439101970e+00  8.2369107693940191e-01  1.1572138891650905e+00  8.5095472785601045e-01  1.1080245384159502e+00  9.1691596265773645e-01  1.0626986690779878e+00  9.5295117103161187e-01  1.0244793143128630e+00  9.7748085425006859e-01  1.0035148535610297e+00  9.9099667988583806e-01  9.9637856544718106e-01  1.0007491610770749e+00  9.9372095806908800e-01  1.0140080014860269e+00  9.9741230585019669e-01  1.0327161541388230e+00  9.9176835756959458e-01  1.0563694756247521e+00  1.0192097006654073e+00  1.2637549703714415e+00  8.9010070758729776e-01  9.4245533714051011e-01  9.7030939626067547e-01  9.8882507646404227e-01  9.9676635197136032e-01  9.9994058126489360e-01  1.0009840397132033e+00  1.0011508252043162e+00  1.0010023985455796e+00  1.0007775551105982e+00  1.0005621661097126e+00  1.0004037251444411e+00  1.0002187400941054e+00  1.0003812600471340e+00  0.0000000000000000e+00  -1.8718469618936029e-02  -1.0170796399823005e-01  6.5390116939563897e-02  6.2680347130348746e-01  9.0464452865560130e-01  9.6998971580005167e-01  9.2654718000709313e-01  9.4138596622633741e-01  3.0984002636761721e-01  1.3932579250382043e-01  8.3861503271748530e-02  4.7690095602764458e-02  3.4964139461762120e-02  1.4032956748944560e-02  2.2501528246248799e-02  -7.6312371586627322e-03  1.9474782510915861e-02  9.6152371759472416e-03  -2.1335930470140482e-02  2.4757488898651411e-02  -1.7310409490514184e-02  1.4266793910830930e-02  -1.9309776150221336e-02  2.9414088666590357e-02  -1.4117434486589949e-02  3.8512643866316369e-03  -4.4799468183069121e-03  1.4985911435858760e-02  -1.5495281418068897e-02  2.4044809071468515e-02  -2.1269395752683464e-02  3.5527021089937258e-02  -2.9374224952543462e-02  4.2316761018380139e-02  -1.9126911597391955e-02  3.3266708632619796e-02  -1.1618588710160197e-02  5.3688531309331662e-02  -2.8666529342643871e-02  7.2959620450287077e-01  2.9988015290974102e-01  8.1592533445552951e-01  3.1046969441200817e-01  8.1100556141057634e-01  3.0905752160214367e-01  8.0625539456628881e-01  3.1060474353526213e-01  8.0371680631316045e-01  3.1480139809031593e-01  8.0559816492415393e-01  3.2468863813847648e-01  8.1618752683679052e-01  3.4688636685008606e-01  7.4509993384559337e-01  3.1009111955856145e-01  7.6659802701513213e-01  3.3190987619172146e-01  8.1589162491119449e-01  1.0612531428826646e+00  9.9065375624919105e-01  1.0297423537374406e+00  9.8321644400453112e-01  9.8678832799943006e-01  1.0376800878815997e+00  1.0362526232912248e+00  9.1521937809959497e-01  9.7032220445102657e-01  8.9299049067351532e-01  1.0653867407976794e+00  1.0159446627570603e+00  9.8956438529448554e-01  8.4368276619160421e-01  2.9613039249103279e-01  1.6540263279018984e-02  1.1341350860611531e-01  9.5012612562765636e-02  1.1187144859125026e-02  7.0446084484894714e-02  -1.4479317932445726e-01  1.5495842121247089e-01  -1.3851250953317995e-01  7.7644644868445245e-02  -1.6156669251396147e-01  1.3096979874999007e-01  -2.2664441448755179e-01  1.9473622706570465e-01  -2.6583413503572423e-01  2.5285708240209759e-01  -2.5244218743420871e-01  2.4637130611393293e-01  -2.3388761062868879e-01  2.4242498214424638e-01  -2.2395965484808447e-01  2.3918641941139207e-01  -2.1584322417892665e-01  2.3476940259534029e-01  -1.9959175576432434e-01  2.2866085527579813e-01  -1.5692640959557458e-01  1.9738834301784897e-01  -1.5117020892080943e-01  1.8295575802597430e-01  -1.5877072525957514e-01  1.7604968311250466e-01  -1.6265619404826656e-01  1.7226435905150819e-01  -1.6461556661098978e-01  1.7015621118880467e-01  -1.6561920488655138e-01  1.6895570687690489e-01  -1.6614187618398840e-01  1.6826185880504516e-01  -1.6640664384711798e-01  1.6786665794884351e-01  -1.6651325500841149e-01  1.6766110239808876e-01  -1.6649838649218454e-01  1.6758683827936191e-01  -1.6635979971944354e-01  1.6760948751584337e-01  -1.6606055097983730e-01  1.6769841517854295e-01  -1.6551881393780510e-01  1.6779981117834389e-01  -1.6458169655021354e-01  1.6778401156477613e-01  -1.6297518224265223e-01  1.6732858863428249e-01  -1.6021540847004476e-01  1.6565055604926562e-01  -1.5545960000905620e-01  1.6088537835254502e-01  -1.4727835220637561e-01  1.4863360333513456e-01  -1.3338333182272114e-01  1.1873938918229113e-01  -1.1064915211165398e-01  4.9712115909252418e-02  -7.5816763463600556e-02  2.1480544158117478e-02  -3.8775600075499017e-02  4.0009337232409464e-04  -2.4157146034735021e-02  -1.5456380852471658e-02  -2.1596285569288894e-02  -2.3400314890507139e-02  -1.5633930920912066e-02  -2.2584483965520041e-02  4.6704344610099700e-03  3.6431183072647257e-03  4.5578226355617826e-02  2.0161846745064643e-02  8.9601585772118811e-02  4.7248985619232527e-03  2.2339785478162244e-01  4.3009107039657379e-01  6.4213912898452818e-01  7.7896066951356635e-01  8.6224908816015244e-01  9.1372297371299427e-01  9.4580799259296156e-01  9.6590611855824893e-01  9.7853093615743258e-01  9.8647324970058414e-01  9.9147603095640724e-01  9.9462264028926384e-01  9.9661134428988418e-01  9.9786980666686587e-01  0.0000000000000000e+00  5.9879236821197871e-04  -1.5844468023611467e-02  1.7261819767681486e-01  5.8496106859204332e-02  6.2638157307085190e-02  5.3131550208630515e-02  7.2329465435673493e-02  2.1983969336896215e-02  -4.0532275530904605e-02  -3.6815618948745257e-02  -2.7520223637046766e-02  -1.4471314268154081e-02  -1.4661978999810447e-02  -2.0725666046635107e-03  -1.4072256195367217e-02  1.1897168668385001e-02  -2.0980376921474010e-02  8.7196033711335228e-04  2.4172715789131702e-02  -2.6123360099567654e-02  2.2445505073019238e-02  -1.4612719036518526e-02  1.7122484097360523e-02  -3.1182704998200757e-02  2.3828785408533226e-02  -1.7984506898313611e-03  5.3903988402942814e-03  -1.1341923080443118e-02  1.9382191221194358e-02  -2.0676537616245091e-02  2.5910940334297743e-02  -3.0420259170765809e-02  3.7300213592940577e-02  -3.8800914554987714e-02  3.2519467004922607e-02  -2.7209055848615712e-02  1.8945191401829185e-02  -3.6146787809933946e-02  4.6230605886801390e-02  -1.0330468574896963e-01  -3.4074863343910265e-02  -8.4889975919021032e-02  -1.5055656112082301e-02  -7.3063812168359027e-02  -7.5086484762872168e-03  -6.7884933167882786e-02  -6.8631432335310881e-03  -6.4874218885143928e-02  -8.3440536600041006e-03  -6.1881106931284520e-02  -7.2747267839625655e-03  -5.2219402107481168e-02  7.1625839383254886e-03  -7.0282738114321773e-03  3.1207599606799943e-02  -2.8585143952884445e-02  1.1784842038342232e-02  -1.0310364470010316e-02  -3.9000923971768894e-02  4.2928669062193793e-03  -2.4171929254818866e-02  1.3765681279077305e-02  1.5297367626868510e-03  -3.3335043248318222e-02  7.1415393704279562e-03  8.0491474512971783e-02  1.6926695026859669e-02  3.7092531010603232e-02  -7.4818513682397572e-02  -3.9541659207675391e-02  -5.2498316346385222e-02  -2.9448554048996663e-02  -1.1476055278859351e-01  3.4587204555606869e-02  -1.1334035148675492e-01  -7.7775530254434608e-02  2.5266973172381273e-03  -6.6201937160919447e-02  1.3218959608935599e-01  -1.9193735606555357e-01  1.2602043188514622e-01  -9.7406150300054367e-02  1.4374046001807350e-01  -1.5966660903847510e-01  1.9925581392413838e-01  -2.4566829158593334e-01  2.2444571744746891e-01  -3.0994482041553556e-01  2.1917092501723390e-01  -2.9035913148951698e-01  2.1439740415858341e-01  -2.7282626629984236e-01  2.1666620543280418e-01  -2.6140924653528080e-01  2.1517602151919263e-01  -2.5407043592600764e-01  2.0256075210150815e-01  -2.4438876908324492e-01  1.7239442913838451e-01  -1.9829952576539281e-01  1.6704106105702413e-01  -1.8121471145687673e-01  1.7759927878254897e-01  -1.7339953532604768e-01  1.8165265264518096e-01  -1.7040345671169069e-01  1.8270296093614380e-01  -1.6954593738908558e-01  1.8259172957564518e-01  -1.6952526043857283e-01  1.8214424924363684e-01  -1.6975236326541274e-01  1.8169813948859917e-01  -1.6997643721772490e-01  1.8137444157769320e-01  -1.7009338463273030e-01  1.8120766381291101e-01  -1.7005008722185458e-01  1.8120447053110297e-01  -1.6979366821768166e-01  1.8136686398069130e-01  -1.6923647192959471e-01  1.8169548919034473e-01  -1.6821694786086369e-01  1.8217538185769727e-01  -1.6643641362138251e-01  1.8273381591427584e-01  -1.6334071196011721e-01  1.8314066342239202e-01  -1.5788703952146751e-01  1.8278394003157267e-01  -1.4807127058014605e-01  1.8017404807783791e-01  -1.2995323626020994e-01  1.7184791290195783e-01  -9.5834308923353345e-02  1.4990773946561731e-01  -3.2525024201795288e-02  9.5778277841584103e-02  -1.6702833357110387e-02  4.4213305097894999e-02  -3.0958817787817322e-03  2.0021936468559945e-02  5.6473233588430361e-03  7.6986627932577167e-03  3.9930120637180783e-03  -8.1880509492078743e-03  -4.7086979650073678e-03  -3.3067440803491881e-02  -2.7504351376939601e-02  -5.9889873762396441e-02  -2.1827628926587666e-02  -7.3378684712808714e-02  3.1318768168910951e-02  -7.2758495710573370e-02  1.2237026977936639e-01  4.4293777140176110e-01  6.5460601311205235e-01  7.8552441050252841e-01  8.6648883431762591e-01  9.1664546340375275e-01  9.4781935967149611e-01  9.6726002031389102e-01  9.7942009446292777e-01  9.8704381524476370e-01  9.9183352439157491e-01  9.9485113467491959e-01  9.9673186655003010e-01  0.0000000000000000e+00  -4.8976343390036469e-03  3.6126737732650550e-02  -8.7536372584634467e-02  -5.6123936012994566e-03  -9.8541246446723595e-03  -7.2502699472271597e-03  -3.8760755946247699e-02  -4.0691589153285156e-02  -1.1046013996045110e-02  1.1508543120930367e-03  6.0157318653762800e-03  1.8538313951106109e-03  6.8370637882120807e-03  -1.9681234707765350e-03  9.2250696025532042e-03  -1.3334777297187619e-02  2.4589948785358130e-02  -1.9249281726337025e-02  -2.5293269754071528e-02  3.0433345806665145e-02  -2.9524979395283753e-02  1.8109971439274231e-02  -1.1652565717976704e-02  3.2665457660490338e-02  -4.0304178979404998e-02  2.9162680318675005e-03  -2.0152249166981427e-03  1.0037407111572753e-02  -1.9481487443515858e-02  2.2086968746025171e-02  -2.5234006329157222e-02  3.0858176455528491e-02  -3.8894840723671768e-02  4.4252826588174192e-02  -4.2180977779147380e-02  3.1042345290344844e-02  -2.2338693774403260e-02  2.4540507909103903e-02  -4.5618631514117658e-02  5.9428776792513051e-02  -2.0248480643590460e-03  3.9515039449875888e-02  -1.7054555611635120e-02  2.9812109987730602e-02  -2.4011687824485109e-02  2.2945250183446824e-02  -2.7745487942639601e-02  1.5309417443509015e-02  -3.2384495565423603e-02  4.9014491026034973e-03  -4.3964906974358904e-02  -1.4908301996588416e-02  -7.2838325629975623e-02  -7.7613687851263727e-02  -6.5810799593799360e-02  1.7654336351958278e-02  3.1673370365913250e-02  6.3451557546578954e-02  6.6731679531908686e-02  6.9607892093924107e-03  2.9728495903847539e-02  -2.2783376978265959e-02  -3.5440243918720953e-03  2.0316784000201253e-02  -4.8514828631789172e-02  -1.3159075923332286e-01  -3.9993169686915880e-02  -1.8409574775478416e-02  1.0730732424547988e-01  2.9042161916992961e-02  2.5063342032908428e-02  -3.1926878164086812e-02  7.4605422119697437e-02  4.1342427221442522e-03  1.8430457045143617e-01  5.0877671526095555e-02  -2.4520385756330157e-02  5.4476262066885786e-02  -1.0060199677701359e-01  2.6340665004896646e-01  -9.2645037934607641e-02  1.4581063807162545e-01  -1.0341439475652141e-01  2.0771306553041211e-01  -1.7055809568874208e-01  3.0309240774681756e-01  -2.0046044971223040e-01  3.3926595348991856e-01  -2.6350012250342897e-01  2.4756297983167139e-01  -3.2837626167145878e-01  1.7026151928305888e-01  -3.7941434721678008e-01  1.2205762986628078e-01  -4.0905647942282558e-01  8.9194183509004835e-02  -4.2468898324021781e-01  5.0534082478634904e-02  -4.3588468543135500e-01  -4.3626179359766530e-02  -3.9261598865130026e-01  1.6625062947064968e-02  -3.4562013886884357e-01  5.3374774206595796e-02  -3.1602460205587246e-01  7.6652175945585876e-02  -2.9696619293169330e-01  9.1724853780221327e-02  -2.8451002636547529e-01  1.0161076642871363e-01  -2.7629854946748095e-01  1.0814372208832161e-01  -2.7085296634569511e-01  1.1248584232281413e-01  -2.6721340081600775e-01  1.1539485217602752e-01  -2.6473882902841689e-01  1.1737355810370541e-01  -2.6298519348467231e-01  1.1875846221309179e-01  -2.6162160644986959e-01  1.1977304442041002e-01  -2.6036077007361985e-01  1.2055635437517531e-01  -2.5888200208696843e-01  1.2116907562811288e-01  -2.5671534793126205e-01  1.2157243891540050e-01  -2.5302600218261340e-01  1.2156863285130538e-01  -2.4616736662080144e-01  1.2068751067937955e-01  -2.3270261515981958e-01  1.1802782264167763e-01  -2.0517288078542115e-01  1.1232940898727994e-01  -1.4682710846711580e-01  1.0455574536226561e-01  -1.7899845211783862e-02  1.3834686221611042e-01  8.6768307782317367e-02  1.6099445287715111e-01  1.5059483719067035e-01  1.8676127791561883e-01  2.0325025750261574e-01  2.2908880407494661e-01  2.6171571065474980e-01  2.7786942518081142e-01  3.2162678284793378e-01  2.7274317088443484e-01  2.5822283503302573e-01  2.0352803056388372e-01  2.0321576850171100e-01  6.3763307000809316e-02  1.9249222275715216e-01  3.5428112244513976e-01  5.6665631497054414e-01  7.2680796952241500e-01  8.3032977701770672e-01  8.9491042835116974e-01  9.3480308205042473e-01  9.5943060778451850e-01  9.7467562735568536e-01  9.8414653926009088e-01  9.9005087453134544e-01  9.9374336422363185e-01  9.9604937861241649e-01  9.9750806950667104e-01  0.0000000000000000e+00  9.2726104829800350e-03  -3.4167952427383373e-02  4.8374787796942494e-02  -7.6702853906525544e-03  -5.7641608287136090e-03  -1.5355127459295913e-02  1.3027869937361639e-03  1.5235588390911155e-02  8.7932332971464265e-03  4.2272773160735230e-03  -1.0876586361867550e-03  1.6271821877497864e-03  -3.0266576674513909e-03  5.3176984674145429e-03  -1.8321334104364922e-03  1.6985289272300082e-02  -2.3532216734846453e-02  5.0946896174605474e-02  2.3073511310874009e-02  -3.7058489257478150e-02  4.0227562922408859e-02  -2.4747096882743572e-02  6.1168268924566109e-03  -2.7056332423329211e-02  6.7652365053601671e-02  -9.0021992006602165e-03  -5.6594376321812230e-03  -1.0312287372566221e-02  1.5821563848320525e-02  -2.8496451270024505e-02  1.9682008065750139e-02  -3.5464136367681177e-02  3.5695187652817879e-02  -5.4809497411539829e-02  5.0797810506026275e-02  -4.4220433485919940e-02  2.4315043857572334e-02  -2.1878515777641196e-02  3.4890259393114541e-02  -4.0937704437020529e-02  8.7135517154336862e-03  -2.8403288603543030e-02  1.3934572410990886e-02  -2.6287481581140561e-02  1.3147180839422982e-02  -2.6473186151318859e-02  8.3777259057428409e-03  -2.8498297349968626e-02  -3.1178710343348476e-04  -3.5128293270746895e-02  -1.2865885871024607e-02  -5.1689138575762260e-02  -3.7653691371986424e-02  -9.2403611862547030e-02  -5.5964459823439471e-02  8.8799801775390069e-03  -1.7664230259015153e-02  1.0393850405151853e-01  8.6913246432012061e-03  2.9341033647913999e-02  -3.3012334454079091e-02  -1.5653091666588937e-03  -6.5851812623748382e-02  -1.1163572780763981e-01  -3.3337428245448809e-02  -3.6260512334026426e-02  -3.6933952838012159e-02  -1.2124839902097446e-03  4.3862358454619076e-02  4.7297972315055677e-02  -1.3133675703230401e-03  4.2308144880807329e-02  -9.6514886245139667e-02  -1.3446615400809805e-01  -9.4149284016374277e-02  3.6369838310836032e-02  3.6415290108890705e-02  -8.3323202893086673e-02  -5.1615096898070263e-02  -1.1591228772458524e-01  5.7203667331546504e-01  3.1412996025588436e-01  7.5619898807434605e-01  3.1446376720317815e-01  8.8125646768294497e-01  1.5078651126815495e-01  1.0461160782010619e+00  5.0680623856393082e-04  9.6742734112024664e-01  -1.3770438241047981e-02  8.8621825646879637e-01  -1.3791430960101653e-02  8.4919856661452919e-01  -2.1202278114908740e-02  8.3719252510013509e-01  -2.3724768672970145e-02  8.3501963284089631e-01  -2.6513281695682338e-02  8.2073255941820711e-01  -1.4348449275751551e-01  1.0767924189696778e+00  -1.2194841145111747e-01  1.0781813668878275e+00  -1.2689296961374494e-01  1.0722115379340336e+00  -1.3222632672174794e-01  1.0669770714333089e+00  -1.3642560949953580e-01  1.0630661519701561e+00  -1.3946530227865989e-01  1.0603000200061583e+00  -1.4157410172065932e-01  1.0583972277626907e+00  -1.4299618118532156e-01  1.0571076727684068e+00  -1.4392777671935356e-01  1.0562373007711086e+00  -1.4450624281689720e-01  1.0556414447656601e+00  -1.4481209505476611e-01  1.0552089188004441e+00  -1.4486764124196236e-01  1.0548419981536943e+00  -1.4462150603330337e-01  1.0544295534528689e+00  -1.4390485120025612e-01  1.0538033481556357e+00  -1.4233286931688760e-01  1.0526539357105182e+00  -1.3910154373540840e-01  1.0503468977248673e+00  -1.3260046754662186e-01  1.0454595353095595e+00  -1.1977434284085624e-01  1.0344086209890362e+00  -9.5704458294072065e-02  1.0064291308098015e+00  -5.6925966159882310e-02  9.3803105698969436e-01  4.24093352597