<?xml version="1.0"?>
<VTKFile type="UnstructuredGrid"  version="0.1"  >
<UnstructuredGrid>
<Piece  NumberOfPoints="21400" NumberOfCells="42336">
<Points>
<DataArray  type="Float64"  NumberOfComponents="3"  format="ascii">0 0 0  0.004583333333333333 0 0  0.009166666666666667 0 0  0.01375 0 0  0.01833333333333333 0 0  0.02291666666666667 0 0  0.0275 0 0  0.03208333333333334 0 0  0.03666666666666667 0 0  0.04125 0 0  0.04583333333333334 0 0  0.05041666666666667 0 0  0.055 0 0  0.05958333333333334 0 0  0.06416666666666668 0 0  0.06875000000000001 0 0  0.07333333333333333 0 0  0.07791666666666666 0 0  0.08249999999999999 0 0  0.08708333333333333 0 0  0.09166666666666667 0 0  0.09625000000000002 0 0  0.1008333333333333 0 0  0.1054166666666667 0 0  0.11 0 0  0.1145833333333333 0 0  0.1191666666666667 0 0  0.12375 0 0  0.1283333333333334 0 0  0.1329166666666667 0 0  0.1375 0 0  0.1420833333333333 0 0  0.1466666666666667 0 0  0.15125 0 0  0.1558333333333333 0 0  0.1604166666666667 0 0  0.165 0 0  0.1695833333333333 0 0  0.1741666666666667 0 0  0.17875 0 0  0.1833333333333333 0 0  0.1879166666666667 0 0  0.1925 0 0  0.1970833333333333 0 0  0.2016666666666667 0 0  0.20625 0 0  0.2108333333333333 0 0  0.2154166666666666 0 0  0.22 0 0  0.2245833333333334 0 0  0.2291666666666667 0 0  0.23375 0 0  0.2383333333333333 0 0  0.2429166666666667 0 0  0.2475 0 0  0.2520833333333333 0 0  0.2566666666666667 0 0  0.26125 0 0  0.2658333333333334 0 0  0.2704166666666666 0 0  0.275 0 0  0.2795833333333334 0 0  0.2841666666666667 0 0  0.28875 0 0  0.2933333333333333 0 0  0.2979166666666667 0 0  0.3025 0 0  0.3070833333333334 0 0  0.3116666666666666 0 0  0.31625 0 0  0.3208333333333333 0 0  0.3254166666666667 0 0  0.33 0 0  0.3345833333333333 0 0  0.3391666666666667 0 0  0.34375 0 0  0.3483333333333333 0 0  0.3529166666666667 0 0  0.3575 0 0  0.3620833333333333 0 0  0.3666666666666667 0 0  0.37125 0 0  0.3758333333333334 0 0  0.3804166666666667 0 0  0.3850000000000001 0 0  0.3895833333333333 0 0  0.3941666666666667 0 0  0.39875 0 0  0.4033333333333334 0 0  0.4079166666666666 0 0  0.4125 0 0  0.4170833333333334 0 0  0.4216666666666667 0 0  0.42625 0 0  0.4308333333333333 0 0  0.4354166666666667 0 0  0.44 0 0  0.4445833333333333 0 0  0.4491666666666667 0 0  0.45375 0 0  0.4583333333333333 0 0  0.4629166666666666 0 0  0.4675 0 0  0.4720833333333334 0 0  0.4766666666666667 0 0  0.4812500000000001 0 0  0.4858333333333333 0 0  0.4904166666666667 0 0  0.495 0 0  0.4995833333333334 0 0  0.5041666666666667 0 0  0.50875 0 0  0.5133333333333334 0 0  0.5179166666666667 0 0  0.5225 0 0  0.5270833333333333 0 0  0.5316666666666667 0 0  0.53625 0 0  0.5408333333333333 0 0  0.5454166666666667 0 0  0.55 0 0  0.5545833333333333 0 0  0.5591666666666667 0 0  0.5637500000000001 0 0  0.5683333333333334 0 0  0.5729166666666666 0 0  0.5775 0 0  0.5820833333333334 0 0  0.5866666666666667 0 0  0.5912499999999999 0 0  0.5958333333333334 0 0  0.6004166666666667 0 0  0.605 0 0  0.6095833333333334 0 0  0.6141666666666667 0 0  0.61875 0 0  0.6233333333333333 0 0  0.6279166666666667 0 0  0.6325000000000001 0 0  0.6370833333333333 0 0  0.6416666666666666 0 0  0.64625 0 0  0.6508333333333334 0 0  0.6554166666666666 0 0  0.6599999999999999 0 0  0.6645833333333334 0 0  0.6691666666666667 0 0  0.67375 0 0  0.6783333333333333 0 0  0.6829166666666667 0 0  0.6875 0 0  0.6920833333333333 0 0  0.6966666666666667 0 0  0.70125 0 0  0.7058333333333333 0 0  0.7104166666666667 0 0  0.7150000000000001 0 0  0.7195833333333334 0 0  0.7241666666666666 0 0  0.72875 0 0  0.7333333333333334 0 0  0.7379166666666667 0 0  0.7425 0 0  0.7470833333333333 0 0  0.7516666666666667 0 0  0.75625 0 0  0.7608333333333334 0 0  0.7654166666666666 0 0  0.7700000000000001 0 0  0 0.002380952380952381 0  0.004583333333333333 0.002380952380952381 0  0.009166666666666667 0.002380952380952381 0  0.01375 0.002380952380952381 0  0.01833333333333333 0.002380952380952381 0  0.02291666666666667 0.002380952380952381 0  0.0275 0.002380952380952381 0  0.03208333333333334 0.002380952380952381 0  0.03666666666666667 0.002380952380952381 0  0.04125 0.002380952380952381 0  0.04583333333333334 0.002380952380952381 0  0.05041666666666667 0.002380952380952381 0  0.055 0.002380952380952381 0  0.05958333333333334 0.002380952380952381 0  0.06416666666666668 0.002380952380952381 0  0.06875000000000001 0.002380952380952381 0  0.07333333333333333 0.002380952380952381 0  0.07791666666666666 0.002380952380952381 0  0.08249999999999999 0.002380952380952381 0  0.08708333333333333 0.002380952380952381 0  0.09166666666666667 0.002380952380952381 0  0.09625000000000002 0.002380952380952381 0  0.1008333333333333 0.002380952380952381 0  0.1054166666666667 0.002380952380952381 0  0.11 0.002380952380952381 0  0.1145833333333333 0.002380952380952381 0  0.1191666666666667 0.002380952380952381 0  0.12375 0.002380952380952381 0  0.1283333333333334 0.002380952380952381 0  0.1329166666666667 0.002380952380952381 0  0.1375 0.002380952380952381 0  0.1420833333333333 0.002380952380952381 0  0.1466666666666667 0.002380952380952381 0  0.15125 0.002380952380952381 0  0.1558333333333333 0.002380952380952381 0  0.1604166666666667 0.002380952380952381 0  0.165 0.002380952380952381 0  0.1695833333333333 0.002380952380952381 0  0.1741666666666667 0.002380952380952381 0  0.17875 0.002380952380952381 0  0.1833333333333333 0.002380952380952381 0  0.1879166666666667 0.002380952380952381 0  0.1925 0.002380952380952381 0  0.1970833333333333 0.002380952380952381 0  0.2016666666666667 0.002380952380952381 0  0.20625 0.002380952380952381 0  0.2108333333333333 0.002380952380952381 0  0.2154166666666666 0.002380952380952381 0  0.22 0.002380952380952381 0  0.2245833333333334 0.002380952380952381 0  0.2291666666666667 0.002380952380952381 0  0.23375 0.002380952380952381 0  0.2383333333333333 0.002380952380952381 0  0.2429166666666667 0.002380952380952381 0  0.2475 0.002380952380952381 0  0.2520833333333333 0.002380952380952381 0  0.2566666666666667 0.002380952380952381 0  0.26125 0.002380952380952381 0  0.2658333333333334 0.002380952380952381 0  0.2704166666666666 0.002380952380952381 0  0.275 0.002380952380952381 0  0.2795833333333334 0.002380952380952381 0  0.2841666666666667 0.002380952380952381 0  0.28875 0.002380952380952381 0  0.2933333333333333 0.002380952380952381 0  0.2979166666666667 0.002380952380952381 0  0.3025 0.002380952380952381 0  0.3070833333333334 0.002380952380952381 0  0.3116666666666666 0.002380952380952381 0  0.31625 0.002380952380952381 0  0.3208333333333333 0.002380952380952381 0  0.3254166666666667 0.002380952380952381 0  0.33 0.002380952380952381 0  0.3345833333333333 0.002380952380952381 0  0.3391666666666667 0.002380952380952381 0  0.34375 0.002380952380952381 0  0.3483333333333333 0.002380952380952381 0  0.3529166666666667 0.002380952380952381 0  0.3575 0.002380952380952381 0  0.3620833333333333 0.002380952380952381 0  0.3666666666666667 0.002380952380952381 0  0.37125 0.002380952380952381 0  0.3758333333333334 0.002380952380952381 0  0.3804166666666667 0.002380952380952381 0  0.3850000000000001 0.002380952380952381 0  0.3895833333333333 0.002380952380952381 0  0.3941666666666667 0.002380952380952381 0  0.39875 0.002380952380952381 0  0.4033333333333334 0.002380952380952381 0  0.4079166666666666 0.002380952380952381 0  0.4125 0.002380952380952381 0  0.4170833333333334 0.002380952380952381 0  0.4216666666666667 0.002380952380952381 0  0.42625 0.002380952380952381 0  0.4308333333333333 0.002380952380952381 0  0.4354166666666667 0.002380952380952381 0  0.44 0.002380952380952381 0  0.4445833333333333 0.002380952380952381 0  0.4491666666666667 0.002380952380952381 0  0.45375 0.002380952380952381 0  0.4583333333333333 0.002380952380952381 0  0.4629166666666666 0.002380952380952381 0  0.4675 0.002380952380952381 0  0.4720833333333334 0.002380952380952381 0  0.4766666666666667 0.002380952380952381 0  0.4812500000000001 0.002380952380952381 0  0.4858333333333333 0.002380952380952381 0  0.4904166666666667 0.002380952380952381 0  0.495 0.002380952380952381 0  0.4995833333333334 0.002380952380952381 0  0.5041666666666667 0.002380952380952381 0  0.50875 0.002380952380952381 0  0.5133333333333334 0.002380952380952381 0  0.5179166666666667 0.002380952380952381 0  0.5225 0.002380952380952381 0  0.5270833333333333 0.002380952380952381 0  0.5316666666666667 0.002380952380952381 0  0.53625 0.002380952380952381 0  0.5408333333333333 0.002380952380952381 0  0.5454166666666667 0.002380952380952381 0  0.55 0.002380952380952381 0  0.5545833333333333 0.002380952380952381 0  0.5591666666666667 0.002380952380952381 0  0.5637500000000001 0.002380952380952381 0  0.5683333333333334 0.002380952380952381 0  0.5729166666666666 0.002380952380952381 0  0.5775 0.002380952380952381 0  0.5820833333333334 0.002380952380952381 0  0.5866666666666667 0.002380952380952381 0  0.5912499999999999 0.002380952380952381 0  0.5958333333333334 0.002380952380952381 0  0.6004166666666667 0.002380952380952381 0  0.605 0.002380952380952381 0  0.6095833333333334 0.002380952380952381 0  0.6141666666666667 0.002380952380952381 0  0.61875 0.002380952380952381 0  0.6233333333333333 0.002380952380952381 0  0.6279166666666667 0.002380952380952381 0  0.6325000000000001 0.002380952380952381 0  0.6370833333333333 0.002380952380952381 0  0.6416666666666666 0.002380952380952381 0  0.64625 0.002380952380952381 0  0.6508333333333334 0.002380952380952381 0  0.6554166666666666 0.002380952380952381 0  0.6599999999999999 0.002380952380952381 0  0.6645833333333334 0.002380952380952381 0  0.6691666666666667 0.002380952380952381 0  0.67375 0.002380952380952381 0  0.6783333333333333 0.002380952380952381 0  0.6829166666666667 0.002380952380952381 0  0.6875 0.002380952380952381 0  0.6920833333333333 0.002380952380952381 0  0.6966666666666667 0.002380952380952381 0  0.70125 0.002380952380952381 0  0.7058333333333333 0.002380952380952381 0  0.7104166666666667 0.002380952380952381 0  0.7150000000000001 0.002380952380952381 
[...]
<PointData  Scalars="concentration"> 
<DataArray  type="Float64"  Name="concentration"  format="ascii">0.0000000000000000e+00  8.0113687455972221e-02  2.3032752614959925e-01  1.7611713973999368e-01  -2.3257908627308959e-02  -1.3066766620116910e-01  -1.7184613111183633e-01  -1.8851620871467653e-01  -1.7743135719598324e-01  -7.9927912737233847e-02  1.0948889583697795e-02  6.9091771184922185e-03  7.2559383197833014e-03  -1.4583688754646665e-03  6.6950663154376547e-03  -1.0185604142609699e-02  1.5901363347398903e-02  -1.3265344915618777e-02  -8.8580607261652053e-03  2.2977858310637936e-02  -2.2674515564298857e-02  1.4838148788961383e-02  -1.0489569563261886e-02  2.0217127833879901e-02  -1.4098079674639727e-02  -1.2462888824383823e-02  4.1415004948762574e-01  1.0025541515200780e+00  9.9379933893341432e-01  1.0158433361806045e+00  9.8252997549271470e-01  1.0252115921916705e+00  9.7368552112762974e-01  1.0384737852670203e+00  9.6244015951667794e-01  1.0451860303783276e+00  9.8058763352298861e-01  1.0450205081703381e+00  1.0349032158940539e+00  1.1544472027146975e+00  8.4379823160761336e-01  1.1247959400983394e+00  8.2721919069914684e-01  1.1229047776846497e+00  8.1786368887524696e-01  1.1308933945979558e+00  8.0967531105188018e-01  1.1399065602169203e+00  8.0576682117605203e-01  1.1451740913059398e+00  8.1212646697653279e-01  1.1469936091024613e+00  8.1546197085743055e-01  1.0865329569252224e+00  8.0632959750670119e-01  1.1429225354316697e+00  8.3598086939263683e-01  1.2459838457635486e+00  9.6027645043034304e-01  1.0041065260622475e+00  9.1699569674652326e-01  1.0981935702660097e+00  9.0098405329789355e-01  1.0619558070625836e+00  9.3411737968370734e-01  1.0647998626360844e+00  9.6663704197543621e-01  1.0140910808418642e+00  9.6572203341680318e-01  1.0105648259772575e+00  9.3934506721339162e-01  9.8684203141075111e-01  6.9135385560391560e-01  1.0221338266895210e+00  9.5021306922969528e-01  1.0256629291507320e+00  1.0034142850625150e+00  9.8005286301391936e-01  1.0515490498640216e+00  1.0157244308184581e+00  1.2588964305331631e+00  8.9114392658644137e-01  9.4262614077820162e-01  9.7040013411164749e-01  9.8883338386889963e-01  9.9674546047218582e-01  9.9991388343666854e-01  1.0009610764128545e+00  1.0011344576127357e+00  1.0009930373226146e+00  1.0007733726669599e+00  1.0005662139898848e+00  1.0003991529732883e+00  1.0002743462587944e+00  1.0001852029959803e+00  1.0001233714697499e+00  1.0000813521954059e+00  1.0000532206455712e+00  1.0000345984529055e+00  1.0000223786110338e+00  1.0000144152045789e+00  1.0000092542680883e+00  1.0000059245200277e+00  1.0000037840787133e+00  1.0000024122945141e+00  1.0000015353257459e+00  1.0000009758508792e+00  1.0000006195443185e+00  1.0000003929568331e+00  1.0000002490379720e+00  1.0000001577207078e+00  1.0000000998296941e+00  1.0000000631563275e+00  1.0000000399385482e+00  1.0000000252471968e+00  1.0000000159552087e+00  1.0000000100804411e+00  1.0000000063673833e+00  1.0000000040212422e+00  1.0000000025391580e+00  1.0000000016030941e+00  1.0000000010119918e+00  1.0000000006387779e+00  1.0000000004031677e+00  1.0000000002544409e+00  1.0000000001605689e+00  1.0000000001013243e+00  1.0000000000639351e+00  1.0000000000403420e+00  1.0000000000254539e+00  1.0000000000160605e+00  1.0000000000101337e+00  1.0000000000063933e+00  1.0000000000040339e+00  1.0000000000025480e+00  1.0000000000016069e+00  1.0000000000010141e+00  1.0000000000006393e+00  1.0000000000004037e+00  1.0000000000002545e+00  1.0000000000001614e+00  1.0000000000001030e+00  1.0000000000000653e+00  1.0000000000000417e+00  1.0000000000000273e+00  1.0000000000000178e+00  1.0000000000000113e+00  1.0000000000000084e+00  1.0000000000000060e+00  1.0000000000000038e+00  1.0000000000000036e+00  1.0000000000000036e+00  1.0000000000000018e+00  1.0000000000000018e+00  1.0000000000000018e+00  1.0000000000000016e+00  1.0000000000000031e+00  1.0000000000000016e+00  1.0000000000000042e+00  1.0000000000000033e+00  1.0000000000000024e+00  1.0000000000000029e+00  1.0000000000000009e+00  1.0000000000000013e+00  1.0000000000000004e+00  1.0000000000000004e+00  1.0000000000000009e+00  1.0000000000000011e+00  1.0000000000000004e+00  0.0000000000000000e+00  -1.8738819208545220e-02  -1.0169913105049069e-01  6.5365861407804982e-02  6.2681436065823615e-01  9.0459455247955101e-01  9.7000651263749116e-01  9.2646383725894799e-01  9.4140489041928266e-01  3.0973785379247287e-01  1.3933474145471217e-01  8.3702334923261096e-02  4.7663418331265424e-02  3.4729449625738248e-02  1.3922488341175373e-02  2.2206583159231932e-02  -7.9187222385192560e-03  1.8866880379899219e-02  9.2813276851461662e-03  -2.1887427144380630e-02  2.3067761124334132e-02  -1.6139055874811615e-02  9.3888343880378835e-03  -1.9787518961134263e-02  1.5654953921964490e-02  7.7382890796650278e-03  -5.2109302151082448e-02  -3.3933899681306480e-02  -1.0395243595607829e-02  -2.4957054711540139e-02  8.1279616170807784e-03  -2.1351762041538810e-02  2.7287271926763668e-02  -2.3212272001489502e-02  4.5651248918260029e-02  -2.2722876361558630e-02  5.1196491703160422e-02  1.5603432698677894e-02  8.0243376886795628e-02  9.0074842740630559e-02  6.9418093830791017e-01  3.0777484311603831e-01  7.6466055000527555e-01  3.2671595980773094e-01  7.6287270304656873e-01  3.3031248258865609e-01  7.6000369293563308e-01  3.3396589130526133e-01  7.6339446440716630e-01  3.4289966103181885e-01  7.7191433557147515e-01  3.6193317813512255e-01  8.0299148205596471e-01  3.9766581332103912e-01  7.4041492270240439e-01  3.0070776314247177e-01  7.0034254758139547e-01  3.2230217919547133e-01  8.8376537020590074e-01  1.0615197665339384e+00  1.1336977581677179e+00  8.6579337135488144e-01  1.1760450671696281e+00  8.7841514603156601e-01  1.0706284488908162e+00  8.7123764572723483e-01  1.0515440943421861e+00  9.6485715448489029e-01  1.0132304951628996e+00  9.2267129454362284e-01  9.7396009845701392e-01  8.3370454518573822e-01  9.7460431642942869e-01  2.3238372996184106e-01  1.2881581583487214e-01  4.3396909675825476e-02  6.9246525070375778e-02  8.1394893862923534e-02  4.0126454524120420e-02  1.0245307593098742e-01  1.4081492297669720e-02  2.2902360092390800e-01  4.3493392135734071e-01  6.4520173672130610e-01  7.8082195518449393e-01  8.6337259022424540e-01  9.1439262321809678e-01  9.4619990697981926e-01  9.6612969824261075e-01  9.7865382954689539e-01  9.8653798518606761e-01  9.9150659828451126e-01  9.9463997846072649e-01  9.9661685627603558e-01  9.9786442714786017e-01  9.9865187781860210e-01  9.9914895506201873e-01  9.9946275056909506e-01  9.9966084791355958e-01  9.9978590579704962e-01  9.9986485331878416e-01  9.9991469097021413e-01  9.9994615152186905e-01  9.9996601081617087e-01  9.9997854654672391e-01  9.9998645923213514e-01  9.9999145367301479e-01  9.9999460605650647e-01  9.9999659572603616e-01  9.9999785150489984e-01  9.9999864407244987e-01  9.9999914428071524e-01  9.9999945996824757e-01  9.9999965919905154e-01  9.9999978493181840e-01  9.9999986427941945e-01  9.9999991435348656e-01  9.9999994595340147e-01  9.9999996589469820e-01  9.9999997847859923e-01  9.9999998641954324e-01  9.9999999143053719e-01  9.9999999459260414e-01  9.9999999658792582e-01  9.9999999784699900e-01  9.9999999864148126e-01  9.9999999914279858e-01  9.9999999945912699e-01  9.9999999965872521e-01  9.9999999978466825e-01  9.9999999986413446e-01  9.9999999991427546e-01  9.9999999994591282e-01  9.9999999996587430e-01  9.9999999997846700e-01  9.9999999998641542e-01  9.9999999999142952e-01  9.9999999999459377e-01  9.9999999999658928e-01  9.9999999999784894e-01  9.9999999999864297e-01  9.9999999999914357e-01  9.9999999999946010e-01  9.9999999999965983e-01  9.9999999999978584e-01  9.9999999999986589e-01  9.9999999999991629e-01  9.9999999999994726e-01  9.9999999999996736e-01  9.9999999999998035e-01  9.9999999999998812e-01  9.9999999999999278e-01  9.9999999999999722e-01  9.9999999999999867e-01  9.9999999999999967e-01  1.0000000000000007e+00  9.9999999999999978e-01  1.0000000000000018e+00  9.9999999999999989e-01  1.0000000000000004e+00  1.0000000000000013e+00  1.0000000000000009e+00  1.0000000000000024e+00  1.0000000000000018e+00  1.0000000000000022e+00  1.0000000000000016e+00  1.0000000000000011e+00  1.0000000000000004e+00  1.0000000000000009e+00  0.0000000000000000e+00  6.1320051650700898e-04  -1.5862059416964190e-02  1.7262643894970223e-01  5.8469467449770926e-02  6.2645445280127970e-02  5.3086581241232195e-02  7.2337962752944504e-02  2.1909935354756424e-02  -4.0523659217288122e-02  -3.6935407458144755e-02  -2.7491552638310515e-02  -1.4617605660409342e-02  -1.4632015672889456e-02  -2.2461050663322682e-03  -1.4105246919462465e-02  1.1738522666782955e-02  -2.1033581268626946e-02  3.3933356295046878e-04  2.3747269701936306e-02  -2.6100023211969060e-02  1.9813781350458637e-02  -1.2053298113142239e-02  1.2569152767740956e-02  -2.8626425845591441e-02  -2.7025979903050629e-03  2.3552475221643707e-02  9.2849139139275436e-03  -2.1356926421491028e-03  1.9471363378180232e-02  -9.7081731661752338e-03  2.5159153924324350e-02  -1.9830287587325694e-02  3.7835504020037422e-02  -2.7254320720950173e-02  5.3911965725110519e-02  -1.5297672654984114e-02  4.1957122452449223e-02  -1.2056874593942945e-03  3.6797859345569985e-02  -6.7837324962560425e-02  -1.2727203588464842e-02  -5.9952756693963404e-02  -9.8664401963510454e-03  -5.4437101690137817e-02  -9.7570427288047098e-03  -5.3392142698614489e-02  -1.2543881655706626e-02  -5.4394547295732655e-02  -1.8248147563421357e-02  -5.3026303315626348e-02  -2.6504185425734995e-02  -4.9425280822607262e-02  -2.2856029094750333e-02  -5.1755704754602892e-03  5.9462287398555191e-02  -2.8364080854150445e-02  -5.1700810757182671e-02  -8.6612201889809129e-02  5.7715903166968624e-03  1.3754317340333003e-02  1.3539229616741635e-01  -5.9947123294765120e-02  1.2237925179859549e-01  -1.9604417177347944e-02  1.0018980109740623e-01  -2.8444320961161621e-02  2.0995448472731618e-02  -3.0812702545670216e-03  4.1225915387417392e-02  -1.5284314823847211e-02  1.3521777142516732e-02  -1.4603124845445009e-01  -6.3255018687046569e-02  -4.2505396370475096e-02  1.4464921765335528e-02  -3.2587932059429184e-02  -4.6887767513550963e-02  -4.0973057617280356e-03  -5.7312969038437390e-02  4.3912507959430559e-02  -6.2340621149632791e-02  1.3044859219849256e-01  4.4818553321754806e-01  6.5788777026411993e-01  7.8755573744052365e-01  8.6773361120725923e-01  9.1739988950639317e-01  9.4827065062418925e-01  9.6752585149173709e-01  9.7957359411661282e-01  9.8713149612347428e-01  9.9188286746356880e-01  9.9487492557576518e-01  9.9676160708360229e-01  9.9795252027256409e-01  9.9870486468114406e-01  9.9918045410424949e-01  9.9948124693782270e-01  9.9967156357732301e-01  9.9979201845368770e-01  9.9986827595226691e-01  9.9991656286740060e-01  9.9994714360172354e-01  9.9996651336320153e-01  9.9997878345151536e-01  9.9998655682362392e-01  9.9999148178218122e-01  9.9999460226215764e-01  9.9999657951100196e-01  9.9999783241743112e-01  9.9999862636217551e-01  9.9999912948469849e-01  9.9999944832046728e-01  9.9999965037492689e-01  9.9999977842404453e-01  9.9999985957438231e-01  9.9999991100346519e-01  9.9999994359696998e-01  9.9999996425346849e-01  9.9999997734483570e-01  9.9999998564173209e-01  9.9999999090006597e-01  9.9999999423266173e-01  9.9999999634477865e-01  9.9999999768339065e-01  9.9999999853177557e-01  9.9999999906946480e-01  9.9999999941024253e-01  9.9999999962622121e-01  9.9999999976310516e-01  9.9999999984985954e-01  9.9999999990484267e-01  9.9999999993969124e-01  9.9999999996177835e-01  9.9999999997577471e-01  9.9999999998464739e-01  9.9999999999026956e-01  9.9999999999383349e-01  9.9999999999609124e-01  9.9999999999752343e-01  9.9999999999843081e-01  9.9999999999900535e-01  9.9999999999937028e-01  9.9999999999960110e-01  9.9999999999974742e-01  9.9999999999984024e-01  9.9999999999989930e-01  9.9999999999993661e-01  9.9999999999995914e-01  9.9999999999997413e-01  9.9999999999998435e-01  9.9999999999998934e-01  9.9999999999999389e-01  9.9999999999999700e-01  9.9999999999999811e-01  1.0000000000000002e+00  9.9999999999999944e-01  1.0000000000000013e+00  1.0000000000000011e+00  1.0000000000000007e+00  1.0000000000000013e+00  1.0000000000000004e+00  1.0000000000000007e+00  1.0000000000000002e+00  1.0000000000000002e+00  1.0000000000000002e+00  1.0000000000000007e+00  1.0000000000000000e+00  0.0000000000000000e+00  -4.9206524123978400e-03  3.6129362102832373e-02  -8.7567101147147122e-02  -5.6110443176392707e-03  -9.8976144817764285e-03  -7.2443457136465075e-03  -3.8825868262817698e-02  -4.0675868407723130e-02  -1.1138478144217348e-02  1.1845823452787678e-03  5.8839882689542961e-03  1.9033142201228068e-03  6.6853894916000496e-03  -1.8883449224719121e-03  9.1086766115040449e-03  -1.3278817856065075e-02  2.4670254937500420e-02  -1.8654172267983129e-02  -2.5046688132872238e-02  3.0618973740504107e-02  -2.7924023545011462e-02  1.5142699040136600e-02  -5.6482657953989632e-03  3.5106739889996692e-02  -1.8802632078231084e-02  -1.5703394446323470e-02  -2.7984631568414272e-03  4.9936514622290276e-03  -1.4459128333792232e-02  1.8285652420265336e-02  -1.5683160922323296e-02  3.0448640576850535e-02  -2.9030940037254000e-02  3.9670281329860925e-02  -4.7652347824011919e-02  3.3773965239900942e-02  -3.7328316120814262e-02  2.2836638256012441e-03  -4.3698533224612104e-02  3.4434695847051583e-02  -1.5007878142291981e-02  2.4745701769527732e-02  -1.9082282789054092e-02  1.9093766729731385e-02  -2.0964236846602438e-02  1.6318032483907806e-02  -2.1409729326721878e-02  1.4256746461646231e-02  -2.1299357782681421e-02  7.1742544002250446e-03  -2.1818795892415439e-02  -7.2603115526222945e-03  -4.5237093529288133e-02  -7.2492781484010241e-02  -9.0945222546278154e-02  3.4684151980388649e-02  1.1005105509357976e-01  1.0012647871192698e-01  -4.8133838033958827e-02  -2.6838410667704794e-02  -1.2247542196627868e-01  1.0459218664647059e-01  -1.1177382833857284e-01  6.4506511110967127e-02  -2.8418901526186563e-02  1.5659725265696151e-01  1.1594799942133086e-01  1.5527383977594258e-01  1.2776412332626022e-01  2.1465666483701912e-01  2.1972017846824676e-01  4.5050152787721587e-01  4.6093909718410492e-01  4.6678293715293218e-01  3.7912904135702385e-01  3.6144902731268058e-01  3.0132176804646482e-01  2.2819372227135423e-01  2.1972312925015056e-01  7.6476983474198429e-02  2.0185853941841517e-01  3.6124569383476346e-01  5.7149617989499768e-01  7.2998510330839550e-01  8.3236434729427078e-01  8.9619836249741047e-01  9.3561347922712390e-01  9.5993879641235447e-01  9.7499391395902135e-01  9.8434646575037732e-01  9.9017758690588964e-01  9.9382466436721906e-01  9.9611166834466125e-01  9.9754878220076637e-01  9.9845331581740715e-01  9.9902336325990804e-01  9.9938296895316614e-01  9.9960999486892121e-01  9.9975340626495879e-01  9.9984404093975043e-01  9.9990134215922977e-01  9.9993757967406316e-01  9.9996050164257222e-01  9.9997500351505941e-01  9.9998417963415309e-01  9.9998998653356608e-01  9.9999366164060999e-01  9.9999598773997656e-01  9.9999746009601864e-01  9.9999839210201202e-01  9.9999898208813609e-01  9.9999935557802433e-01  9.9999959202143063e-01  9.9999974170864636e-01  9.9999983647400370e-01  9.9999989646975151e-01  9.9999993445334956e-01  9.9999995850116286e-01  9.9999997372618943e-01  9.9999998336543439e-01  9.9999998946824298e-01  9.9999999333207301e-01  9.9999999577835763e-01  9.9999999732716505e-01  9.9999999830775621e-01  9.9999999892859526e-01  9.9999999932166506e-01  9.9999999957052854e-01  9.9999999972809051e-01  9.9999999982784715e-01  9.9999999989100608e-01  9.9999999993099398e-01  9.9999999995631017e-01  9.9999999997233824e-01  9.9999999998248834e-01  9.9999999998891276e-01  9.9999999999298150e-01  9.9999999999555655e-01  9.9999999999718814e-01  9.9999999999821998e-01  9.9999999999887357e-01  9.9999999999928757e-01  9.9999999999954958e-01  9.9999999999971534e-01  9.9999999999982014e-01  9.9999999999988676e-01  9.9999999999992850e-01  9.9999999999995504e-01  9.9999999999997202e-01  9.9999999999998268e-01  9.9999999999998901e-01  9.9999999999999423e-01  9.9999999999999645e-01  9.9999999999999756e-01  9.9999999999999911e-01  9.9999999999999900e-01  1.0000000000000009e+00  9.9999999999999989e-01  1.0000000000000007e+00  1.0000000000000013e+00  1.0000000000000002e+00  1.0000000000000007e+00  1.0000000000000009e+00  1.0000000000000013e+00  1.0000000000000009e+00  1.0000000000000002e+00  1.0000000000000000e+00  1.0000000000000009e+00  0.0000000000000000e+00  9.2811273969288649e-03  -3.4196607688611477e-02  4.8372593577490151e-02  -7.7145103153239284e-03  -5.7672534296380100e-03  -1.5422229765556770e-02  1.3026048031005435e-03  1.5131434191753286e-02  8.7816788403123069e-03  4.0421899053666730e-03  -1.1413799651194851e-03  1.3261598328738063e-03  -3.1468674116937796e-03  4.8860129513651667e-03  -2.0264552101663725e-03  1.6517382310383400e-02  -2.4125498993692627e-02  4.9915296002544657e-02  2.2948443892199744e-02  -3.7078527003778637e-02  4.0760111549966636e-02  -2.0479067473752811e-02  1.1657103731862594e-03  -2.8173885965899707e-02  5.6563507601622418e-02  1.1217736871928275e-02  -1.2175810613758501e-03  -3.3417849821232256e-03  1.1535279202429315e-02  -2.5387687540751904e-02  9.0193965486965646e-03  -3.3905082836795671e-02  3.0097178054935298e-02  -4.1186363544781654e-02  5.2561919885422977e-02  -4.9746958248691998e-02  3.5314993120754562e-02  -1.4683171661610459e-02  2.9581609469923317e-02  -2.8145281608585183e-02  1.3001336207683779e-02  -2.1104235397010278e-02  1.4495870959747170e-02  -1.8514596921237244e-02  1.4312109997008472e-02  -1.7788987739717963e-02  1.3513765317201297e-02  -1.7723000613420452e-02  1.2585747932173564e-02  -1.3794559835624363e-02  8.9041989863163553e-03  -7.1362448365780620e-03  1.6733292329196622e-02  2.5883510382390036e-03  1.1383634157652404e-01  1.8460462115161241e-01  6.0581653776019295e-01  8.9937880071949705e-01  3.6209146358215377e-01  1.3241911248194971e-01  7.4775259082566256e-02  1.7869893547938145e-01  6.6346458878506243e-01  5.6953040170370905e-01  1.0713924472209224e+00  5.5558382468741252e-01  1.0265239750163155e+00  8.4471737589254181e-01  1.0277967214744963e+00  8.2868568053210734e-01  8.2773061589907515e-01  3.0270937787640650e-01  8.5109795669831934e-01  9.5078295414829495e-01  9.5047721072786395e-01  9.3262016323443986e-01  1.0683894532381264e+00  1.1445476386606301e+00  1.0151714246320069e+00  6.3298209126252392e-01  5.3581108000334177e-01  6.3610314221072017e-01  7.5165638523518408e-01  8.4404892627972983e-01  9.0442814104288272e-01  9.4172750126580251e-01  9.6438590072986019e-01  9.7812481219021685e-01  9.8649028331222011e-01  9.9161500098658883e-01  9.9477376784728877e-01  9.9673142139664450e-01  9.9795022138540135e-01  9.9871181609987059e-01  9.9918909930417799e-01  9.9948888743981124e-01  9.9967752153212541e-01  9.9979637794585419e-01  9.9987134832148905e-01  9.9991867649129151e-01  9.9994857396384185e-01  9.9996747012991050e-01  9.9997941800687296e-01  9.9998697500594336e-01  9.9999175603368395e-01  9.9999478144328036e-01  9.9999669623060883e-01  9.9999790826906210e-01  9.9999867556094046e-01  9.9999916134607147e-01  9.9999946892746416e-01  9.9999966368860504e-01  9.9999978701790249e-01  9.9999986511737182e-01  9.9999991457629500e-01  9.9999994589857921e-01  9.9999996573541261e-01  9.9999997829859477e-01  9.9999998625531494e-01  9.9999999129466155e-01  9.9999999448634236e-01  9.9999999650781857e-01  9.9999999778814841e-01  9.9999999859906619e-01  9.9999999911267912e-01  9.9999999943798812e-01  9.9999999964403175e-01  9.9999999977453513e-01  9.9999999985719346e-01  9.9999999990954791e-01  9.9999999994270861e-01  9.9999999996371258e-01  9.9999999997701694e-01  9.9999999998544498e-01  9.9999999999078049e-01  9.9999999999416156e-01  9.9999999999630174e-01  9.9999999999765887e-01  9.9999999999851696e-01  9.9999999999906120e-01  9.9999999999940581e-01  9.9999999999962341e-01  9.9999999999976164e-01  9.9999999999984901e-01  9.9999999999990485e-01  9.9999999999993927e-01  9.999