<?xml version="1.0"?>
<VTKFile type="UnstructuredGrid"  version="0.1"  >
<UnstructuredGrid>
<Piece  NumberOfPoints="21400" NumberOfCells="42336">
<Points>
<DataArray  type="Float64"  NumberOfComponents="3"  format="ascii">0 0 0  0.004583333333333333 0 0  0.009166666666666667 0 0  0.01375 0 0  0.01833333333333333 0 0  0.02291666666666667 0 0  0.0275 0 0  0.03208333333333334 0 0  0.03666666666666667 0 0  0.04125 0 0  0.04583333333333334 0 0  0.05041666666666667 0 0  0.055 0 0  0.05958333333333334 0 0  0.06416666666666668 0 0  0.06875000000000001 0 0  0.07333333333333333 0 0  0.07791666666666666 0 0  0.08249999999999999 0 0  0.08708333333333333 0 0  0.09166666666666667 0 0  0.09625000000000002 0 0  0.1008333333333333 0 0  0.1054166666666667 0 0  0.11 0 0  0.1145833333333333 0 0  0.1191666666666667 0 0  0.12375 0 0  0.1283333333333334 0 0  0.1329166666666667 0 0  0.1375 0 0  0.1420833333333333 0 0  0.1466666666666667 0 0  0.15125 0 0  0.1558333333333333 0 0  0.1604166666666667 0 0  0.165 0 0  0.1695833333333333 0 0  0.1741666666666667 0 0  0.17875 0 0  0.1833333333333333 0 0  0.1879166666666667 0 0  0.1925 0 0  0.1970833333333333 0 0  0.2016666666666667 0 0  0.20625 0 0  0.2108333333333333 0 0  0.2154166666666666 0 0  0.22 0 0  0.2245833333333334 0 0  0.2291666666666667 0 0  0.23375 0 0  0.2383333333333333 0 0  0.2429166666666667 0 0  0.2475 0 0  0.2520833333333333 0 0  0.2566666666666667 0 0  0.26125 0 0  0.2658333333333334 0 0  0.2704166666666666 0 0  0.275 0 0  0.2795833333333334 0 0  0.2841666666666667 0 0  0.28875 0 0  0.2933333333333333 0 0  0.2979166666666667 0 0  0.3025 0 0  0.3070833333333334 0 0  0.3116666666666666 0 0  0.31625 0 0  0.3208333333333333 0 0  0.3254166666666667 0 0  0.33 0 0  0.3345833333333333 0 0  0.3391666666666667 0 0  0.34375 0 0  0.3483333333333333 0 0  0.3529166666666667 0 0  0.3575 0 0  0.3620833333333333 0 0  0.3666666666666667 0 0  0.37125 0 0  0.3758333333333334 0 0  0.3804166666666667 0 0  0.3850000000000001 0 0  0.3895833333333333 0 0  0.3941666666666667 0 0  0.39875 0 0  0.4033333333333334 0 0  0.4079166666666666 0 0  0.4125 0 0  0.4170833333333334 0 0  0.4216666666666667 0 0  0.42625 0 0  0.4308333333333333 0 0  0.4354166666666667 0 0  0.44 0 0  0.4445833333333333 0 0  0.4491666666666667 0 0  0.45375 0 0  0.4583333333333333 0 0  0.4629166666666666 0 0  0.4675 0 0  0.4720833333333334 0 0  0.4766666666666667 0 0  0.4812500000000001 0 0  0.4858333333333333 0 0  0.4904166666666667 0 0  0.495 0 0  0.4995833333333334 0 0  0.5041666666666667 0 0  0.50875 0 0  0.5133333333333334 0 0  0.5179166666666667 0 0  0.5225 0 0  0.5270833333333333 0 0  0.5316666666666667 0 0  0.53625 0 0  0.5408333333333333 0 0  0.5454166666666667 0 0  0.55 0 0  0.5545833333333333 0 0  0.5591666666666667 0 0  0.5637500000000001 0 0  0.5683333333333334 0 0  0.5729166666666666 0 0  0.5775 0 0  0.5820833333333334 0 0  0.5866666666666667 0 0  0.5912499999999999 0 0  0.5958333333333334 0 0  0.6004166666666667 0 0  0.605 0 0  0.6095833333333334 0 0  0.6141666666666667 0 0  0.61875 0 0  0.6233333333333333 0 0  0.6279166666666667 0 0  0.6325000000000001 0 0  0.6370833333333333 0 0  0.6416666666666666 0 0  0.64625 0 0  0.6508333333333334 0 0  0.6554166666666666 0 0  0.6599999999999999 0 0  0.6645833333333334 0 0  0.6691666666666667 0 0  0.67375 0 0  0.6783333333333333 0 0  0.6829166666666667 0 0  0.6875 0 0  0.6920833333333333 0 0  0.6966666666666667 0 0  0.70125 0 0  0.7058333333333333 0 0  0.7104166666666667 0 0  0.7150000000000001 0 0  0.7195833333333334 0 0  0.7241666666666666 0 0  0.72875 0 0  0.7333333333333334 0 0  0.7379166666666667 0 0  0.7425 0 0  0.7470833333333333 0 0  0.7516666666666667 0 0  0.75625 0 0  0.7608333333333334 0 0  0.7654166666666666 0 0  0.7700000000000001 0 0  0 0.002380952380952381 0  0.004583333333333333 0.002380952380952381 0  0.009166666666666667 0.002380952380952381 0  0.01375 0.002380952380952381 0  0.01833333333333333 0.002380952380952381 0  0.02291666666666667 0.002380952380952381 0  0.0275 0.002380952380952381 0  0.03208333333333334 0.002380952380952381 0  0.03666666666666667 0.002380952380952381 0  0.04125 0.002380952380952381 0  0.04583333333333334 0.002380952380952381 0  0.05041666666666667 0.002380952380952381 0  0.055 0.002380952380952381 0  0.05958333333333334 0.002380952380952381 0  0.06416666666666668 0.002380952380952381 0  0.06875000000000001 0.002380952380952381 0  0.07333333333333333 0.002380952380952381 0  0.07791666666666666 0.002380952380952381 0  0.08249999999999999 0.002380952380952381 0  0.08708333333333333 0.002380952380952381 0  0.09166666666666667 0.002380952380952381 0  0.09625000000000002 0.002380952380952381 0  0.1008333333333333 0.002380952380952381 0  0.1054166666666667 0.002380952380952381 0  0.11 0.002380952380952381 0  0.1145833333333333 0.002380952380952381 0  0.1191666666666667 0.002380952380952381 0  0.12375 0.002380952380952381 0  0.1283333333333334 0.002380952380952381 0  0.1329166666666667 0.002380952380952381 0  0.1375 0.002380952380952381 0  0.1420833333333333 0.002380952380952381 0  0.1466666666666667 0.002380952380952381 0  0.15125 0.002380952380952381 0  0.1558333333333333 0.002380952380952381 0  0.1604166666666667 0.002380952380952381 0  0.165 0.002380952380952381 0  0.1695833333333333 0.002380952380952381 0  0.1741666666666667 0.002380952380952381 0  0.17875 0.002380952380952381 0  0.1833333333333333 0.002380952380952381 0  0.1879166666666667 0.002380952380952381 0  0.1925 0.002380952380952381 0  0.1970833333333333 0.002380952380952381 0  0.2016666666666667 0.002380952380952381 0  0.20625 0.002380952380952381 0  0.2108333333333333 0.002380952380952381 0  0.2154166666666666 0.002380952380952381 0  0.22 0.002380952380952381 0  0.2245833333333334 0.002380952380952381 0  0.2291666666666667 0.002380952380952381 0  0.23375 0.002380952380952381 0  0.2383333333333333 0.002380952380952381 0  0.2429166666666667 0.002380952380952381 0  0.2475 0.002380952380952381 0  0.2520833333333333 0.002380952380952381 0  0.2566666666666667 0.002380952380952381 0  0.26125 0.002380952380952381 0  0.2658333333333334 0.002380952380952381 0  0.2704166666666666 0.002380952380952381 0  0.275 0.002380952380952381 0  0.2795833333333334 0.002380952380952381 0  0.2841666666666667 0.002380952380952381 0  0.28875 0.002380952380952381 0  0.2933333333333333 0.002380952380952381 0  0.2979166666666667 0.002380952380952381 0  0.3025 0.002380952380952381 0  0.3070833333333334 0.002380952380952381 0  0.3116666666666666 0.002380952380952381 0  0.31625 0.002380952380952381 0  0.3208333333333333 0.002380952380952381 0  0.3254166666666667 0.002380952380952381 0  0.33 0.002380952380952381 0  0.3345833333333333 0.002380952380952381 0  0.3391666666666667 0.002380952380952381 0  0.34375 0.002380952380952381 0  0.3483333333333333 0.002380952380952381 0  0.3529166666666667 0.002380952380952381 0  0.3575 0.002380952380952381 0  0.3620833333333333 0.002380952380952381 0  0.3666666666666667 0.002380952380952381 0  0.37125 0.002380952380952381 0  0.3758333333333334 0.002380952380952381 0  0.3804166666666667 0.002380952380952381 0  0.3850000000000001 0.002380952380952381 0  0.3895833333333333 0.002380952380952381 0  0.3941666666666667 0.002380952380952381 0  0.39875 0.002380952380952381 0  0.4033333333333334 0.002380952380952381 0  0.4079166666666666 0.002380952380952381 0  0.4125 0.002380952380952381 0  0.4170833333333334 0.002380952380952381 0  0.4216666666666667 0.002380952380952381 0  0.42625 0.002380952380952381 0  0.4308333333333333 0.002380952380952381 0  0.4354166666666667 0.002380952380952381 0  0.44 0.002380952380952381 0  0.4445833333333333 0.002380952380952381 0  0.4491666666666667 0.002380952380952381 0  0.45375 0.002380952380952381 0  0.4583333333333333 0.002380952380952381 0  0.4629166666666666 0.002380952380952381 0  0.4675 0.002380952380952381 0  0.4720833333333334 0.002380952380952381 0  0.4766666666666667 0.002380952380952381 0  0.4812500000000001 0.002380952380952381 0  0.4858333333333333 0.002380952380952381 0  0.4904166666666667 0.002380952380952381 0  0.495 0.002380952380952381 0  0.4995833333333334 0.002380952380952381 0  0.5041666666666667 0.002380952380952381 0  0.50875 0.002380952380952381 0  0.5133333333333334 0.002380952380952381 0  0.5179166666666667 0.002380952380952381 0  0.5225 0.002380952380952381 0  0.5270833333333333 0.002380952380952381 0  0.5316666666666667 0.002380952380952381 0  0.53625 0.002380952380952381 0  0.5408333333333333 0.002380952380952381 0  0.5454166666666667 0.002380952380952381 0  0.55 0.002380952380952381 0  0.5545833333333333 0.002380952380952381 0  0.5591666666666667 0.002380952380952381 0  0.5637500000000001 0.002380952380952381 0  0.5683333333333334 0.002380952380952381 0  0.5729166666666666 0.002380952380952381 0  0.5775 0.002380952380952381 0  0.5820833333333334 0.002380952380952381 0  0.5866666666666667 0.002380952380952381 0  0.5912499999999999 0.002380952380952381 0  0.5958333333333334 0.002380952380952381 0  0.6004166666666667 0.002380952380952381 0  0.605 0.002380952380952381 0  0.6095833333333334 0.002380952380952381 0  0.6141666666666667 0.002380952380952381 0  0.61875 0.002380952380952381 0  0.6233333333333333 0.002380952380952381 0  0.6279166666666667 0.002380952380952381 0  0.6325000000000001 0.002380952380952381 0  0.6370833333333333 0.002380952380952381 0  0.6416666666666666 0.002380952380952381 0  0.64625 0.002380952380952381 0  0.6508333333333334 0.002380952380952381 0  0.6554166666666666 0.002380952380952381 0  0.6599999999999999 0.002380952380952381 0  0.6645833333333334 0.002380952380952381 0  0.6691666666666667 0.002380952380952381 0  0.67375 0.002380952380952381 0  0.6783333333333333 0.002380952380952381 0  0.6829166666666667 0.002380952380952381 0  0.6875 0.002380952380952381 0  0.6920833333333333 0.002380952380952381 0  0.6966666666666667 0.002380952380952381 0  0.70125 0.002380952380952381 0  0.7058333333333333 0.002380952380952381 0  0.7104166666666667 0.002380952380952381 0  0.7150000000000001 0.002380952380952381 
[...]
<PointData  Scalars="concentration"> 
<DataArray  type="Float64"  Name="concentration"  format="ascii">0.0000000000000000e+00  7.9937630874260451e-02  2.3039462168609007e-01  1.7571560376871820e-01  -2.3292630473389045e-02  -1.3114906667806087e-01  -1.7185179265895786e-01  -1.8918007269532039e-01  -1.7722253172909622e-01  -8.1528285784477947e-02  1.2142556170789279e-02  4.2131627074541754e-03  9.9659094377586611e-03  -6.3365453971876012e-03  1.3763950660593645e-02  -2.0232074829097130e-02  3.7290067559193278e-02  -2.0595725916264462e-02  4.0844349406549124e-01  1.0178074506846297e+00  9.8431162186474963e-01  1.0209877487619285e+00  9.6847875303862374e-01  1.0223691789173857e+00  9.5784525827000011e-01  1.0245890646906777e+00  9.8535401150701185e-01  9.9203853374335393e-01  9.8137898096793752e-01  9.9808541273479001e-01  9.7121225707472936e-01  1.0138219911289663e+00  9.7778355558882035e-01  1.0247805265054106e+00  9.7552257753882243e-01  1.0479653071521682e+00  1.0134610506410076e+00  1.0615564378398681e+00  1.0749561648257091e+00  1.1923504402051694e+00  8.0516060959090996e-01  1.1771837413163477e+00  7.9976586290292950e-01  1.1488720995598538e+00  8.1335406656980580e-01  1.1304676032735383e+00  8.2514397087663693e-01  1.1040050099813110e+00  8.6787466464492158e-01  1.0876995790219373e+00  9.8992662476640247e-01  1.0337997987650565e+00  1.0219202156989657e+00  1.0153569264204396e+00  1.0105139959426881e+00  1.0071258825643028e+00  1.0047756702358337e+00  1.0031685886915465e+00  1.0020836023596180e+00  1.0013595023979882e+00  1.0008811278945118e+00  1.0005678535278166e+00  1.0003642301236868e+00  1.0002327109307063e+00  1.0001482084457620e+00  1.0000941486598856e+00  1.0000596854978374e+00  1.0000377770349220e+00  1.0000238807938662e+00  1.0000150820324287e+00  1.0000095184150983e+00  1.0000060040661227e+00  1.0000037858831874e+00  1.0000023866036198e+00  1.0000015042616732e+00  1.0000009480378802e+00  1.0000005974599993e+00  1.0000003765203882e+00  1.0000002372879560e+00  1.0000001495470499e+00  1.0000000942539675e+00  1.0000000594078293e+00  1.0000000374464875e+00  1.0000000236048840e+00  1.0000000148804213e+00  1.0000000093810162e+00  1.0000000059143124e+00  1.0000000037288634e+00  1.0000000023510665e+00  1.0000000014824080e+00  1.0000000009347225e+00  1.0000000005893970e+00  1.0000000003716585e+00  1.0000000002343605e+00  1.0000000001477864e+00  1.0000000000931943e+00  1.0000000000587688e+00  1.0000000000370606e+00  1.0000000000233711e+00  1.0000000000147382e+00  1.0000000000092950e+00  1.0000000000058615e+00  1.0000000000036973e+00  1.0000000000023319e+00  1.0000000000014713e+00  1.0000000000009279e+00  1.0000000000005858e+00  1.0000000000003697e+00  1.0000000000002336e+00  1.0000000000001472e+00  1.0000000000000948e+00  1.0000000000000600e+00  1.0000000000000393e+00  1.0000000000000246e+00  1.0000000000000169e+00  1.0000000000000109e+00  1.0000000000000073e+00  1.0000000000000044e+00  1.0000000000000036e+00  1.0000000000000027e+00  1.0000000000000020e+00  1.0000000000000020e+00  1.0000000000000018e+00  1.0000000000000013e+00  1.0000000000000013e+00  1.0000000000000013e+00  1.0000000000000024e+00  1.0000000000000020e+00  1.0000000000000013e+00  1.0000000000000013e+00  1.0000000000000013e+00  1.0000000000000024e+00  1.0000000000000016e+00  1.0000000000000022e+00  1.0000000000000042e+00  1.0000000000000027e+00  1.0000000000000022e+00  1.0000000000000007e+00  1.0000000000000011e+00  1.0000000000000011e+00  1.0000000000000018e+00  1.0000000000000022e+00  1.0000000000000013e+00  1.0000000000000018e+00  1.0000000000000007e+00  1.0000000000000004e+00  1.0000000000000007e+00  1.0000000000000002e+00  1.0000000000000009e+00  1.0000000000000016e+00  1.0000000000000011e+00  1.0000000000000018e+00  1.0000000000000013e+00  1.0000000000000011e+00  1.0000000000000002e+00  1.0000000000000020e+00  1.0000000000000004e+00  1.0000000000000029e+00  1.0000000000000022e+00  1.0000000000000024e+00  1.0000000000000029e+00  1.0000000000000016e+00  1.0000000000000013e+00  1.0000000000000020e+00  1.0000000000000013e+00  1.0000000000000009e+00  1.0000000000000016e+00  1.0000000000000007e+00  1.0000000000000009e+00  0.0000000000000000e+00  -1.8564712443457143e-02  -1.0177775199534160e-01  6.5623319000419650e-02  6.2644410756040947e-01  9.0487682756680321e-01  9.6925934128195845e-01  9.2690300291913719e-01  9.4005628704948641e-01  3.1065945864813760e-01  1.3742834198973453e-01  8.5332424214883532e-02  4.3737982023576726e-02  3.7909446910403495e-02  5.3725416046441167e-03  3.0140668326800069e-02  -2.9473773331285213e-02  2.8344327591360356e-02  -4.6564949881355823e-02  -5.1361927535513337e-02  -4.5566488868676366e-03  -3.7081498118374676e-02  7.0684515113696184e-03  -4.0376562788462057e-02  1.1109328330195485e-02  -5.0454809551443540e-02  -8.5986337279768173e-03  -1.6728714242286245e-02  -1.5498841885383202e-02  -3.0241695533547375e-02  -1.0435950173219608e-02  -3.4352060277693400e-02  2.9846067107950850e-03  -1.4765169479942105e-02  3.1456873427611075e-02  -3.8820234304525235e-03  4.3685160390316585e-02  4.0521742519635855e-02  8.7616716140371143e-02  1.0801806900471946e-01  6.4527685446075234e-01  3.2283500144157340e-01  7.7157920489857279e-01  3.6028158132100491e-01  7.9600006950436053e-01  3.6925583314564675e-01  8.0240883535703911e-01  3.7024917845918198e-01  7.4541929453084432e-01  4.1643185180142833e-01  5.3238528129101059e-01  6.0780427154674865e-01  7.4218312505811490e-01  8.3195072149926019e-01  8.9104419341480501e-01  9.2963842448129863e-01  9.5471755548819515e-01  9.7094474482236170e-01  9.8140528871934951e-01  9.8812655455901022e-01  9.9243300066547990e-01  9.9518548780322025e-01  9.9694106454828779e-01  9.9805879192065849e-01  9.9876933601898077e-01  9.9922045178145280e-01  9.9950655043169312e-01  9.9968783088417390e-01  9.9980260891752337e-01  9.9987523531766687e-01  9.9992116619717508e-01  9.9995020164405046e-01  9.9996855004809837e-01  9.9998014158720261e-01  9.9998746273687322e-01  9.9999208581538634e-01  9.9999500466837066e-01  9.9999684728332172e-01  9.9999801036062075e-01  9.9999874443915848e-01  9.9999920771883188e-01  9.9999950007771110e-01  9.9999968456488419e-01  9.9999980097657104e-01  9.9999987442973393e-01  9.9999992077553002e-01  9.9999995001692388e-01  9.9999996846602812e-01  9.9999998010576563e-01  9.9999998744926255e-01  9.9999999208218826e-01  9.9999999500500125e-01  9.9999999684891283e-01  9.9999999801216644e-01  9.9999999874600709e-01  9.9999999920894811e-01  9.9999999950098895e-01  9.9999999968521691e-01  9.9999999980143295e-01  9.9999999987474408e-01  9.9999999992098931e-01  9.9999999995016131e-01  9.9999999996856181e-01  9.9999999998016986e-01  9.9999999998749189e-01  9.9999999999211098e-01  9.9999999999502431e-01  9.9999999999686207e-01  9.9999999999802169e-01  9.9999999999875289e-01  9.9999999999921274e-01  9.9999999999950429e-01  9.9999999999968725e-01  9.9999999999980405e-01  9.9999999999987632e-01  9.9999999999992262e-01  9.9999999999995148e-01  9.9999999999997025e-01  9.9999999999998124e-01  9.9999999999998856e-01  9.9999999999999356e-01  9.9999999999999600e-01  9.9999999999999789e-01  9.9999999999999956e-01  1.0000000000000002e+00  1.0000000000000007e+00  1.0000000000000002e+00  1.0000000000000009e+00  1.0000000000000011e+00  1.0000000000000009e+00  1.0000000000000016e+00  1.0000000000000009e+00  1.0000000000000013e+00  1.0000000000000009e+00  9.9999999999999944e-01  1.0000000000000002e+00  1.0000000000000009e+00  1.0000000000000020e+00  1.0000000000000020e+00  1.0000000000000020e+00  1.0000000000000016e+00  1.0000000000000013e+00  1.0000000000000022e+00  1.0000000000000013e+00  1.0000000000000018e+00  1.0000000000000016e+00  1.0000000000000013e+00  1.0000000000000018e+00  1.0000000000000016e+00  1.0000000000000009e+00  1.0000000000000013e+00  1.0000000000000007e+00  1.0000000000000009e+00  1.0000000000000009e+00  1.0000000000000016e+00  1.0000000000000002e+00  1.0000000000000022e+00  9.9999999999999989e-01  1.0000000000000004e+00  1.0000000000000004e+00  1.0000000000000002e+00  1.0000000000000018e+00  1.0000000000000018e+00  1.0000000000000011e+00  1.0000000000000013e+00  1.0000000000000016e+00  1.0000000000000009e+00  1.0000000000000013e+00  1.0000000000000009e+00  0.0000000000000000e+00  4.3109075690928522e-04  -1.5778500769732761e-02  1.7237724111583502e-01  5.8668886306953515e-02  6.2380019901635254e-02  5.3416449149037044e-02  7.1820654604778017e-02  2.2527066520141831e-02  -4.1877354149623514e-02  -3.5789893771794368e-02  -3.0162983494157618e-02  -1.2357958894929546e-02  -2.0096394307294027e-02  2.1770641247163725e-03  -2.7142563564581640e-02  2.2043695201724202e-02  -4.7200697927297912e-02  1.8386936946093998e-02  2.2952934125974420e-02  -1.9242426510683797e-02  1.8062629673238639e-02  -2.7020653690788109e-02  2.3961380354662963e-02  -2.8928331260156162e-02  3.5854687765694893e-02  -1.4186090384173318e-02  -4.3247263858923052e-03  -2.7530516141239698e-03  1.6155626412268635e-02  1.9970387402609112e-03  3.3312475966711545e-02  2.6496252500136943e-03  2.9505793388732628e-02  -5.9491903993677585e-03  4.1580431873897046e-02  3.0457786369011055e-03  2.1954883002275126e-02  -5.8716443729582646e-03  1.5265483153199874e-02  -6.6296469318017706e-02  -3.6189260146337707e-02  -6.4076169571549726e-02  -3.2825214755814125e-02  -5.5372449561417063e-02  -2.6463172723410894e-02  -4.9100013110280435e-02  -2.7060490236883172e-02  -2.8682185833868164e-02  -1.0061837566219669e-02  2.0237647882648840e-02  3.2616452808000029e-01  5.5735764236612306e-01  7.1021746272250286e-01  8.1114243325826396e-01  8.7740130042328734e-01  9.2070227612295397e-01  9.4887600658542937e-01  9.6713342572856631e-01  9.7892226975529317e-01  9.8651053120227783e-01  9.9138189035116053e-01  9.9450204801653141e-01  9.9649676937069087e-01  9.9776999649067066e-01  9.9858163937891287e-01  9.9909848166742088e-01  9.9942730827685977e-01  9.9963636278242385e-01  9.9976919142235687e-01  9.9985354618830102e-01  9.9990709516228138e-01  9.9994107705046520e-01  9.9996263583809952e-01  9.9997631006351984e-01  9.9998498168000349e-01  9.9999048000738655e-01  9.9999396583644662e-01  9.9999617555117171e-01  9.9999757619894103e-01  9.9999846394922631e-01  9.9999902658491580e-01  9.9999938315323944e-01  9.9999960911811636e-01  9.9999975231212368e-01  9.9999984305174583e-01  9.9999990055062404e-01  9.9999993698520262e-01  9.9999996007188496e-01  9.9999997470051949e-01  9.9999998396970458e-01  9.9999998984291505e-01  9.9999999356431757e-01  9.9999999592226885e-01  9.9999999741630596e-01  9.9999999836294740e-01  9.9999999896275116e-01  9.9999999934279238e-01  9.9999999958358998e-01  9.9999999973616094e-01  9.9999999983283028e-01  9.9999999989408073e-01  9.9999999993288979e-01  9.9999999995747935e-01  9.9999999997305955e-01  9.9999999998293077e-01  9.9999999998918521e-01  9.9999999999314837e-01  9.9999999999565947e-01  9.9999999999724953e-01  9.9999999999825873e-01  9.9999999999889655e-01  9.9999999999930134e-01  9.9999999999955680e-01  9.9999999999971989e-01  9.9999999999982214e-01  9.9999999999988742e-01  9.9999999999992795e-01  9.9999999999995459e-01  9.9999999999997147e-01  9.9999999999998201e-01  9.9999999999998934e-01  9.9999999999999412e-01  9.9999999999999623e-01  9.9999999999999789e-01  9.9999999999999867e-01  9.9999999999999956e-01  9.9999999999999956e-01  9.9999999999999967e-01  1.0000000000000004e+00  1.0000000000000002e+00  1.0000000000000011e+00  1.0000000000000004e+00  1.0000000000000007e+00  1.0000000000000009e+00  1.0000000000000009e+00  1.0000000000000009e+00  1.0000000000000004e+00  1.0000000000000004e+00  1.0000000000000007e+00  1.0000000000000011e+00  1.0000000000000011e+00  1.0000000000000002e+00  1.0000000000000009e+00  1.0000000000000007e+00  1.0000000000000011e+00  1.0000000000000013e+00  1.0000000000000009e+00  1.0000000000000011e+00  1.0000000000000018e+00  1.0000000000000013e+00  1.0000000000000013e+00  1.0000000000000004e+00  1.0000000000000009e+00  1.0000000000000002e+00  1.0000000000000013e+00  9.9999999999999978e-01  1.0000000000000018e+00  1.0000000000000007e+00  1.0000000000000002e+00  1.0000000000000004e+00  9.9999999999999989e-01  1.0000000000000002e+00  1.0000000000000004e+00  1.0000000000000002e+00  1.0000000000000004e+00  1.0000000000000009e+00  1.0000000000000000e+00  1.0000000000000002e+00  0.0000000000000000e+00  -4.7807580636931865e-03  3.6005982407256436e-02  -8.7403886655154403e-02  -5.9071398909002733e-03  -9.7085184007321620e-03  -7.7352972721952649e-03  -3.8449211988967259e-02  -4.1708186134231273e-02  -1.0202115791216080e-02  -2.6503743429670995e-04  8.1525676441383480e-03  -4.5771288956551672e-04  1.1657505561847289e-02  -5.9160407872383578e-03  2.0327490085697848e-02  -2.1952388418405973e-02  4.9192915232768537e-02  -2.9988016743868740e-02  -2.4284624096131177e-02  2.1584929914758817e-02  -2.0116288388483082e-02  2.7432385355628561e-02  -2.8629914114398657e-02  2.6865539920150259e-02  -4.1045858967244234e-02  2.7744867353149096e-02  1.5611105654895308e-02  1.3237151554685658e-02  -4.8865961229872740e-03  1.0016409166255100e-02  -2.1144115126115574e-02  1.1806887794971584e-02  -1.6568968823048869e-02  1.4394141937380978e-02  -3.6488414276813388e-02  6.8068968455183730e-03  -1.8139002158407854e-02  2.8298696799126132e-03  -2.1912904381819098e-02  3.7527327425222218e-02  1.0420928364797521e-02  3.2351225674796764e-02  7.9463001886318357e-03  2.7139718846360936e-02  4.8452138853906238e-03  2.2607509049785240e-02  4.0903975594384617e-03  8.8952269845991375e-03  -4.1814980837170349e-04  1.0706224113800748e-01  3.9137526183743071e-01  6.0067585386322797e-01  7.3655729923267288e-01  8.2611926829184268e-01  8.8546766029472834e-01  9.2481027654630432e-01  9.5082874931628303e-01  9.6797068584794510e-01  9.7921546357483935e-01  9.8655929946368504e-01  9.9133533769065041e-01  9.9442948790717034e-01  9.9642717209786413e-01  9.9771308510912593e-01  9.9853869457456090e-01  9.9906760230189740e-01  9.9940580205902052e-01  9.9962171684376189e-01  9.9975937983903362e-01  9.9984705402822238e-01  9.9990284008594787e-01  9.9993830885434398e-01  9.9996084550813213e-01  9.9997515758950495e-01  9.9998424260219454e-01  9.9999000748401812e-01  9.9999366448123794e-01  9.9999598374849530e-01  9.9999745432506570e-01  9.9999838661433504e-01  9.9999897756710521e-01  9.9999935211256141e-01  9.9999958947650769e-01  9.9999973989135194e-01  9.9999983520133251e-01  9.9999989559101343e-01  9.9999993385303254e-01  9.9999995809440401e-01  9.9999997345236213e-01  9.9999998318205163e-01  9.9999998934595435e-01  9.9999999325081057e-01  9.9999999572452003e-01  9.9999999729158517e-01  9.9999999828429420e-01  9.9999999891315250e-01  9.9999999931151839e-01  9.9999999956387131e-01  9.9999999972372811e-01  9.9999999982499310e-01  9.9999999988914079e-01  9.9999999992977529e-01  9.9999999995551514e-01  9.9999999997182054e-01  9.9999999998215050e-01  9.9999999998869338e-01  9.9999999999283817e-01  9.9999999999546330e-01  9.9999999999712708e-01  9.9999999999817990e-01  9.9999999999884770e-01  9.9999999999927092e-01  9.9999999999953904e-01  9.9999999999970779e-01  9.9999999999981604e-01  9.9999999999988387e-01  9.9999999999992750e-01  9.9999999999995426e-01  9.9999999999997136e-01  9.9999999999998257e-01  9.9999999999998868e-01  9.9999999999999301e-01  9.9999999999999645e-01  9.9999999999999800e-01  9.9999999999999967e-01  9.9999999999999989e-01  1.0000000000000004e+00  1.0000000000000002e+00  9.9999999999999978e-01  1.0000000000000002e+00  9.9999999999999933e-01  9.9999999999999989e-01  9.9999999999999867e-01  9.9999999999999956e-01  1.0000000000000000e+00  1.0000000000000002e+00  1.0000000000000016e+00  1.0000000000000011e+00  1.0000000000000016e+00  1.0000000000000009e+00  1.0000000000000009e+00  1.0000000000000016e+00  1.0000000000000009e+00  1.0000000000000013e+00  1.0000000000000004e+00  1.0000000000000002e+00  1.0000000000000011e+00  1.0000000000000013e+00  1.0000000000000013e+00  1.0000000000000016e+00  1.0000000000000011e+00  1.0000000000000011e+00  1.0000000000000009e+00  1.0000000000000013e+00  9.9999999999999978e-01  1.0000000000000011e+00  9.9999999999999911e-01  1.0000000000000004e+00  1.0000000000000011e+00  1.0000000000000013e+00  1.0000000000000013e+00  1.0000000000000009e+00  1.0000000000000009e+00  1.0000000000000009e+00  1.0000000000000002e+00  9.9999999999999967e-01  1.0000000000000004e+00  9.9999999999999978e-01  0.0000000000000000e+00  9.1172580178367317e-03  -3.4149206679211043e-02  4.8123593674695986e-02  -7.5266665359521754e-03  -6.1249802170400798e-03  -1.5110849459869281e-02  6.3856937145716967e-04  1.5966892629026657e-02  7.7871119584017445e-03  5.4769406862744821e-03  -3.0492829747579778e-03  4.0141454327587969e-03  -6.5257517674268779e-03  1.0550010484018177e-02  -7.1455711351625754e-03  2.9782900609213740e-02  -3.7236798733202008e-02  6.2628386108459749e-02  2.4694281840431240e-02  -2.7043433686403003e-02  2.3687083184934739e-02  -2.3918313175068217e-02  4.1818560099752898e-02  -1.4975844452822530e-02  5.8594735480245762e-02  -3.7182851075437638e-02  -1.7364948011217067e-02  -8.3316750164662348e-03  1.5635480549344234e-02  6.1822269941998126e-03  3.9727519166746258e-02  1.0999879433898931e-03  2.5639430379098604e-02  -5.6338542066360848e-03  4.0203500950603099e-02  -1.7309404732977887e-02  1.1006556941669634e-02  -9.5670506484783879e-03  1.1782448444574078e-02  -3.0583776897212901e-02  -6.0380468644718041e-03  -2.2499028580948936e-02  -6.3148479418890916e-04  -1.4671298004027215e-02  6.3820514109924299e-03  -4.1719316430998818e-03  1.5367901325386839e-02  1.4336971031015748e-02  2.7093258188553826e-01  5.8242877601930731e-01  6.9537678393738411e-01  8.0072806153497422e-01  8.6912035482859551e-01  9.1427403309383415e-01  9.4398055689927518e-01  9.6348771359506635e-01  9.7626723398892923e-01  9.8461720840852285e-01  9.9005717883777422e-01  9.9359056644032651e-01  9.9587862872112254e-01  9.9735594417633011e-01  9.9830718386725836e-01  9.9891815725743283e-01  9.9930970496990679e-01  9.9956013881227423e-01  9.9972004255304636e-01  9.9982199196800103e-01  9.9988690988847817e-01  9.9992820330497756e-01  9.9995444582333204e-01  9.9997111065506239e-01  9.9998168662844511e-01  9.9998839487490387e-01  9.9999264797052678e-01  9.9999534348033259e-01  9.9999705130493621e-01  9.9999813307439067e-01  9.9999881814294711e-01  9.9999925191028338e-01  9.9999952652014024e-01  9.9999970034929786e-01  9.9999981037275354e-01  9.9999988000517182e-01  9.9999992407154470e-01  9.9999995195700897e-01  9.9999996960223714e-01  9.9999998076724528e-01  9.9999998783165633e-01  9.9999999230137804e-01  9.9999999512934445e-01  9.9999999691854657e-01  9.9999999805052142e-01  9.9999999876667889e-01  9.9999999921975680e-01  9.9999999950639451e-01  9.9999999968773212e-01  9.9999999980245324e-01  9.9999999987502941e-01  9.9999999992094157e-01  9.9999999994998612e-01  9.9999999996836098e-01  9.9999999997998590e-01  9.9999999998733990e-01  9.9999999999199096e-01  9.9999999999493405e-01  9.9999999999679579e-01  9.9999999999797373e-01  9.9999999999871803e-01  9.9999999999918987e-01  9.9999999999948841e-01  9.9999999999967637e-01  9.9999999999979572e-01  9.9999999999987210e-01  9.9999999999991918e-01  9.9999999999995015e-01  9.9999999999996891e-01  9.9999999999998046e-01  9.9999999999998834e-01  9.9999999999999289e-01  9.9999999999999600e-01  9.9999999999999856e-01  9.9999999999999867e-01  1.0000000000000002e+00  9.9999999999999978e-01  1.0000000000000007e+00  1.0000000000000002e+00  1.0000000000000011e+00  1.0000000000000011e+00  1.0000000000000007e+00  1.0000000000000009e+00  1.0000000000000000e+00  1.0000000000000013e+00  1.0000000000000007e+00  1.0000000000000004e+00  1.0000000000000004e+00  9.9999999999999967e-01  1.0000000000000004e+00  1.0000000000000000e+00  1.0000000000000007e+00  1.0000000000000009e+00  1.0000000000000009e+00  1.0000000000000016e+00  1.0000000000000007e+00  1.0000000000000009e+00  1.0000000000000007e+00  9.9999999999999978e-01  1.0000000000000007e+00