<?xml version="1.0"?>
<VTKFile type="UnstructuredGrid"  version="0.1"  >
<UnstructuredGrid>
<Piece  NumberOfPoints="21400" NumberOfCells="42336">
<Points>
<DataArray  type="Float64"  NumberOfComponents="3"  format="ascii">0 0 0  0.004583333333333333 0 0  0.009166666666666667 0 0  0.01375 0 0  0.01833333333333333 0 0  0.02291666666666667 0 0  0.0275 0 0  0.03208333333333334 0 0  0.03666666666666667 0 0  0.04125 0 0  0.04583333333333334 0 0  0.05041666666666667 0 0  0.055 0 0  0.05958333333333334 0 0  0.06416666666666668 0 0  0.06875000000000001 0 0  0.07333333333333333 0 0  0.07791666666666666 0 0  0.08249999999999999 0 0  0.08708333333333333 0 0  0.09166666666666667 0 0  0.09625000000000002 0 0  0.1008333333333333 0 0  0.1054166666666667 0 0  0.11 0 0  0.1145833333333333 0 0  0.1191666666666667 0 0  0.12375 0 0  0.1283333333333334 0 0  0.1329166666666667 0 0  0.1375 0 0  0.1420833333333333 0 0  0.1466666666666667 0 0  0.15125 0 0  0.1558333333333333 0 0  0.1604166666666667 0 0  0.165 0 0  0.1695833333333333 0 0  0.1741666666666667 0 0  0.17875 0 0  0.1833333333333333 0 0  0.1879166666666667 0 0  0.1925 0 0  0.1970833333333333 0 0  0.2016666666666667 0 0  0.20625 0 0  0.2108333333333333 0 0  0.2154166666666666 0 0  0.22 0 0  0.2245833333333334 0 0  0.2291666666666667 0 0  0.23375 0 0  0.2383333333333333 0 0  0.2429166666666667 0 0  0.2475 0 0  0.2520833333333333 0 0  0.2566666666666667 0 0  0.26125 0 0  0.2658333333333334 0 0  0.2704166666666666 0 0  0.275 0 0  0.2795833333333334 0 0  0.2841666666666667 0 0  0.28875 0 0  0.2933333333333333 0 0  0.2979166666666667 0 0  0.3025 0 0  0.3070833333333334 0 0  0.3116666666666666 0 0  0.31625 0 0  0.3208333333333333 0 0  0.3254166666666667 0 0  0.33 0 0  0.3345833333333333 0 0  0.3391666666666667 0 0  0.34375 0 0  0.3483333333333333 0 0  0.3529166666666667 0 0  0.3575 0 0  0.3620833333333333 0 0  0.3666666666666667 0 0  0.37125 0 0  0.3758333333333334 0 0  0.3804166666666667 0 0  0.3850000000000001 0 0  0.3895833333333333 0 0  0.3941666666666667 0 0  0.39875 0 0  0.4033333333333334 0 0  0.4079166666666666 0 0  0.4125 0 0  0.4170833333333334 0 0  0.4216666666666667 0 0  0.42625 0 0  0.4308333333333333 0 0  0.4354166666666667 0 0  0.44 0 0  0.4445833333333333 0 0  0.4491666666666667 0 0  0.45375 0 0  0.4583333333333333 0 0  0.4629166666666666 0 0  0.4675 0 0  0.4720833333333334 0 0  0.4766666666666667 0 0  0.4812500000000001 0 0  0.4858333333333333 0 0  0.4904166666666667 0 0  0.495 0 0  0.4995833333333334 0 0  0.5041666666666667 0 0  0.50875 0 0  0.5133333333333334 0 0  0.5179166666666667 0 0  0.5225 0 0  0.5270833333333333 0 0  0.5316666666666667 0 0  0.53625 0 0  0.5408333333333333 0 0  0.5454166666666667 0 0  0.55 0 0  0.5545833333333333 0 0  0.5591666666666667 0 0  0.5637500000000001 0 0  0.5683333333333334 0 0  0.5729166666666666 0 0  0.5775 0 0  0.5820833333333334 0 0  0.5866666666666667 0 0  0.5912499999999999 0 0  0.5958333333333334 0 0  0.6004166666666667 0 0  0.605 0 0  0.6095833333333334 0 0  0.6141666666666667 0 0  0.61875 0 0  0.6233333333333333 0 0  0.6279166666666667 0 0  0.6325000000000001 0 0  0.6370833333333333 0 0  0.6416666666666666 0 0  0.64625 0 0  0.6508333333333334 0 0  0.6554166666666666 0 0  0.6599999999999999 0 0  0.6645833333333334 0 0  0.6691666666666667 0 0  0.67375 0 0  0.6783333333333333 0 0  0.6829166666666667 0 0  0.6875 0 0  0.6920833333333333 0 0  0.6966666666666667 0 0  0.70125 0 0  0.7058333333333333 0 0  0.7104166666666667 0 0  0.7150000000000001 0 0  0.7195833333333334 0 0  0.7241666666666666 0 0  0.72875 0 0  0.7333333333333334 0 0  0.7379166666666667 0 0  0.7425 0 0  0.7470833333333333 0 0  0.7516666666666667 0 0  0.75625 0 0  0.7608333333333334 0 0  0.7654166666666666 0 0  0.7700000000000001 0 0  0 0.002380952380952381 0  0.004583333333333333 0.002380952380952381 0  0.009166666666666667 0.002380952380952381 0  0.01375 0.002380952380952381 0  0.01833333333333333 0.002380952380952381 0  0.02291666666666667 0.002380952380952381 0  0.0275 0.002380952380952381 0  0.03208333333333334 0.002380952380952381 0  0.03666666666666667 0.002380952380952381 0  0.04125 0.002380952380952381 0  0.04583333333333334 0.002380952380952381 0  0.05041666666666667 0.002380952380952381 0  0.055 0.002380952380952381 0  0.05958333333333334 0.002380952380952381 0  0.06416666666666668 0.002380952380952381 0  0.06875000000000001 0.002380952380952381 0  0.07333333333333333 0.002380952380952381 0  0.07791666666666666 0.002380952380952381 0  0.08249999999999999 0.002380952380952381 0  0.08708333333333333 0.002380952380952381 0  0.09166666666666667 0.002380952380952381 0  0.09625000000000002 0.002380952380952381 0  0.1008333333333333 0.002380952380952381 0  0.1054166666666667 0.002380952380952381 0  0.11 0.002380952380952381 0  0.1145833333333333 0.002380952380952381 0  0.1191666666666667 0.002380952380952381 0  0.12375 0.002380952380952381 0  0.1283333333333334 0.002380952380952381 0  0.1329166666666667 0.002380952380952381 0  0.1375 0.002380952380952381 0  0.1420833333333333 0.002380952380952381 0  0.1466666666666667 0.002380952380952381 0  0.15125 0.002380952380952381 0  0.1558333333333333 0.002380952380952381 0  0.1604166666666667 0.002380952380952381 0  0.165 0.002380952380952381 0  0.1695833333333333 0.002380952380952381 0  0.1741666666666667 0.002380952380952381 0  0.17875 0.002380952380952381 0  0.1833333333333333 0.002380952380952381 0  0.1879166666666667 0.002380952380952381 0  0.1925 0.002380952380952381 0  0.1970833333333333 0.002380952380952381 0  0.2016666666666667 0.002380952380952381 0  0.20625 0.002380952380952381 0  0.2108333333333333 0.002380952380952381 0  0.2154166666666666 0.002380952380952381 0  0.22 0.002380952380952381 0  0.2245833333333334 0.002380952380952381 0  0.2291666666666667 0.002380952380952381 0  0.23375 0.002380952380952381 0  0.2383333333333333 0.002380952380952381 0  0.2429166666666667 0.002380952380952381 0  0.2475 0.002380952380952381 0  0.2520833333333333 0.002380952380952381 0  0.2566666666666667 0.002380952380952381 0  0.26125 0.002380952380952381 0  0.2658333333333334 0.002380952380952381 0  0.2704166666666666 0.002380952380952381 0  0.275 0.002380952380952381 0  0.2795833333333334 0.002380952380952381 0  0.2841666666666667 0.002380952380952381 0  0.28875 0.002380952380952381 0  0.2933333333333333 0.002380952380952381 0  0.2979166666666667 0.002380952380952381 0  0.3025 0.002380952380952381 0  0.3070833333333334 0.002380952380952381 0  0.3116666666666666 0.002380952380952381 0  0.31625 0.002380952380952381 0  0.3208333333333333 0.002380952380952381 0  0.3254166666666667 0.002380952380952381 0  0.33 0.002380952380952381 0  0.3345833333333333 0.002380952380952381 0  0.3391666666666667 0.002380952380952381 0  0.34375 0.002380952380952381 0  0.3483333333333333 0.002380952380952381 0  0.3529166666666667 0.002380952380952381 0  0.3575 0.002380952380952381 0  0.3620833333333333 0.002380952380952381 0  0.3666666666666667 0.002380952380952381 0  0.37125 0.002380952380952381 0  0.3758333333333334 0.002380952380952381 0  0.3804166666666667 0.002380952380952381 0  0.3850000000000001 0.002380952380952381 0  0.3895833333333333 0.002380952380952381 0  0.3941666666666667 0.002380952380952381 0  0.39875 0.002380952380952381 0  0.4033333333333334 0.002380952380952381 0  0.4079166666666666 0.002380952380952381 0  0.4125 0.002380952380952381 0  0.4170833333333334 0.002380952380952381 0  0.4216666666666667 0.002380952380952381 0  0.42625 0.002380952380952381 0  0.4308333333333333 0.002380952380952381 0  0.4354166666666667 0.002380952380952381 0  0.44 0.002380952380952381 0  0.4445833333333333 0.002380952380952381 0  0.4491666666666667 0.002380952380952381 0  0.45375 0.002380952380952381 0  0.4583333333333333 0.002380952380952381 0  0.4629166666666666 0.002380952380952381 0  0.4675 0.002380952380952381 0  0.4720833333333334 0.002380952380952381 0  0.4766666666666667 0.002380952380952381 0  0.4812500000000001 0.002380952380952381 0  0.4858333333333333 0.002380952380952381 0  0.4904166666666667 0.002380952380952381 0  0.495 0.002380952380952381 0  0.4995833333333334 0.002380952380952381 0  0.5041666666666667 0.002380952380952381 0  0.50875 0.002380952380952381 0  0.5133333333333334 0.002380952380952381 0  0.5179166666666667 0.002380952380952381 0  0.5225 0.002380952380952381 0  0.5270833333333333 0.002380952380952381 0  0.5316666666666667 0.002380952380952381 0  0.53625 0.002380952380952381 0  0.5408333333333333 0.002380952380952381 0  0.5454166666666667 0.002380952380952381 0  0.55 0.002380952380952381 0  0.5545833333333333 0.002380952380952381 0  0.5591666666666667 0.002380952380952381 0  0.5637500000000001 0.002380952380952381 0  0.5683333333333334 0.002380952380952381 0  0.5729166666666666 0.002380952380952381 0  0.5775 0.002380952380952381 0  0.5820833333333334 0.002380952380952381 0  0.5866666666666667 0.002380952380952381 0  0.5912499999999999 0.002380952380952381 0  0.5958333333333334 0.002380952380952381 0  0.6004166666666667 0.002380952380952381 0  0.605 0.002380952380952381 0  0.6095833333333334 0.002380952380952381 0  0.6141666666666667 0.002380952380952381 0  0.61875 0.002380952380952381 0  0.6233333333333333 0.002380952380952381 0  0.6279166666666667 0.002380952380952381 0  0.6325000000000001 0.002380952380952381 0  0.6370833333333333 0.002380952380952381 0  0.6416666666666666 0.002380952380952381 0  0.64625 0.002380952380952381 0  0.6508333333333334 0.002380952380952381 0  0.6554166666666666 0.002380952380952381 0  0.6599999999999999 0.002380952380952381 0  0.6645833333333334 0.002380952380952381 0  0.6691666666666667 0.002380952380952381 0  0.67375 0.002380952380952381 0  0.6783333333333333 0.002380952380952381 0  0.6829166666666667 0.002380952380952381 0  0.6875 0.002380952380952381 0  0.6920833333333333 0.002380952380952381 0  0.6966666666666667 0.002380952380952381 0  0.70125 0.002380952380952381 0  0.7058333333333333 0.002380952380952381 0  0.7104166666666667 0.002380952380952381 0  0.7150000000000001 0.002380952380952381 
[...]
<PointData  Scalars="concentration"> 
<DataArray  type="Float64"  Name="concentration"  format="ascii">0.0000000000000000e+00  8.0035485041888316e-02  2.3002537116782099e-01  1.7590546852893563e-01  -2.3567038687336034e-02  -1.3125421357648606e-01  -1.7283863887565304e-01  -1.8990098144234263e-01  -1.7971802552514418e-01  -8.4120803321574567e-02  6.5928900194321786e-03  1.4417824926625023e-03  2.7177606667106417e-04  -1.0625309720274647e-02  -5.0930825493250365e-03  -2.6178517963979960e-02  -4.5528632111596651e-03  -4.0056951327115918e-02  -5.0523671073541367e-02  -3.2237898866204685e-02  -1.0116352051093908e-01  -2.7001936394026410e-01  7.2888104546505195e-01  1.0198720200838356e+00  9.6444928468071700e-01  1.0123828966328774e+00  9.9699825809571763e-01  9.9946954326657478e-01  9.8702921521297549e-01  1.0095833526259896e+00  9.8084266140782828e-01  1.0065411191926499e+00  9.8112549805220939e-01  1.0322999773250578e+00  9.5111823475574264e-01  1.0480566337468251e+00  9.9940169644142318e-01  1.0459929093517488e+00  1.0527842768989892e+00  1.1677661867540852e+00  8.1767857026330271e-01  1.1513906925093325e+00  8.0252764700934542e-01  1.1453540079086668e+00  7.9733697248520019e-01  1.1514863647214950e+00  7.9904930525874573e-01  1.1516112827622422e+00  8.1079771423909996e-01  1.1480188902618422e+00  8.2399988221924203e-01  1.1166090331586380e+00  8.0096491470236497e-01  1.0843934943951175e+00  8.2009040870473138e-01  1.1495920864513531e+00  8.1670268882127972e-01  1.2063295730508052e+00  9.8929770237090031e-01  9.2290372638777729e-01  9.8040555951810571e-01  9.9984601371487702e-01  8.7565001178603019e-01  1.0648446374052130e+00  1.0554233744240282e+00  1.0601517782567567e+00  1.0342475626869707e+00  1.0205309497490771e+00  1.0122993527460460e+00  1.0074372847241921e+00  1.0045295246618964e+00  1.0027749750920660e+00  1.0017081341218361e+00  1.0010554791514730e+00  1.0006542449291378e+00  1.0004065930633885e+00  1.0002532349390771e+00  1.0001580093118143e+00  1.0000987450763614e+00  1.0000617903774711e+00  1.0000387091764771e+00  1.0000242729587536e+00  1.0000152330147334e+00  1.0000095664522217e+00  1.0000060113624067e+00  1.0000037793172254e+00  1.0000023770547599e+00  1.0000014956229895e+00  1.0000009413214594e+00  1.0000005926058673e+00  1.0000003731542475e+00  1.0000002350120714e+00  1.0000001480329523e+00  1.0000000932571385e+00  1.0000000587559525e+00  1.0000000370219924e+00  1.0000000233291568e+00  1.0000000147015771e+00  1.0000000092650856e+00  1.0000000058391749e+00  1.0000000036801573e+00  1.0000000023194859e+00  1.0000000014619199e+00  1.0000000009214276e+00  1.0000000005807681e+00  1.0000000003660536e+00  1.0000000002307226e+00  1.0000000001454226e+00  1.0000000000916600e+00  1.0000000000577722e+00  1.0000000000364129e+00  1.0000000000229508e+00  1.0000000000144669e+00  1.0000000000091183e+00  1.0000000000057476e+00  1.0000000000036220e+00  1.0000000000022844e+00  1.0000000000014400e+00  1.0000000000009088e+00  1.0000000000005727e+00  1.0000000000003619e+00  1.0000000000002283e+00  1.0000000000001454e+00  1.0000000000000921e+00  1.0000000000000591e+00  1.0000000000000380e+00  1.0000000000000251e+00  1.0000000000000169e+00  1.0000000000000118e+00  1.0000000000000075e+00  1.0000000000000062e+00  1.0000000000000051e+00  1.0000000000000042e+00  1.0000000000000042e+00  1.0000000000000042e+00  1.0000000000000033e+00  1.0000000000000022e+00  1.0000000000000020e+00  1.0000000000000018e+00  1.0000000000000027e+00  1.0000000000000020e+00  1.0000000000000016e+00  1.0000000000000024e+00  1.0000000000000013e+00  1.0000000000000016e+00  1.0000000000000022e+00  1.0000000000000013e+00  1.0000000000000018e+00  1.0000000000000016e+00  1.0000000000000009e+00  1.0000000000000002e+00  1.0000000000000016e+00  1.0000000000000004e+00  1.0000000000000016e+00  1.0000000000000007e+00  1.0000000000000018e+00  1.0000000000000011e+00  1.0000000000000022e+00  1.0000000000000022e+00  1.0000000000000018e+00  1.0000000000000022e+00  1.0000000000000011e+00  1.0000000000000011e+00  1.0000000000000004e+00  1.0000000000000009e+00  1.0000000000000016e+00  1.0000000000000018e+00  1.0000000000000011e+00  1.0000000000000016e+00  0.0000000000000000e+00  -1.8832430731906238e-02  -1.0175587453240366e-01  6.5057871955148741e-02  6.2633399132942735e-01  9.0395163435974879e-01  9.6914349451830151e-01  9.2497390875217300e-01  9.3989115908002652e-01  3.0799067753560599e-01  1.3674232313610524e-01  8.0159486575101135e-02  4.2955761629679394e-02  2.8711075248643914e-02  5.9946980186039618e-03  1.2516925694831635e-02  -2.0909169164632167e-02  2.2194378208212641e-03  -6.7070152529252894e-03  -4.4400464493622734e-02  -4.3757147875150837e-03  2.2878921715999219e-03  3.8902398381829427e-02  -3.2810613745357748e-03  4.1272126395789768e-02  -1.7676982655690770e-02  -1.4173199265057714e-04  -2.8368586613177322e-03  1.0988237487844705e-03  -1.8549047030436267e-02  7.8377472057527646e-03  -1.3636375185692587e-02  6.6137913508281694e-03  -2.5188181384908033e-02  4.1478824536947061e-02  -3.0018719375547950e-02  3.5648018669183337e-02  3.2677434217209214e-02  8.5879943302195241e-02  1.0402355434900094e-01  6.5895360757975441e-01  3.1597535179712560e-01  7.4757498800865507e-01  3.4089079220110324e-01  7.5926843725043569e-01  3.4439002135920138e-01  7.7011928911673244e-01  3.5281763888578166e-01  7.8641021449462900e-01  3.6680620148497567e-01  8.2101484353305598e-01  3.9008313462393013e-01  8.2934375751038514e-01  3.4884237669932844e-01  6.7448671255487336e-01  3.0945288876376886e-01  6.9112736525038854e-01  3.3808447843934275e-01  7.3564071299666056e-01  1.0297339639642611e+00  9.2886496157854659e-01  8.8977413655934967e-01  9.5919045437720862e-01  5.7857509810437557e-01  5.7218025487627255e-01  6.6109604106349951e-01  7.9050626829469228e-01  8.6981877104729965e-01  9.1863026329335040e-01  9.4894013604420868e-01  9.6788990801000263e-01  9.7978285425147160e-01  9.8726255145742770e-01  9.9197204204560752e-01  9.9493918210229393e-01  9.9680925160100509e-01  9.9798812927448721e-01  9.9873138049939369e-01  9.9920001957512294e-01  9.9949552521268237e-01  9.9968186707714835e-01  9.9979937522593199e-01  9.9987347814347716e-01  9.9992020968516182e-01  9.9994968039424470e-01  9.9996826593717125e-01  9.9997998688814549e-01  9.9998737872353294e-01  9.9999204040519474e-01  9.9999498030814737e-01  9.9999683436351305e-01  9.9999800362349012e-01  9.9999874101407182e-01  9.9999920604486758e-01  9.9999949931175780e-01  9.9999968425615082e-01  9.9999980088763252e-01  9.9999987443829697e-01  9.9999992082071332e-01  9.9999995007003717e-01  9.9999996851483264e-01  9.9999998014610203e-01  9.9999998748069174e-01  9.9999999210577173e-01  9.9999999502224290e-01  9.9999999686128349e-01  9.9999999802091177e-01  9.9999999875212187e-01  9.9999999921318239e-01  9.9999999950389995e-01  9.9999999968720632e-01  9.9999999980278509e-01  9.9999999987565757e-01  9.9999999992160549e-01  9.9999999995057454e-01  9.9999999996884048e-01  9.9999999998035516e-01  9.9999999998761602e-01  9.9999999999219291e-01  9.9999999999507971e-01  9.9999999999689826e-01  9.9999999999804579e-01  9.9999999999876799e-01  9.9999999999922429e-01  9.9999999999951139e-01  9.9999999999969225e-01  9.9999999999980616e-01  9.9999999999987887e-01  9.9999999999992362e-01  9.9999999999995337e-01  9.9999999999997102e-01  9.9999999999998224e-01  9.9999999999998967e-01  9.9999999999999356e-01  9.9999999999999589e-01  9.9999999999999811e-01  1.0000000000000000e+00  1.0000000000000004e+00  1.0000000000000011e+00  1.0000000000000009e+00  1.0000000000000018e+00  1.0000000000000018e+00  1.0000000000000016e+00  1.0000000000000020e+00  1.0000000000000020e+00  1.0000000000000016e+00  1.0000000000000024e+00  1.0000000000000020e+00  1.0000000000000016e+00  1.0000000000000016e+00  1.0000000000000020e+00  1.0000000000000011e+00  1.0000000000000024e+00  1.0000000000000013e+00  1.0000000000000024e+00  1.0000000000000016e+00  1.0000000000000027e+00  1.0000000000000016e+00  1.0000000000000018e+00  1.0000000000000013e+00  1.0000000000000004e+00  1.0000000000000013e+00  1.0000000000000009e+00  1.0000000000000018e+00  1.0000000000000016e+00  1.0000000000000011e+00  1.0000000000000007e+00  1.0000000000000007e+00  1.0000000000000004e+00  0.0000000000000000e+00  5.6294557480565655e-04  -1.6034676355571469e-02  1.7234386123679754e-01  5.8125783139597896e-02  6.2171250721994593e-02  5.2411175229728942e-02  7.1554125423842346e-02  2.0768865581027363e-02  -4.2176201247399146e-02  -3.8511829813165775e-02  -2.9141372428151253e-02  -1.6363091208409626e-02  -1.6611974432782211e-02  -4.2496842676453738e-03  -1.6510990817814299e-02  1.0156364954635150e-02  -2.2060932601723846e-02  -1.8918584249599140e-03  2.8803954789119849e-02  -1.4617800251008608e-02  1.1960214505016439e-02  -2.3870094698397279e-02  1.0665819054890689e-02  -3.8721717181852723e-02  2.5460536441996924e-02  -8.7649142418348095e-04  -2.8985765617261188e-04  -3.9492464836978327e-03  1.5927981633198598e-02  -9.5627963137270375e-03  1.8336462977066547e-02  3.1168506738880530e-03  3.9638989105463665e-02  -1.9076176667933546e-02  6.6846388362106046e-02  6.4285687209650879e-03  2.8310143694594152e-02  3.2024888361360712e-04  3.0659321490680624e-02  -5.9456895235111475e-02  -1.9687282181683745e-02  -5.3958605115604380e-02  -1.7493929055790204e-02  -4.8407420730079302e-02  -9.5826835251818614e-03  -4.6036172691089082e-02  -7.2013122081838422e-03  -4.2798114814943486e-02  -5.8453381253585146e-03  -4.0526523364841811e-02  1.8730602168573851e-03  -3.1003751636710184e-02  4.8517774551722834e-02  2.4836500935019427e-02  6.5559836994225906e-02  -7.7976334899641070e-04  2.6823460755369577e-03  -1.8786260909441469e-02  -1.0985436295988953e-01  -6.0125431123085459e-02  -4.4167382742361455e-02  -7.2866027699422090e-02  -4.1082697978336746e-02  4.6258352214215231e-02  3.5361451842094571e-01  5.9216955537554672e-01  7.4291389026476673e-01  8.3782111121217473e-01  8.9757841994436482e-01  9.3525580643476813e-01  9.5904268772095802e-01  9.7407611301531938e-01  9.8358504683593317e-01  9.8960321764943371e-01  9.9341371357604580e-01  9.9582710064714675e-01  9.9735593500311592e-01  9.9832455427499978e-01  9.9893829501434150e-01  9.9932719883093246e-01  9.9957364129290782e-01  9.9972981169329345e-01  9.9982877806834303e-01  9.9989149426475621e-01  9.9993123841356923e-01  9.9995642487238856e-01  9.9997238590005044e-01  9.9998250062558247e-01  9.9998891045872329e-01  9.9999297244712892e-01  9.9999554657427647e-01  9.9999717782505404e-01  9.9999821156420876e-01  9.9999886665392568e-01  9.9999928178979391e-01  9.9999954486472986e-01  9.9999971157735679e-01  9.9999981722440745e-01  9.9999988417373076e-01  9.9999992660001114e-01  9.9999995348586057e-01  9.9999997052362177e-01  9.9999998132058132e-01  9.9999998816269897e-01  9.9999999249860116e-01  9.9999999524629890e-01  9.9999999698753672e-01  9.9999999809097562e-01  9.9999999879023271e-01  9.9999999923335858e-01  9.9999999951417118e-01  9.9999999969212572e-01  9.9999999980489629e-01  9.9999999987636168e-01  9.9999999992164834e-01  9.9999999995034894e-01  9.9999999996853539e-01  9.9999999998006128e-01  9.9999999998736422e-01  9.9999999999199340e-01  9.9999999999492584e-01  9.9999999999678524e-01  9.9999999999796252e-01  9.9999999999870948e-01  9.9999999999918288e-01  9.9999999999948230e-01  9.9999999999967115e-01  9.9999999999979261e-01  9.9999999999986788e-01  9.9999999999991673e-01  9.9999999999994738e-01  9.9999999999996614e-01  9.9999999999997857e-01  9.9999999999998657e-01  9.9999999999999134e-01  9.9999999999999512e-01  9.9999999999999756e-01  9.9999999999999822e-01  9.9999999999999944e-01  9.9999999999999978e-01  1.0000000000000000e+00  1.0000000000000004e+00  1.0000000000000002e+00  1.0000000000000004e+00  1.0000000000000011e+00  1.0000000000000011e+00  1.0000000000000011e+00  1.0000000000000013e+00  1.0000000000000013e+00  1.0000000000000009e+00  1.0000000000000011e+00  9.9999999999999967e-01  1.0000000000000007e+00  9.9999999999999978e-01  1.0000000000000009e+00  9.9999999999999956e-01  1.0000000000000009e+00  1.0000000000000000e+00  1.0000000000000000e+00  1.0000000000000007e+00  1.0000000000000000e+00  1.0000000000000002e+00  9.9999999999999967e-01  9.9999999999999956e-01  9.9999999999999967e-01  1.0000000000000002e+00  1.0000000000000004e+00  1.0000000000000007e+00  0.0000000000000000e+00  -4.9775696520430622e-03  3.6036044670656242e-02  -8.7719146003198301e-02  -5.8585618051587574e-03  -1.0262027850619759e-02  -7.6845792670853733e-03  -3.9472777926058182e-02  -4.1384464439171285e-02  -1.1503978246562515e-02  1.0447703310406311e-03  5.9090701841866431e-03  2.0942384515822976e-03  7.2024377592502711e-03  -1.0651750004293981e-03  1.0668086950863916e-02  -1.1604485656247762e-02  2.8182622118640178e-02  -1.3982205540743956e-02  -2.6978553810760881e-02  2.4791867228388130e-02  -2.6865893686129811e-02  1.9982771108006739e-02  -1.0518499819591116e-02  3.6767789740782819e-02  -4.0047067309519971e-02  5.9140896533313317e-03  8.0131273762218992e-03  1.1207294465632719e-02  -4.4689784240060371e-03  2.4969344477687758e-02  -6.5013704401795181e-03  1.1003034613938817e-02  -1.8037707756632538e-02  4.1815418355756369e-02  -4.8012335321416688e-02  2.9180842852820521e-02  -8.3239852777358724e-04  1.3602568350810111e-02  -2.6029071502110573e-02  4.2450446607153615e-02  1.0413631382305034e-02  4.0628610266281992e-02  1.5426967743535133e-02  4.3469094324449550e-02  1.7953541477420055e-02  5.2280036134926308e-02  2.6629398974860267e-02  5.8891326145304117e-02  3.3929577118546342e-02  6.1636089768513737e-02  2.3609665453142897e-02  5.2353573401178445e-02  -2.6872383790321492e-02  -7.8328578824061398e-03  3.1835181846480006e-03  9.3983765533273381e-02  1.5536259707039865e-01  1.7087735647412847e-01  2.4099289770095006e-01  1.8393687397778299e-01  1.5205646977571247e-01  1.5421588014923554e-01  9.0206078805539852e-02  9.5965264921644797e-02  3.8607954132448941e-01  6.0841285126069877e-01  7.5227252470413020e-01  8.4376218636618605e-01  9.0149452473569958e-01  9.3786032456166246e-01  9.6077074917465277e-01  9.7521612865988827e-01  9.8433269920555189e-01  9.9009107570586508e-01  9.9373077788153052e-01  9.9603253520840385e-01  9.9748873716509423e-01  9.9841025746186129e-01  9.9899353297832361e-01  9.9936276723513451e-01  9.9959652760123408e-01  9.9974452947162118e-01  9.9983823857177689e-01  9.9989757320278561e-01  9.9993514330134103e-01  9.9995893257225965e-01  9.9997399596173975e-01  9.9998353414756402e-01  9.9998957376631914e-01  9.9999339807917953e-01  9.9999581964966822e-01  9.9999735299660442e-01  9.9999832391614751e-01  9.9999893870430401e-01  9.9999932798884150e-01  9.9999957448390031e-01  9.9999973056441560e-01  9.9999982939436871e-01  9.9999989197326722e-01  9.9999993159803224e-01  9.9999995668827890e-01  9.9999997257530659e-01  9.9999998263488687e-01  9.9999998900455045e-01  9.9999999303777931e-01  9.9999999559158859e-01  9.9999999720863986e-01  9.9999999823254071e-01  9.9999999888086599e-01  9.9999999929137873e-01  9.9999999955131058e-01  9.9999999971589637e-01  9.9999999982011067e-01  9.9999999988609589e-01  9.9999999992787858e-01  9.9999999995433331e-01  9.9999999997108568e-01  9.9999999998169131e-01  9.9999999998840816e-01  9.9999999999266032e-01  9.9999999999535338e-01  9.9999999999705758e-01  9.9999999999813749e-01  9.9999999999882072e-01  9.9999999999925393e-01  9.9999999999952782e-01  9.9999999999970257e-01  9.9999999999981115e-01  9.9999999999988132e-01  9.9999999999992473e-01  9.9999999999995237e-01  9.9999999999997036e-01  9.9999999999998135e-01  9.9999999999998879e-01  9.9999999999999334e-01  9.9999999999999589e-01  9.9999999999999700e-01  9.9999999999999878e-01  9.9999999999999922e-01  1.0000000000000000e+00  1.0000000000000000e+00  1.0000000000000002e+00  9.9999999999999989e-01  1.0000000000000000e+00  1.0000000000000002e+00  1.0000000000000007e+00  1.0000000000000004e+00  1.0000000000000004e+00  1.0000000000000004e+00  1.0000000000000000e+00  9.9999999999999978e-01  1.0000000000000013e+00  1.0000000000000004e+00  1.0000000000000013e+00  1.0000000000000004e+00  1.0000000000000011e+00  9.9999999999999889e-01  1.0000000000000004e+00  1.0000000000000007e+00  1.0000000000000000e+00  1.0000000000000011e+00  1.0000000000000009e+00  1.0000000000000016e+00  1.0000000000000018e+00  1.0000000000000013e+00  1.0000000000000013e+00  1.0000000000000009e+00  1.0000000000000007e+00  0.0000000000000000e+00  9.2738838429398222e-03  -3.4237160209359199e-02  4.8314364006809371e-02  -7.7844571194303769e-03  -5.8407606719816591e-03  -1.5537862817088991e-02  1.2743448218285548e-03  1.5282379947882474e-02  8.9134753451212238e-03  4.1350596206478759e-03  -1.0794459546120288e-03  1.3789033706753120e-03  -3.1244802370909200e-03  4.9751892644480889e-03  -1.9131708094390837e-03  1.7100147923182527e-02  -2.5445254670760930e-02  4.9837637477418643e-02  2.9292480584358935e-02  -2.9720849490778838e-02  4.6235091391297056e-02  -2.1396152426357968e-02  9.4714635451428209e-03  -2.6682832726987005e-02  6.8375548244792986e-02  -1.0010541808849032e-02  -1.0781326703390767e-02  -7.8986450247420480e-03  5.7225514906951349e-03  -2.3577499231153612e-02  1.9093890143468777e-02  2.6256609195175469e-03  2.2443575542814485e-02  -3.6194949229336720e-02  5.7377608392546048e-02  -4.6328244691137721e-02  -3.0925775126894226e-03  -2.4387092439097672e-03  4.0668305819708955e-02  -1.0247837362819928e-02  1.8804755400267961e-02  -2.0996969676017972e-03  2.3095002378068885e-02  7.2334650745089542e-03  3.4150650111174623e-02  1.2658175823679951e-02  4.4680014729676226e-02  2.7716238786504619e-02  6.2602297238775972e-02  5.2106900184545918e-02  9.8432953831078279e-02  9.2437009234773257e-02  4.9408797797348181e-01  6.5215765403797188e-01  9.1072302305747732e-01  8.0353337781790946e-01  6.4381269589687085e-01  4.8178456934916569e-01  4.9873109987515385e-01  9.0407118507602546e-01  1.0987989729005854e+00  9.9470492175881087e-01  5.0470446914779599e-01  4.9883850982303185e-01  5.6984517828783676e-01  7.1539554485984458e-01  8.1843683230827535e-01  8.8547896957345462e-01  9.2799827421847070e-01  9.5473057151766216e-01  9.7150532463399242e-01  9.8203931415427048e-01  9.8866476508951995e-01  9.9283880797415103e-01  9.9547224311165639e-01  9.9713559747186564e-01  9.9818712863643433e-01  9.9885230046798057e-01  9.9927326107326320e-01  9.9953975447938070e-01  9.9970849774737847e-01  9.9981536170563967e-01  9.9988304473052558e-01  9.9992591511512108e-01  9.9995307038666525e-01  9.9997027176842601e-01  9.9998116810298043e-01  9.9998807054007899e-01  9.9999244301655166e-01  9.9999521285384751e-01  9.9999696746955746e-01  9.9999807897162407e-01  9.9999878307880175e-01  9.9999922911218331e-01  9.9999951166261969e-01  9.9999969065091088e-01  9.9999980403530608e-01  9.9999987586136074e-01  9.9999992136130156e-01  9.9999995018434151e-01  9.9999996844300254e-01  9.9999998000940349e-01  9.9999998733643014e-01  9.9999999197792366e-01  9.9999999491819680e-01  9.9999999678079043e-01  9.9999999796069994e-01  9.9999999870814782e-01  9.9999999918163796e-01  9.9999999948158380e-01  9.9999999967159370e-01  9.9999999979196097e-01  9.9999999986821075e-01  9.9999999991651545e-01  9.9999999994711353e-01  9.9999999996649813e-01  9.9999999997877587e-01  9.9999999998655609e-01  9.9999999999148348e-01  9.9999999999460576e-01  9.9999999999658284e-01  9.9999999999783595e-01  9.9999999999862899e-01  9.9999999999913247e-01  9.9999999999944988e-01  9.9999999999965195e-01  9.9999999999977873e-01  9.9999999999986100e-01  9.9999999999991140e-01  9.9999999999994438e-01  9.9999999999996503e-01  9.9999999999997802e-01  9.9999999999998546e-01  9.9999999999999045e-01  9.9999999999999389e-01  9.9999999999999700e-01  9.9999999999999856e-01  9.9999999999999889e-01  1.0000000000000004e+00  1.0000000000000000e+00  1.0000000000000004e+00  1.0000000000000007e+00  1.0000000000000013e+00  1.0000000000000011e+00  1.0000000000000009e+00  1.0000000000000007e+00  1.0000000000000004e+00  1.000000000