<?xml version="1.0"?>
<VTKFile type="UnstructuredGrid"  version="0.1"  >
<UnstructuredGrid>
<Piece  NumberOfPoints="21400" NumberOfCells="42336">
<Points>
<DataArray  type="Float64"  NumberOfComponents="3"  format="ascii">0 0 0  0.004583333333333333 0 0  0.009166666666666667 0 0  0.01375 0 0  0.01833333333333333 0 0  0.02291666666666667 0 0  0.0275 0 0  0.03208333333333334 0 0  0.03666666666666667 0 0  0.04125 0 0  0.04583333333333334 0 0  0.05041666666666667 0 0  0.055 0 0  0.05958333333333334 0 0  0.06416666666666668 0 0  0.06875000000000001 0 0  0.07333333333333333 0 0  0.07791666666666666 0 0  0.08249999999999999 0 0  0.08708333333333333 0 0  0.09166666666666667 0 0  0.09625000000000002 0 0  0.1008333333333333 0 0  0.1054166666666667 0 0  0.11 0 0  0.1145833333333333 0 0  0.1191666666666667 0 0  0.12375 0 0  0.1283333333333334 0 0  0.1329166666666667 0 0  0.1375 0 0  0.1420833333333333 0 0  0.1466666666666667 0 0  0.15125 0 0  0.1558333333333333 0 0  0.1604166666666667 0 0  0.165 0 0  0.1695833333333333 0 0  0.1741666666666667 0 0  0.17875 0 0  0.1833333333333333 0 0  0.1879166666666667 0 0  0.1925 0 0  0.1970833333333333 0 0  0.2016666666666667 0 0  0.20625 0 0  0.2108333333333333 0 0  0.2154166666666666 0 0  0.22 0 0  0.2245833333333334 0 0  0.2291666666666667 0 0  0.23375 0 0  0.2383333333333333 0 0  0.2429166666666667 0 0  0.2475 0 0  0.2520833333333333 0 0  0.2566666666666667 0 0  0.26125 0 0  0.2658333333333334 0 0  0.2704166666666666 0 0  0.275 0 0  0.2795833333333334 0 0  0.2841666666666667 0 0  0.28875 0 0  0.2933333333333333 0 0  0.2979166666666667 0 0  0.3025 0 0  0.3070833333333334 0 0  0.3116666666666666 0 0  0.31625 0 0  0.3208333333333333 0 0  0.3254166666666667 0 0  0.33 0 0  0.3345833333333333 0 0  0.3391666666666667 0 0  0.34375 0 0  0.3483333333333333 0 0  0.3529166666666667 0 0  0.3575 0 0  0.3620833333333333 0 0  0.3666666666666667 0 0  0.37125 0 0  0.3758333333333334 0 0  0.3804166666666667 0 0  0.3850000000000001 0 0  0.3895833333333333 0 0  0.3941666666666667 0 0  0.39875 0 0  0.4033333333333334 0 0  0.4079166666666666 0 0  0.4125 0 0  0.4170833333333334 0 0  0.4216666666666667 0 0  0.42625 0 0  0.4308333333333333 0 0  0.4354166666666667 0 0  0.44 0 0  0.4445833333333333 0 0  0.4491666666666667 0 0  0.45375 0 0  0.4583333333333333 0 0  0.4629166666666666 0 0  0.4675 0 0  0.4720833333333334 0 0  0.4766666666666667 0 0  0.4812500000000001 0 0  0.4858333333333333 0 0  0.4904166666666667 0 0  0.495 0 0  0.4995833333333334 0 0  0.5041666666666667 0 0  0.50875 0 0  0.5133333333333334 0 0  0.5179166666666667 0 0  0.5225 0 0  0.5270833333333333 0 0  0.5316666666666667 0 0  0.53625 0 0  0.5408333333333333 0 0  0.5454166666666667 0 0  0.55 0 0  0.5545833333333333 0 0  0.5591666666666667 0 0  0.5637500000000001 0 0  0.5683333333333334 0 0  0.5729166666666666 0 0  0.5775 0 0  0.5820833333333334 0 0  0.5866666666666667 0 0  0.5912499999999999 0 0  0.5958333333333334 0 0  0.6004166666666667 0 0  0.605 0 0  0.6095833333333334 0 0  0.6141666666666667 0 0  0.61875 0 0  0.6233333333333333 0 0  0.6279166666666667 0 0  0.6325000000000001 0 0  0.6370833333333333 0 0  0.6416666666666666 0 0  0.64625 0 0  0.6508333333333334 0 0  0.6554166666666666 0 0  0.6599999999999999 0 0  0.6645833333333334 0 0  0.6691666666666667 0 0  0.67375 0 0  0.6783333333333333 0 0  0.6829166666666667 0 0  0.6875 0 0  0.6920833333333333 0 0  0.6966666666666667 0 0  0.70125 0 0  0.7058333333333333 0 0  0.7104166666666667 0 0  0.7150000000000001 0 0  0.7195833333333334 0 0  0.7241666666666666 0 0  0.72875 0 0  0.7333333333333334 0 0  0.7379166666666667 0 0  0.7425 0 0  0.7470833333333333 0 0  0.7516666666666667 0 0  0.75625 0 0  0.7608333333333334 0 0  0.7654166666666666 0 0  0.7700000000000001 0 0  0 0.002380952380952381 0  0.004583333333333333 0.002380952380952381 0  0.009166666666666667 0.002380952380952381 0  0.01375 0.002380952380952381 0  0.01833333333333333 0.002380952380952381 0  0.02291666666666667 0.002380952380952381 0  0.0275 0.002380952380952381 0  0.03208333333333334 0.002380952380952381 0  0.03666666666666667 0.002380952380952381 0  0.04125 0.002380952380952381 0  0.04583333333333334 0.002380952380952381 0  0.05041666666666667 0.002380952380952381 0  0.055 0.002380952380952381 0  0.05958333333333334 0.002380952380952381 0  0.06416666666666668 0.002380952380952381 0  0.06875000000000001 0.002380952380952381 0  0.07333333333333333 0.002380952380952381 0  0.07791666666666666 0.002380952380952381 0  0.08249999999999999 0.002380952380952381 0  0.08708333333333333 0.002380952380952381 0  0.09166666666666667 0.002380952380952381 0  0.09625000000000002 0.002380952380952381 0  0.1008333333333333 0.002380952380952381 0  0.1054166666666667 0.002380952380952381 0  0.11 0.002380952380952381 0  0.1145833333333333 0.002380952380952381 0  0.1191666666666667 0.002380952380952381 0  0.12375 0.002380952380952381 0  0.1283333333333334 0.002380952380952381 0  0.1329166666666667 0.002380952380952381 0  0.1375 0.002380952380952381 0  0.1420833333333333 0.002380952380952381 0  0.1466666666666667 0.002380952380952381 0  0.15125 0.002380952380952381 0  0.1558333333333333 0.002380952380952381 0  0.1604166666666667 0.002380952380952381 0  0.165 0.002380952380952381 0  0.1695833333333333 0.002380952380952381 0  0.1741666666666667 0.002380952380952381 0  0.17875 0.002380952380952381 0  0.1833333333333333 0.002380952380952381 0  0.1879166666666667 0.002380952380952381 0  0.1925 0.002380952380952381 0  0.1970833333333333 0.002380952380952381 0  0.2016666666666667 0.002380952380952381 0  0.20625 0.002380952380952381 0  0.2108333333333333 0.002380952380952381 0  0.2154166666666666 0.002380952380952381 0  0.22 0.002380952380952381 0  0.2245833333333334 0.002380952380952381 0  0.2291666666666667 0.002380952380952381 0  0.23375 0.002380952380952381 0  0.2383333333333333 0.002380952380952381 0  0.2429166666666667 0.002380952380952381 0  0.2475 0.002380952380952381 0  0.2520833333333333 0.002380952380952381 0  0.2566666666666667 0.002380952380952381 0  0.26125 0.002380952380952381 0  0.2658333333333334 0.002380952380952381 0  0.2704166666666666 0.002380952380952381 0  0.275 0.002380952380952381 0  0.2795833333333334 0.002380952380952381 0  0.2841666666666667 0.002380952380952381 0  0.28875 0.002380952380952381 0  0.2933333333333333 0.002380952380952381 0  0.2979166666666667 0.002380952380952381 0  0.3025 0.002380952380952381 0  0.3070833333333334 0.002380952380952381 0  0.3116666666666666 0.002380952380952381 0  0.31625 0.002380952380952381 0  0.3208333333333333 0.002380952380952381 0  0.3254166666666667 0.002380952380952381 0  0.33 0.002380952380952381 0  0.3345833333333333 0.002380952380952381 0  0.3391666666666667 0.002380952380952381 0  0.34375 0.002380952380952381 0  0.3483333333333333 0.002380952380952381 0  0.3529166666666667 0.002380952380952381 0  0.3575 0.002380952380952381 0  0.3620833333333333 0.002380952380952381 0  0.3666666666666667 0.002380952380952381 0  0.37125 0.002380952380952381 0  0.3758333333333334 0.002380952380952381 0  0.3804166666666667 0.002380952380952381 0  0.3850000000000001 0.002380952380952381 0  0.3895833333333333 0.002380952380952381 0  0.3941666666666667 0.002380952380952381 0  0.39875 0.002380952380952381 0  0.4033333333333334 0.002380952380952381 0  0.4079166666666666 0.002380952380952381 0  0.4125 0.002380952380952381 0  0.4170833333333334 0.002380952380952381 0  0.4216666666666667 0.002380952380952381 0  0.42625 0.002380952380952381 0  0.4308333333333333 0.002380952380952381 0  0.4354166666666667 0.002380952380952381 0  0.44 0.002380952380952381 0  0.4445833333333333 0.002380952380952381 0  0.4491666666666667 0.002380952380952381 0  0.45375 0.002380952380952381 0  0.4583333333333333 0.002380952380952381 0  0.4629166666666666 0.002380952380952381 0  0.4675 0.002380952380952381 0  0.4720833333333334 0.002380952380952381 0  0.4766666666666667 0.002380952380952381 0  0.4812500000000001 0.002380952380952381 0  0.4858333333333333 0.002380952380952381 0  0.4904166666666667 0.002380952380952381 0  0.495 0.002380952380952381 0  0.4995833333333334 0.002380952380952381 0  0.5041666666666667 0.002380952380952381 0  0.50875 0.002380952380952381 0  0.5133333333333334 0.002380952380952381 0  0.5179166666666667 0.002380952380952381 0  0.5225 0.002380952380952381 0  0.5270833333333333 0.002380952380952381 0  0.5316666666666667 0.002380952380952381 0  0.53625 0.002380952380952381 0  0.5408333333333333 0.002380952380952381 0  0.5454166666666667 0.002380952380952381 0  0.55 0.002380952380952381 0  0.5545833333333333 0.002380952380952381 0  0.5591666666666667 0.002380952380952381 0  0.5637500000000001 0.002380952380952381 0  0.5683333333333334 0.002380952380952381 0  0.5729166666666666 0.002380952380952381 0  0.5775 0.002380952380952381 0  0.5820833333333334 0.002380952380952381 0  0.5866666666666667 0.002380952380952381 0  0.5912499999999999 0.002380952380952381 0  0.5958333333333334 0.002380952380952381 0  0.6004166666666667 0.002380952380952381 0  0.605 0.002380952380952381 0  0.6095833333333334 0.002380952380952381 0  0.6141666666666667 0.002380952380952381 0  0.61875 0.002380952380952381 0  0.6233333333333333 0.002380952380952381 0  0.6279166666666667 0.002380952380952381 0  0.6325000000000001 0.002380952380952381 0  0.6370833333333333 0.002380952380952381 0  0.6416666666666666 0.002380952380952381 0  0.64625 0.002380952380952381 0  0.6508333333333334 0.002380952380952381 0  0.6554166666666666 0.002380952380952381 0  0.6599999999999999 0.002380952380952381 0  0.6645833333333334 0.002380952380952381 0  0.6691666666666667 0.002380952380952381 0  0.67375 0.002380952380952381 0  0.6783333333333333 0.002380952380952381 0  0.6829166666666667 0.002380952380952381 0  0.6875 0.002380952380952381 0  0.6920833333333333 0.002380952380952381 0  0.6966666666666667 0.002380952380952381 0  0.70125 0.002380952380952381 0  0.7058333333333333 0.002380952380952381 0  0.7104166666666667 0.002380952380952381 0  0.7150000000000001 0.002380952380952381 
[...]
<PointData  Scalars="concentration"> 
<DataArray  type="Float64"  Name="concentration"  format="ascii">0.0000000000000000e+00  8.0089558988854420e-02  2.3032644685596115e-01  1.7609981324264420e-01  -2.3244985635134146e-02  -1.3069561986963898e-01  -1.7184670144759015e-01  -1.8858851470270399e-01  -1.7749788206823308e-01  -8.0178735999972398e-02  1.0857357619650386e-02  6.6003825392234863e-03  7.1024858164174852e-03  -1.9113982893614236e-03  6.3906142118073115e-03  -1.0828501559205358e-02  1.5294222483536478e-02  -1.4429833504947700e-02  -9.8268203429742618e-03  2.1434429775572861e-02  -2.5440409145804137e-02  1.4243788243908954e-02  -1.7224043109715079e-02  1.5985186896791650e-02  -3.4173322072580128e-02  4.0046436757967185e-03  -1.3738758130159292e-02  -9.2263490399668007e-03  -3.2829198944928514e-02  -1.0253144393473140e-02  -5.6996945281500247e-02  -3.0224428322233536e-02  -1.1005243533626462e-01  -2.4258560132317553e-01  7.0368958164322382e-01  1.0321972971085651e+00  9.8771121258661154e-01  1.0396875510165118e+00  1.0214977447096598e+00  1.1495570042460039e+00  8.7606651594742202e-01  1.0938571366945640e+00  8.7153530113367372e-01  1.0869688698463758e+00  8.7025931043406479e-01  1.0887260983729918e+00  8.6606333632378074e-01  1.0926967158461276e+00  8.5969521773887336e-01  1.0984007016985049e+00  8.5154978851486474e-01  1.1026951264654785e+00  8.3471223735356714e-01  1.0758504509504585e+00  8.3705870545883998e-01  1.1488872211243328e+00  8.0772526208236717e-01  1.2332007464695909e+00  9.7305301810467482e-01  9.4761432539018053e-01  1.0276433979079447e+00  9.7465271297195988e-01  9.3312428064546604e-01  1.1458098758438600e+00  9.7931408572738954e-01  9.7431894296211430e-01  9.3370038739461469e-01  1.0859382807351474e+00  9.1780694197055424e-01  1.0223528742761536e+00  1.0132827129902422e+00  9.6621556975953793e-01  6.8868842044304279e-01  1.1434984777748205e+00  7.7302414307655032e-01  1.2449281391474685e+00  6.8876262492597073e-01  1.2344575769789208e+00  7.1330630452503374e-01  1.2792963774044046e+00  7.4687341185790190e-01  1.2642566812597611e+00  7.6723034154252967e-01  1.2109990069878556e+00  7.8289205180114863e-01  1.2033991700939879e+00  7.9833827286134318e-01  1.1979293959306534e+00  8.0731458517860988e-01  1.1848899772279098e+00  8.2189813483906116e-01  1.1587993516093427e+00  8.4998792806170831e-01  1.1086288709801075e+00  9.1694007676868283e-01  1.0631994371839499e+00  9.5281430404913559e-01  1.0246859760378442e+00  9.7753815981583814e-01  1.0036055361072056e+00  9.9106419472846607e-01  9.9645186725114587e-01  1.0008493341811517e+00  9.9378477559284606e-01  1.0141150632974552e+00  9.9739327467980066e-01  1.0327358944351781e+00  9.9182897290314931e-01  1.0563727914310261e+00  1.0192961212201410e+00  1.2638258046888105e+00  8.9001178020456051e-01  9.4236669868267253e-01  9.7024047444151074e-01  9.8877932356566733e-01  9.9673864643903398e-01  9.9992561287853843e-01  1.0009775113331587e+00  1.0011498082624266e+00  1.0010054349104192e+00  1.0007826609795556e+00  1.0005728633176427e+00  1.0004037714434730e+00  1.0002774865780182e+00  1.0001873051436092e+00  1.0001247621342266e+00  1.0000822638243516e+00  1.0000538139827782e+00  1.0000349824345871e+00  1.0000226259729406e+00  1.0000145739671289e+00  1.0000093558591214e+00  1.0000059893674840e+00  1.0000038253884114e+00  1.0000024385661626e+00  1.0000015520106817e+00  1.0000009864352783e+00  1.0000006262523728e+00  1.0000003972048352e+00  1.0000002517263336e+00  1.0000001594211130e+00  1.0000001009047181e+00  1.0000000638357125e+00  1.0000000403677642e+00  1.0000000255182886e+00  1.0000000161263880e+00  1.0000000101885140e+00  1.0000000064355994e+00  1.0000000040642985e+00  1.0000000025663274e+00  1.0000000016202377e+00  1.0000000010228076e+00  1.0000000006456020e+00  1.0000000004074709e+00  1.0000000002571559e+00  1.0000000001622797e+00  1.0000000001024032e+00  1.0000000000646139e+00  1.0000000000407694e+00  1.0000000000257223e+00  1.0000000000162268e+00  1.0000000000102363e+00  1.0000000000064551e+00  1.0000000000040696e+00  1.0000000000025642e+00  1.0000000000016089e+00  1.0000000000010296e+00  1.0000000000005587e+00  1.0000000000007401e+00  0.0000000000000000e+00  -1.8724527977650181e-02  -1.0171363211414391e-01  6.5363570744854785e-02  6.2676697496919997e-01  9.0461171933844409e-01  9.6993365203069781e-01  9.2647145354018712e-01  9.4130071449541108e-01  3.0974057100872360e-01  1.3913550541135436e-01  8.3638245562402638e-02  4.7346578336488365e-02  3.4584933581955662e-02  1.3467661802775610e-02  2.1887219519476687e-02  -8.5397545201995675e-03  1.8438966496379734e-02  8.2186262213132400e-03  -2.2920674874310713e-02  2.2393592129351009e-02  -1.9744067714113304e-02  1.0479265181204117e-02  -2.3396225320924332e-02  2.3406187436202507e-02  -2.0139119885692190e-02  -5.3587261740042020e-03  -1.4616417313060749e-02  1.0199723646480516e-03  -3.0152846952398588e-02  3.5232617844789703e-03  -4.0243601262666510e-02  1.1974400739347663e-02  -5.5295203745182875e-03  7.7209187327493087e-02  9.1142807052299254e-03  6.0337205207511319e-02  2.6022258103164598e-02  8.7388010441811895e-02  7.7349135791630386e-02  7.4280893990285202e-01  3.0070260868502396e-01  8.0539121633466026e-01  3.1189865122902966e-01  8.0234580256125820e-01  3.1412491519478614e-01  7.9676726014979538e-01  3.1835826785046456e-01  7.9117160448681723e-01  3.2510498423207002e-01  7.8638611324819541e-01  3.3487167406574631e-01  7.8077722908389535e-01  3.3618005956479852e-01  6.7438096469449393e-01  2.9932912490574376e-01  7.1843836647302373e-01  3.1962313265901315e-01  8.0786369064868968e-01  1.0518487334508162e+00  9.5540880112691473e-01  1.0293925025586081e+00  1.0105919319475412e+00  7.8188044372489118e-01  1.1081612464278765e+00  1.0898729195707275e+00  1.0656805268415104e+00  8.6370378136729931e-01  1.0961174300791532e+00  9.0466514272747167e-01  9.4264049013764406e-01  9.9105662949826379e-01  1.0699734682238939e+00  1.4344740912406651e-01  3.0621230882685935e-01  -1.2316284013845716e-01  3.2677858880846300e-01  -1.6070021273202156e-01  2.3329440554123912e-01  -2.0729921490658421e-01  2.2340394941078684e-01  -2.0060783163587961e-01  2.1919779007224902e-01  -1.5748362406578648e-01  1.8879998595572609e-01  -1.4821439913665085e-01  1.7633574545887862e-01  -1.4916940186263256e-01  1.6680199902287435e-01  -1.4384639493404144e-01  1.5195623494116239e-01  -1.3143076050446276e-01  1.2051751308068213e-01  -1.0958608011926842e-01  5.0179573105043208e-02  -7.5467720914962039e-02  2.1928576854007807e-02  -3.8626609084104417e-02  5.1758706365925193e-04  -2.4090789675856358e-02  -1.5421473363969767e-02  -2.1581560403310485e-02  -2.3400406298357521e-02  -1.5589119289466050e-02  -2.2535605021879956e-02  4.8167289772490518e-03  3.7483203472431833e-03  4.5646961243722799e-02  2.0280949160736098e-02  8.9655517086402722e-02  4.8236638594411820e-03  2.2333696582008666e-01  4.2987905100011642e-01  6.4188084316485172e-01  7.7870943083630206e-01  8.6202543820671329e-01  9.1353327458945244e-01  9.4565204267154968e-01  9.6578078754263019e-01  9.7843189133337660e-01  9.8639697809950078e-01  9.9141710554551399e-01  9.9458323317662944e-01  9.9658090421775591e-01  9.9784166453838485e-01  9.9863747422656945e-01  9.9913984523949395e-01  9.9945699122115517e-01  9.9965720801159108e-01  9.9978360603393213e-01  9.9986340062626433e-01  9.9991377352897159e-01  9.9994557221224389e-01  9.9996564506750762e-01  9.9997831565738027e-01  9.9998631349100686e-01  9.9999136168652758e-01  9.9999454800211818e-01  9.9999655908905749e-01  9.9999782838523610e-01  9.9999862948351370e-01  9.9999913507519256e-01  9.9999945415982994e-01  9.9999965553422243e-01  9.9999978261955669e-01  9.9999986282057840e-01  9.9999991343310168e-01  9.9999994537274672e-01  9.9999996552837844e-01  9.9999997824750697e-01  9.9999998627376152e-01  9.9999999133857553e-01  9.9999999453459332e-01  9.9999999655133520e-01  9.9999999782391846e-01  9.9999999862692401e-01  9.9999999913361581e-01  9.9999999945333595e-01  9.9999999965507114e-01  9.9999999978236220e-01  9.9999999986267951e-01  9.9999999991335597e-01  9.9999999994533084e-01  9.9999999996550337e-01  9.9999999997823119e-01  9.9999999998626132e-01  9.9999999999132005e-01  9.9999999999451883e-01  9.9999999999655187e-01  0.0000000000000000e+00  5.9171415630557625e-04  -1.5859888024793233e-02  1.7259017413266267e-01  5.8466471438416531e-02  6.2592013895393442e-02  5.3078474677751425e-02  7.2257337668592200e-02  2.1899241685728116e-02  -4.0680419971069068e-02  -3.6944381637246053e-02  -2.7704425131531860e-02  -1.4642908877176661e-02  -1.4934803369104232e-02  -2.3304015112028380e-03  -1.4494865366697423e-02  1.1509983799731258e-02  -2.1586119310850835e-02  2.4191644237378144e-04  2.3250812701922835e-02  -2.6928423634821470e-02  2.0969590788933359e-02  -1.5616355152740553e-02  1.5236783360849965e-02  -3.2558839461592874e-02  2.0994842256551113e-02  -3.1371534150545282e-03  2.7577284582828866e-03  -1.2055259873657099e-02  1.8069209337977524e-02  -1.6308517099613527e-02  3.0201757158086852e-02  -1.4410529439767632e-02  3.1036254807130244e-02  -4.5006996362023585e-02  3.2277101199640959e-02  -2.0342447687491813e-02  2.8511655364641897e-02  -1.4635070988357477e-02  3.8927503440221813e-02  -8.0384735096073551e-02  -9.4745031074221307e-03  -7.0729617207352463e-02  -4.6978776824073155e-04  -6.2943930127347766e-02  5.2283742055134986e-03  -5.7053971434529609e-02  8.8593761311809502e-03  -5.0701299858062009e-02  1.2798437561342278e-02  -4.2055651462080866e-02  2.0222310806635075e-02  -2.6912207174429461e-02  4.3641570823231113e-02  7.5382654476731509e-03  2.6681708207447089e-02  -4.5764697679525665e-02  -2.2618992718188659e-02  -5.4917402950326578e-02  -7.3064677026241504e-02  -1.3526484147173227e-02  -4.5247149821102887e-02  -9.9851131727899684e-03  7.4130022147035873e-02  -1.1697703425841698e-01  -4.4241635573741292e-02  -4.5186077179161711e-02  2.9652470415538066e-02  -1.0088703941440094e-01  2.0523317240313362e-02  -2.4232919251363540e-02  -5.6998077074783889e-02  -1.4195766943724666e-01  7.9627301738724107e-02  -2.2074150860651956e-01  1.4967620975281062e-01  -3.4755886950201453e-01  1.6527738649947027e-01  -2.4932658891752077e-01  2.0022458229662127e-01  -2.4998493115906245e-01  2.0128700466259408e-01  -2.3726628895755916e-01  1.7282451236436674e-01  -1.8820533454876121e-01  1.6820294063151861e-01  -1.6842775018461370e-01  1.7749741445602563e-01  -1.5160691812165089e-01  1.7918421661042175e-01  -1.3036083448217331e-01  1.7257937758761546e-01  -9.4882412593528975e-02  1.5127276042887111e-01  -3.0805000286526867e-02  9.7211092412907096e-02  -1.5616494602149330e-02  4.5377223490633001e-02  -2.1339842122081892e-03  2.0821595709705754e-02  6.2864818946185190e-03  8.1866850663799007e-03  4.3434021308389852e-03  -8.0097222943997359e-03  -4.6349374131327862e-03  -3.3157783769762854e-02  -2.7581193053405506e-02  -5.9960306317130001e-02  -2.1978981466758727e-02  -7.3485276026115320e-02  3.1164718815424371e-02  -7.2792637403851390e-02  1.2222768913715443e-01  4.4267285806942902e-01  6.5431435407106797e-01  7.8525512691260668e-01  8.6625911176724202e-01  9.1645753913737382e-01  9.4766953793682907e-01  9.6714291826488064e-01  9.7932988863082548e-01  9.8697651471800152e-01  9.9178436842850992e-01  9.9481235495254661e-01  9.9672187585244432e-01  9.9792730021125797e-01  9.9868886036671711e-01  9.9917030038769461e-01  9.9947480632832575e-01  9.9966747890591168e-01  9.9978942828830697e-01  9.9986663366873996e-01  9.9991552168340858e-01  9.9994648355819615e-01  9.9996609496550248e-01  9.9997851824603223e-01  9.9998638872805701e-01  9.9999137524188075e-01  9.9999453473814726e-01  9.9999653671615718e-01  9.9999780529582105e-01  9.9999860917392114e-01  9.9999911859184643e-01  9.9999944141734143e-01  9.9999964600025737e-01  9.9999977565174147e-01  9.9999985781754497e-01  9.9999990989014576e-01  9.9999994289146132e-01  9.9999996380638967e-01  9.9999997706152710e-01  9.9999998546220403e-01  9.9999999078630397e-01  9.9999999416057206e-01  9.9999999629909841e-01  9.9999999765444414e-01  9.9999999851343446e-01  9.9999999905784109e-01  9.9999999940287698e-01  9.9999999962155328e-01  9.9999999976014553e-01  9.9999999984798227e-01  9.9999999990365029e-01  9.9999999993893174e-01  9.9999999996128963e-01  9.9999999997545919e-01  9.9999999998443445e-01  9.9999999999013467e-01  9.9999999999370048e-01  0.0000000000000000e+00  -4.9024957730524604e-03  3.6112924329738158e-02  -8.7550880733563013e-02  -5.6385191199512267e-03  -9.8847389668740310e-03  -7.2987474563621889e-03  -3.8815995985755233e-02  -4.0773453715767335e-02  -1.1095610002416545e-02  1.0746612731643947e-03  5.9661368210139907e-03  1.7483758573816018e-03  6.7773286761908871e-03  -2.1131355875175285e-03  9.1584531691837577e-03  -1.3537075843361274e-02  2.4545712469853452e-02  -1.9385785252165739e-02  -2.5316836798739546e-02  3.0131034372529224e-02  -2.9393370351789763e-02  1.7614272536937509e-02  -1.1224077033752855e-02  3.2658273723696694e-02  -3.8933369549871567e-02  2.7499899080343157e-03  -3.6289356057729019e-04  1.0456732808348931e-02  -1.7332327670545405e-02  2.0046047096322957e-02  -2.5158506382242214e-02  2.0110263861060816e-02  -3.4240399343194679e-02  4.9902909052627981e-02  -3.7507278700412372e-02  3.0693187730581255e-02  -2.6654130480370745e-02  1.3249694232330212e-02  -4.3478806186425960e-02  4.4144004320462234e-02  -1.6165067101928988e-02  3.5363105408046297e-02  -2.2665341153314141e-02  3.0392958784016655e-02  -2.6408311450976451e-02  2.6625676793795138e-02  -2.8685560297514297e-02  2.2481733328399277e-02  -3.1011980600676795e-02  1.6966048178745696e-02  -3.4875118081432260e-02  8.7797689830075524e-03  -4.4300462838651078e-02  -3.6879888522228952e-03  3.5888738132583552e-02  1.2636398241020966e-01  1.5215474542475613e-01  1.5052182845404299e-01  1.1174100218217999e-01  4.0738355002774868e-02  6.3176369237046753e-02  8.1492527952385721e-03  -6.1029319137276931e-02  1.3024358838837022e-01  -1.0945061235882387e-02  -1.7399730978547096e-02  -9.0791508953299044e-02  4.3685950292119899e-02  -9.8040275269990595e-02  -2.7383740196701107e-02  4.2803488100605774e-03  4.6949856440727800e-02  -1.5247434128041543e-01  2.2702359473774650e-01  -1.1486550802035567e-01  3.8340621499375971e-01  -2.3826229549815142e-01  2.0239446696028687e-01  -2.5139860436792760e-01  2.2049773161516872e-01  -3.2309520083381632e-01  1.2488604478613854e-01  -3.7158235017634389e-01  1.0002130182973830e-02  -3.4051077286229736e-01  5.2962161438785467e-02  -3.0087240277722160e-01  7.7519145132765213e-02  -2.6748524246105743e-01  9.0332081066396563e-02  -2.2765340170440052e-01  9.4188378554578692e-02  -1.6166657025106948e-01  9.2162509766979012e-02  -2.8299634601773298e-02  1.2960724705845653e-01  7.9074249336314337e-02  1.5455577518299196e-01  1.4520885362052691e-01  1.8230528804168752e-01  1.9958906729149559e-01  2.2611109442626784e-01  2.5935434454506734e-01  2.7597190106466840e-01  3.2016965081807786e-01  2.7165004684744398e-01  2.5745001032292886e-01  2.0301008394274236e-01  2.0283169988920252e-01  6.3566056457866310e-02  1.9225370036234585e-01  3.5406214942741304e-01  5.6642520784863259e-01  7.2659705120567375e-01  8.3015468314545748e-01  8.9477347875674118e-01  9.3470003921417866e-01  9.5935517302455009e-01  9.7462179060077536e-01  9.8410952737418522e-01  9.9002687609764861e-01  9.9372887538919330e-01  9.9605082457011951e-01  9.9751015488961281e-01  9.9842880332392758e-01  9.9900781345709411e-01  9.9937310771962651e-01  9.9960374274984498e-01  9.9974944320729753e-01  9.9984152931033898e-01  9.9989975062731951e-01  9.9993657130288627e-01  9.9995986282071125e-01  9.9997459884511375e-01  9.9998392330954144e-01  9.9998982418324844e-01  9.9999355881675556e-01  9.9999592261970460e-01  9.9999741885558968e-01  9.9999836598537106e-01  9.9999896554946099e-01  9.9999934510492816e-01  9.9999958538946954e-01  9.9999973750909987e-01  9.9999983381476587e-01  9.9999989478588502e-01  9.9999993338711235e-01  9.9999995782601792e-01  9.9999997329869128e-01  9.9999998309474458e-01  9.9999998929684497e-01  9.9999999322354538e-01  9.9999999570964127e-01  9.9999999728365430e-01  9.9999999828020703e-01  9.9999999891114977e-01  9.9999999931062045e-01  9.9999999956353425e-01  9.9999999972366060e-01  9.9999999982504029e-01  9.9999999988922661e-01  9.9999999992986399e-01  9.9999999995559075e-01  9.9999999997187905e-01  9.9999999998218758e-01  9.9999999998871802e-01  9.9999999999283018e-01  9.9999999999546030e-01  0.0000000000000000e+00  9.2681324708779132e-03  -3.4171079207608160e-02  4.8362519758191828e-02  -7.6826259905384085e-03  -5.7856063725863468e-03  -1.5372296253614449e-02  1.2743400600794602e-03  1.5228820771655004e-02  8.7576369428441908e-03  4.2120024461032388e-03  -1.1430937863600235e-03  1.6117765335748881e-03  -3.1041644443309631e-03  5.3113785463241043e-03  -1.9264351132101789e-03  1.7024023608260656e-02  -2.3678192904052264e-02  5.0956719993724656e-02  2.3050926122212882e-02  -3.6776493134083092e-02  4.0239804110250098e-02  -2.4001134612957938e-02  5.9480167339126741e-03  -2.6587772205025652e-02  6.7260266429548632e-02  -7.3543593467408483e-03  -5.5835158850628414e-03  -8.4902563275758638e-03  1.5867864415453136e-02  -2.5300846955729584e-02  1.8326422357032704e-02  -2.9206106367459940e-02  3.0571116028431076e-02  -5.9513509641604068e-02  4.4897290210055257e-02  -4.5016742351460831e-02  2.6207646756382954e-02  -1.8992253741250131e-02  3.2254088445383571e-02  -3.3814877005917884e-02  1.4719956611126839e-02  -3.0385723716510625e-02  1.5268073746750849e-02  -3.1425004913006087e-02  1.2850491994966944e-02  -3.4915681524612233e-02  6.7567777490113714e-03  -4.1990165272102163e-02  -5.0285906256351508e-03  -5.6190608609372333e-02  -2.7664105503545072e-02  -8.6098673126953421e-02  -7.5403391480939552e-02  -1.7831898119311698e-01  -1.6129218417261193e-01  -1.3084472183815643e-01  -1.3485155587293191e-01  -2.4043199521953974e-02  -6.4633713002509058e-02  -4.0340887659910563e-02  -9.5318044695587564e-02  -4.8676724212708723e-02  -5.7706634148588114e-02  -1.9124332920343330e-02  9.8068840552087005e-02  2.5780067544251741e-02  6.9871661352889258e-01  7.7270762969514784e-01  1.3083195632093694e+00  7.9380943151344907e-01  1.0271426833264974e+00  5.5557050574869060e-01  1.0644411048802676e+00  1.4126860534411831e-01  7.9963520039318658e-01  -4.8409706586032011e-02  9.1788515799128012e-01  -1.5789959970403228e-01  1.0889757473962001e+00  5.7689825233968846e-03  8.7805876537124605e-01  -7.2585350150707372e-03  8.4503035742658872e-01  -1.4151287526921882e-01  1.0698640694351165e+00  -1.2212837822276429e-01  1.0670394071873737e+00  -1.2015707286182802e-01  1.0571388091769571e+00  -1.1120717999560037e-01  1.0423880299095634e+00  -8.9964158526893406e-02  1.0118797982311820e+00  -5.3540984782167962e-02  9.4222659652511187e-01  4.2763408333400971e-01  1.0671663120301007e+00  8.1935217055914256e-01  1.0686351054866317e+00  9.4295604936628319e-01  1.0102812205081122e+00  9.5622526388760398e-01  9.6691039332762674e-01  9.6518692993220823e-01  9.5674290398868045e-01  1.1459201638204974e+00  1.0995553704572432e+00  1.1620219480039122e+00  1.0232805012529780e+00  6.2948776563768105e-01  5.2856572076936781e-01  6.3026639686516039e-01  7.4750823680860423e-01  8.4127288539664768e-01  9.0261612099851940e-01  9.4056049384624696e-01  9.6363973663941027e-01  9.7764952711382591e-01  9.8618812492873154e-01  9.9142309777476456e-01  9.9465195458657796e-01  9.9665412417051336e-01  9.9790118346745982e-01  9.9868071198074915e-01  9.9916937365906933e-01  9.9947637971454184e-01  9.9966959168434533e-01  9.9979135109070616e-01  9.9986816208051177e-01  9.9991665711478006e-01  9.9994729423510298e-01  9.9996665919566030e-01  9.9997890417011170e-01  9.9998664943867832e-01  9.9999154976369886e-01  9.9999465076171545e-01  9.9999661344051161e-01  9.9999785582085832e-01  9.9999864233532421e-01  9.9999914029823900e-01  9.9999945559424208e-01  9.9999965524248124e-01  9.9999978166763670e-01  9.9999