<?xml version="1.0"?>
<VTKFile type="UnstructuredGrid"  version="0.1"  >
<UnstructuredGrid>
<Piece  NumberOfPoints="21400" NumberOfCells="42336">
<Points>
<DataArray  type="Float64"  NumberOfComponents="3"  format="ascii">0 0 0  0.004583333333333333 0 0  0.009166666666666667 0 0  0.01375 0 0  0.01833333333333333 0 0  0.02291666666666667 0 0  0.0275 0 0  0.03208333333333334 0 0  0.03666666666666667 0 0  0.04125 0 0  0.04583333333333334 0 0  0.05041666666666667 0 0  0.055 0 0  0.05958333333333334 0 0  0.06416666666666668 0 0  0.06875000000000001 0 0  0.07333333333333333 0 0  0.07791666666666666 0 0  0.08249999999999999 0 0  0.08708333333333333 0 0  0.09166666666666667 0 0  0.09625000000000002 0 0  0.1008333333333333 0 0  0.1054166666666667 0 0  0.11 0 0  0.1145833333333333 0 0  0.1191666666666667 0 0  0.12375 0 0  0.1283333333333334 0 0  0.1329166666666667 0 0  0.1375 0 0  0.1420833333333333 0 0  0.1466666666666667 0 0  0.15125 0 0  0.1558333333333333 0 0  0.1604166666666667 0 0  0.165 0 0  0.1695833333333333 0 0  0.1741666666666667 0 0  0.17875 0 0  0.1833333333333333 0 0  0.1879166666666667 0 0  0.1925 0 0  0.1970833333333333 0 0  0.2016666666666667 0 0  0.20625 0 0  0.2108333333333333 0 0  0.2154166666666666 0 0  0.22 0 0  0.2245833333333334 0 0  0.2291666666666667 0 0  0.23375 0 0  0.2383333333333333 0 0  0.2429166666666667 0 0  0.2475 0 0  0.2520833333333333 0 0  0.2566666666666667 0 0  0.26125 0 0  0.2658333333333334 0 0  0.2704166666666666 0 0  0.275 0 0  0.2795833333333334 0 0  0.2841666666666667 0 0  0.28875 0 0  0.2933333333333333 0 0  0.2979166666666667 0 0  0.3025 0 0  0.3070833333333334 0 0  0.3116666666666666 0 0  0.31625 0 0  0.3208333333333333 0 0  0.3254166666666667 0 0  0.33 0 0  0.3345833333333333 0 0  0.3391666666666667 0 0  0.34375 0 0  0.3483333333333333 0 0  0.3529166666666667 0 0  0.3575 0 0  0.3620833333333333 0 0  0.3666666666666667 0 0  0.37125 0 0  0.3758333333333334 0 0  0.3804166666666667 0 0  0.3850000000000001 0 0  0.3895833333333333 0 0  0.3941666666666667 0 0  0.39875 0 0  0.4033333333333334 0 0  0.4079166666666666 0 0  0.4125 0 0  0.4170833333333334 0 0  0.4216666666666667 0 0  0.42625 0 0  0.4308333333333333 0 0  0.4354166666666667 0 0  0.44 0 0  0.4445833333333333 0 0  0.4491666666666667 0 0  0.45375 0 0  0.4583333333333333 0 0  0.4629166666666666 0 0  0.4675 0 0  0.4720833333333334 0 0  0.4766666666666667 0 0  0.4812500000000001 0 0  0.4858333333333333 0 0  0.4904166666666667 0 0  0.495 0 0  0.4995833333333334 0 0  0.5041666666666667 0 0  0.50875 0 0  0.5133333333333334 0 0  0.5179166666666667 0 0  0.5225 0 0  0.5270833333333333 0 0  0.5316666666666667 0 0  0.53625 0 0  0.5408333333333333 0 0  0.5454166666666667 0 0  0.55 0 0  0.5545833333333333 0 0  0.5591666666666667 0 0  0.5637500000000001 0 0  0.5683333333333334 0 0  0.5729166666666666 0 0  0.5775 0 0  0.5820833333333334 0 0  0.5866666666666667 0 0  0.5912499999999999 0 0  0.5958333333333334 0 0  0.6004166666666667 0 0  0.605 0 0  0.6095833333333334 0 0  0.6141666666666667 0 0  0.61875 0 0  0.6233333333333333 0 0  0.6279166666666667 0 0  0.6325000000000001 0 0  0.6370833333333333 0 0  0.6416666666666666 0 0  0.64625 0 0  0.6508333333333334 0 0  0.6554166666666666 0 0  0.6599999999999999 0 0  0.6645833333333334 0 0  0.6691666666666667 0 0  0.67375 0 0  0.6783333333333333 0 0  0.6829166666666667 0 0  0.6875 0 0  0.6920833333333333 0 0  0.6966666666666667 0 0  0.70125 0 0  0.7058333333333333 0 0  0.7104166666666667 0 0  0.7150000000000001 0 0  0.7195833333333334 0 0  0.7241666666666666 0 0  0.72875 0 0  0.7333333333333334 0 0  0.7379166666666667 0 0  0.7425 0 0  0.7470833333333333 0 0  0.7516666666666667 0 0  0.75625 0 0  0.7608333333333334 0 0  0.7654166666666666 0 0  0.7700000000000001 0 0  0 0.002380952380952381 0  0.004583333333333333 0.002380952380952381 0  0.009166666666666667 0.002380952380952381 0  0.01375 0.002380952380952381 0  0.01833333333333333 0.002380952380952381 0  0.02291666666666667 0.002380952380952381 0  0.0275 0.002380952380952381 0  0.03208333333333334 0.002380952380952381 0  0.03666666666666667 0.002380952380952381 0  0.04125 0.002380952380952381 0  0.04583333333333334 0.002380952380952381 0  0.05041666666666667 0.002380952380952381 0  0.055 0.002380952380952381 0  0.05958333333333334 0.002380952380952381 0  0.06416666666666668 0.002380952380952381 0  0.06875000000000001 0.002380952380952381 0  0.07333333333333333 0.002380952380952381 0  0.07791666666666666 0.002380952380952381 0  0.08249999999999999 0.002380952380952381 0  0.08708333333333333 0.002380952380952381 0  0.09166666666666667 0.002380952380952381 0  0.09625000000000002 0.002380952380952381 0  0.1008333333333333 0.002380952380952381 0  0.1054166666666667 0.002380952380952381 0  0.11 0.002380952380952381 0  0.1145833333333333 0.002380952380952381 0  0.1191666666666667 0.002380952380952381 0  0.12375 0.002380952380952381 0  0.1283333333333334 0.002380952380952381 0  0.1329166666666667 0.002380952380952381 0  0.1375 0.002380952380952381 0  0.1420833333333333 0.002380952380952381 0  0.1466666666666667 0.002380952380952381 0  0.15125 0.002380952380952381 0  0.1558333333333333 0.002380952380952381 0  0.1604166666666667 0.002380952380952381 0  0.165 0.002380952380952381 0  0.1695833333333333 0.002380952380952381 0  0.1741666666666667 0.002380952380952381 0  0.17875 0.002380952380952381 0  0.1833333333333333 0.002380952380952381 0  0.1879166666666667 0.002380952380952381 0  0.1925 0.002380952380952381 0  0.1970833333333333 0.002380952380952381 0  0.2016666666666667 0.002380952380952381 0  0.20625 0.002380952380952381 0  0.2108333333333333 0.002380952380952381 0  0.2154166666666666 0.002380952380952381 0  0.22 0.002380952380952381 0  0.2245833333333334 0.002380952380952381 0  0.2291666666666667 0.002380952380952381 0  0.23375 0.002380952380952381 0  0.2383333333333333 0.002380952380952381 0  0.2429166666666667 0.002380952380952381 0  0.2475 0.002380952380952381 0  0.2520833333333333 0.002380952380952381 0  0.2566666666666667 0.002380952380952381 0  0.26125 0.002380952380952381 0  0.2658333333333334 0.002380952380952381 0  0.2704166666666666 0.002380952380952381 0  0.275 0.002380952380952381 0  0.2795833333333334 0.002380952380952381 0  0.2841666666666667 0.002380952380952381 0  0.28875 0.002380952380952381 0  0.2933333333333333 0.002380952380952381 0  0.2979166666666667 0.002380952380952381 0  0.3025 0.002380952380952381 0  0.3070833333333334 0.002380952380952381 0  0.3116666666666666 0.002380952380952381 0  0.31625 0.002380952380952381 0  0.3208333333333333 0.002380952380952381 0  0.3254166666666667 0.002380952380952381 0  0.33 0.002380952380952381 0  0.3345833333333333 0.002380952380952381 0  0.3391666666666667 0.002380952380952381 0  0.34375 0.002380952380952381 0  0.3483333333333333 0.002380952380952381 0  0.3529166666666667 0.002380952380952381 0  0.3575 0.002380952380952381 0  0.3620833333333333 0.002380952380952381 0  0.3666666666666667 0.002380952380952381 0  0.37125 0.002380952380952381 0  0.3758333333333334 0.002380952380952381 0  0.3804166666666667 0.002380952380952381 0  0.3850000000000001 0.002380952380952381 0  0.3895833333333333 0.002380952380952381 0  0.3941666666666667 0.002380952380952381 0  0.39875 0.002380952380952381 0  0.4033333333333334 0.002380952380952381 0  0.4079166666666666 0.002380952380952381 0  0.4125 0.002380952380952381 0  0.4170833333333334 0.002380952380952381 0  0.4216666666666667 0.002380952380952381 0  0.42625 0.002380952380952381 0  0.4308333333333333 0.002380952380952381 0  0.4354166666666667 0.002380952380952381 0  0.44 0.002380952380952381 0  0.4445833333333333 0.002380952380952381 0  0.4491666666666667 0.002380952380952381 0  0.45375 0.002380952380952381 0  0.4583333333333333 0.002380952380952381 0  0.4629166666666666 0.002380952380952381 0  0.4675 0.002380952380952381 0  0.4720833333333334 0.002380952380952381 0  0.4766666666666667 0.002380952380952381 0  0.4812500000000001 0.002380952380952381 0  0.4858333333333333 0.002380952380952381 0  0.4904166666666667 0.002380952380952381 0  0.495 0.002380952380952381 0  0.4995833333333334 0.002380952380952381 0  0.5041666666666667 0.002380952380952381 0  0.50875 0.002380952380952381 0  0.5133333333333334 0.002380952380952381 0  0.5179166666666667 0.002380952380952381 0  0.5225 0.002380952380952381 0  0.5270833333333333 0.002380952380952381 0  0.5316666666666667 0.002380952380952381 0  0.53625 0.002380952380952381 0  0.5408333333333333 0.002380952380952381 0  0.5454166666666667 0.002380952380952381 0  0.55 0.002380952380952381 0  0.5545833333333333 0.002380952380952381 0  0.5591666666666667 0.002380952380952381 0  0.5637500000000001 0.002380952380952381 0  0.5683333333333334 0.002380952380952381 0  0.5729166666666666 0.002380952380952381 0  0.5775 0.002380952380952381 0  0.5820833333333334 0.002380952380952381 0  0.5866666666666667 0.002380952380952381 0  0.5912499999999999 0.002380952380952381 0  0.5958333333333334 0.002380952380952381 0  0.6004166666666667 0.002380952380952381 0  0.605 0.002380952380952381 0  0.6095833333333334 0.002380952380952381 0  0.6141666666666667 0.002380952380952381 0  0.61875 0.002380952380952381 0  0.6233333333333333 0.002380952380952381 0  0.6279166666666667 0.002380952380952381 0  0.6325000000000001 0.002380952380952381 0  0.6370833333333333 0.002380952380952381 0  0.6416666666666666 0.002380952380952381 0  0.64625 0.002380952380952381 0  0.6508333333333334 0.002380952380952381 0  0.6554166666666666 0.002380952380952381 0  0.6599999999999999 0.002380952380952381 0  0.6645833333333334 0.002380952380952381 0  0.6691666666666667 0.002380952380952381 0  0.67375 0.002380952380952381 0  0.6783333333333333 0.002380952380952381 0  0.6829166666666667 0.002380952380952381 0  0.6875 0.002380952380952381 0  0.6920833333333333 0.002380952380952381 0  0.6966666666666667 0.002380952380952381 0  0.70125 0.002380952380952381 0  0.7058333333333333 0.002380952380952381 0  0.7104166666666667 0.002380952380952381 0  0.7150000000000001 0.002380952380952381 
[...]
<PointData  Scalars="concentration"> 
<DataArray  type="Float64"  Name="concentration"  format="ascii">0.0000000000000000e+00  8.0096242586182115e-02  2.3034545846884014e-01  1.7610352007257157e-01  -2.3238675856405430e-02  -1.3067052765886031e-01  -1.7180257357855658e-01  -1.8850703211048175e-01  -1.7735181014093079e-01  -7.9892233403378546e-02  1.1119621033556128e-02  6.9568191759262991e-03  7.4970616790570868e-03  -1.3478355652558885e-03  7.0254721667554381e-03  -9.9085887172047898e-03  1.6339374819570551e-02  -1.2985568126540347e-02  -8.0711959947193275e-03  2.3870312114003683e-02  -2.2694328870475171e-02  1.8354971914384975e-02  -1.2680355338370574e-02  2.2505490209141152e-02  -2.6721077581382251e-02  1.5217664615161308e-02  -9.0136538837500457e-04  8.9272940691132036e-03  -1.0439043369859973e-02  2.2084280167327674e-02  -1.6380144972692502e-02  3.2073630348034683e-02  -2.3051859817815198e-02  4.6684001889859883e-02  -1.9955670900972312e-02  4.7693147302130243e-02  6.0282345542322646e-03  6.6909032996913365e-02  2.5128752863383504e-02  6.6088561114945210e-01  8.8326192831840622e-01  1.0961290819330507e+00  8.7650731859896058e-01  1.0802181578369152e+00  8.8279895196029134e-01  1.0770671721927698e+00  8.8598837852851198e-01  1.0754480616374058e+00  8.8819767072525713e-01  1.0752626528456677e+00  8.9051369981422923e-01  1.0760474357277514e+00  8.9237491807902636e-01  1.0457734481900907e+00  8.8918018190782100e-01  1.0880250844771862e+00  8.7609149613150394e-01  1.1095271711496180e+00  1.0263395427915218e+00  9.7669780604290179e-01  1.0120257566286677e+00  9.8465057014282842e-01  1.0043201219229188e+00  1.0135587547271845e+00  9.9697204915711346e-01  9.6027274290979714e-01  1.0205225071056774e+00  9.7515853279872744e-01  1.0652039216887845e+00  9.6905039439015839e-01  9.9131678767972486e-01  9.1620759548569630e-01  8.6469412694061065e-01  9.0660901880941569e-01  1.0474750852785883e+00  9.7164507654167942e-01  9.5472048739696136e-01  1.0400044715511947e+00  8.8695080774749391e-01  1.1779208501888465e+00  7.5576361097287847e-01  1.1870268155626271e+00  7.7418304642710012e-01  1.2662891686468571e+00  7.0530528012340576e-01  1.3313359867009884e+00  6.5733693826656081e-01  1.3320142182846819e+00  6.7347003343411105e-01  1.3249453713474528e+00  6.8724593735917516e-01  1.3154249295221521e+00  7.0219311043080346e-01  1.3032665037431479e+00  7.2240961030288220e-01  1.2849882119739651e+00  7.5372440698542298e-01  1.2247283580324893e+00  7.7057815386869499e-01  1.2147053520553790e+00  7.8609401888141572e-01  1.2127959065863594e+00  7.9012340263124081e-01  1.2099344485548857e+00  7.9252500665622105e-01  1.2078162608604617e+00  7.9404017015928696e-01  1.2063272289888838e+00  7.9500728457294478e-01  1.2053093128867711e+00  7.9563732328477199e-01  1.2046238965677714e+00  7.9606559927280074e-01  1.2041603944773083e+00  7.9638583251063877e-01  1.2038294323749803e+00  7.9667568617038564e-01  1.2035469888681583e+00  7.9702122513572615e-01  1.2032074071325742e+00  7.9754967126938381e-01  1.2026339359336642e+00  7.9848491552353207e-01  1.2014795738965076e+00  8.0025168509757638e-01  1.1990176523033269e+00  8.0367784129576003e-01  1.1936874628938892e+00  8.1039370914236664e-01  1.1821091653142695e+00  8.2368455922598827e-01  1.1572168280336050e+00  8.5095015621728110e-01  1.1080240779603123e+00  9.1691427286764182e-01  1.0626977733889971e+00  9.5294696057938511e-01  1.0244778415906508e+00  9.7747654095131686e-01  1.0035132898819779e+00  9.9099626136730523e-01  9.9637799960101225e-01  1.0007515959878144e+00  9.9371866062414371e-01  1.0140083743180519e+00  9.9740075123551908e-01  1.0327150620981884e+00  9.9178016356499388e-01  1.0563653686991461e+00  1.0192822785609168e+00  1.2637928211653533e+00  8.9005977370376355e-01  9.4236910643249017e-01  9.7024758311303794e-01  9.8878555397680534e-01  9.9674288984873127e-01  9.9992808187760762e-01  1.0009787347382633e+00  1.0011502244101065e+00  1.0010053528039562e+00  1.0007822567307914e+00  1.0005722400327732e+00  1.0004029839111872e+00  1.0002765001438567e+00  1.0001862783209199e+00  1.0001230268392292e+00  1.0000824243624384e+00  1.0000445919684247e+00  1.0000670599559767e+00  0.0000000000000000e+00  -1.8718471320092630e-02  -1.0170792905833094e-01  6.5390220766707294e-02  6.2680351942139534e-01  9.0464441408913110e-01  9.6998965828583339e-01  9.2654687027296878e-01  9.4138560897359380e-01  3.0983977258437284e-01  1.3932593762025425e-01  8.3861426139913153e-02  4.7690445307224140e-02  3.4964055024988325e-02  1.4033485869230014e-02  2.2501275303715089e-02  -7.6305599174234127e-03  1.9475453807420655e-02  9.6148855723199398e-03  -2.1336015840937944e-02  2.4759199073047317e-02  -1.7312257765046406e-02  1.4269364961589870e-02  -1.9309038922854717e-02  2.9418014067858777e-02  -1.4120528471737082e-02  3.8542419228076098e-03  -4.4778384735805607e-03  1.4988902446370666e-02  -1.5494084793158452e-02  2.4050835763021961e-02  -2.1265841913809987e-02  3.5531458696900220e-02  -2.9373491547246888e-02  4.2342832927381925e-02  -1.9143257605878972e-02  3.3304374118964232e-02  -1.1619436012725517e-02  5.3710037050534280e-02  -2.8609346077983239e-02  7.2951416488997578e-01  2.9989873607118744e-01  8.1585073123242524e-01  3.1054065946560189e-01  8.1089508128375232e-01  3.0918818909559426e-01  8.0607923487375388e-01  3.1083279002691466e-01  8.0343261692419299e-01  3.1519846291858411e-01  8.0517965105716294e-01  3.2521035433995066e-01  8.1576654721066733e-01  3.4728159892393290e-01  7.4422925928273154e-01  3.1068637214571454e-01  7.6577967681845494e-01  3.3278959042342138e-01  8.1510855927058001e-01  1.0622213793158284e+00  9.8987164968969110e-01  1.0313867147689404e+00  9.8151448154816112e-01  9.8939496547448469e-01  1.0341584663642778e+00  1.0392066275530596e+00  9.0781215096294499e-01  9.7567449583960209e-01  8.8246797018424239e-01  1.0798869211465121e+00  9.9865736475766187e-01  1.0005843045836254e+00  8.1419905524619185e-01  2.9974275415682960e-01  2.4719793689372910e-02  1.1065868836368414e-01  9.9883823361861329e-02  1.4026075947435324e-04  7.6549700719731786e-02  -1.6644949270156767e-01  1.8003195653994919e-01  -1.8736852737738030e-01  1.3319782396484353e-01  -2.3394973152571108e-01  1.9685446100997256e-01  -2.6663901189876971e-01  2.4924269118416736e-01  -2.4892890742016791e-01  2.4519606449615408e-01  -2.3490613013986558e-01  2.4419185149661599e-01  -2.2543439545079447e-01  2.4181773023137160e-01  -2.1661874915330531e-01  2.3766864017677564e-01  -1.9972782382274251e-01  2.3158535379126280e-01  -1.5605202159167736e-01  1.9965287789745453e-01  -1.5040298024720961e-01  1.8439836906218901e-01  -1.5829356910268574e-01  1.7692898116276953e-01  -1.6237602256397793e-01  1.7280177979125125e-01  -1.6443984031245587e-01  1.7050001970795978e-01  -1.6549020835451875e-01  1.6919387649944587e-01  -1.6602591638602279e-01  1.6844613012223669e-01  -1.6627948903910469e-01  1.6802958265447407e-01  -1.6634949646567893e-01  1.6782473106328741e-01  -1.6626269043278669e-01  1.6776454009020375e-01  -1.6599627399849318e-01  1.6780007377542422e-01  -1.6547582192196841e-01  1.6786672607262973e-01  -1.6455264080360776e-01  1.6782816722519148e-01  -1.6295528194246453e-01  1.6735768491757733e-01  -1.6020156588506693e-01  1.6566940383866707e-01  -1.5544992944051153e-01  1.6089667054171081e-01  -1.4727201493802641e-01  1.4863824993125024e-01  -1.3338068366652570e-01  1.1873673512890856e-01  -1.1065210935498600e-01  4.9702201549550899e-02  -7.5825382825307638e-02  2.1468863195506210e-02  -3.8789216193576927e-02  3.8538207595714235e-04  -2.4173730717414771e-02  -1.5473332619804721e-02  -2.1609895246087654e-02  -2.3411622396054179e-02  -1.5637200614631711e-02  -2.2585104702541041e-02  4.6774992611220033e-03  3.6425716818301967e-03  4.5571228203775675e-02  2.0175033446072476e-02  8.9574044543899140e-02  4.7596300578439448e-03  2.2329024978888601e-01  4.2993399003454263e-01  6.4194562846744019e-01  7.7876990375973931e-01  8.6207779753274372e-01  9.1357675401677640e-01  9.4568720463363265e-01  9.6580872837043075e-01  9.7845380584553776e-01  9.8641399462802004e-01  9.9143018516022485e-01  9.9459316220680438e-01  9.9658834215218217e-01  9.9784699685583533e-01  9.9864135618567818e-01  9.9914169094263006e-01  9.9945832316256844e-01  9.9965884563781870e-01  0.0000000000000000e+00  5.9881055154835351e-04  -1.5844458846784287e-02  1.7261824687214747e-01  5.8496179301881911e-02  6.2638319684712201e-02  5.3131664711067769e-02  7.2329697084726766e-02  2.1984088538162125e-02  -4.0531997791103849e-02  -3.6815687828192376e-02  -2.7520063944777264e-02  -1.4471578779523500e-02  -1.4661774381079856e-02  -2.0729335314262015e-03  -1.4071816598164727e-02  1.1896648085677834e-02  -2.0980261543188727e-02  8.7299845508937400e-04  2.4173148805301296e-02  -2.6124192619443955e-02  2.2447809962463962e-02  -1.4615212325842879e-02  1.7123140708337828e-02  -3.1183596473452497e-02  2.3834589265496458e-02  -1.7997177779149457e-03  5.3913890758842389e-03  -1.1341228331462460e-02  1.9384764708092788e-02  -2.0678140122642762e-02  2.5913381284584758e-02  -3.0418987413111477e-02  3.7301787682564320e-02  -3.8817308485545224e-02  3.2541442208061828e-02  -2.7241908156268726e-02  1.8960456092645187e-02  -3.6158856587192575e-02  4.6235338566959237e-02  -1.0327833870880571e-01  -3.4041077512200049e-02  -8.4855650018267365e-02  -1.5020407279213043e-02  -7.2995406945439559e-02  -7.4640345465675738e-03  -6.7760265238505063e-02  -6.8203629077705939e-03  -6.4653397011017147e-02  -8.3467206548721532e-03  -6.1516905449301072e-02  -7.2658313948492145e-03  -5.1791154377142642e-02  7.4131730742576256e-03  -6.5447812627319156e-03  3.1023602062973169e-02  -2.8140760464182669e-02  1.1297100037591047e-02  -9.7825366032991534e-03  -3.9356466005285973e-02  5.2177633787353602e-03  -2.4496531680464676e-02  1.5698058697152417e-02  1.0714197484791401e-03  -2.9684375468670705e-02  6.1860612633739325e-03  8.4894960135760145e-02  1.2617953124980374e-02  4.0997070781637314e-02  -8.5311514453516091e-02  -3.0985435057689456e-02  -6.4379258341115034e-02  -1.7025931017557928e-02  -1.1922018067072049e-01  2.5862567218349591e-02  -1.0871947633031083e-01  -8.2790356219838532e-02  1.0878795800654074e-02  -7.8522721021155942e-02  1.4617709462495107e-01  -2.2503008287730228e-01  1.6267474783577671e-01  -1.6518059076006167e-01  2.0565329472670554e-01  -2.4540378071912633e-01  2.2866040225326759e-01  -3.0146819411757320e-01  2.1930807988404336e-01  -2.8512899439531247e-01  2.1779526358401793e-01  -2.7272334587467734e-01  2.1883760074240005e-01  -2.6310875905442871e-01  2.1638890928763019e-01  -2.5603546334174121e-01  2.0347261200999045e-01  -2.4612642687585518e-01  1.7278661514223151e-01  -1.9912625224623542e-01  1.6765916528313027e-01  -1.8117829107337322e-01  1.7845335642077709e-01  -1.7297305228280552e-01  1.8249697283722444e-01  -1.6988654690261754e-01  1.8341680444829866e-01  -1.6907183380355181e-01  1.8315369052754757e-01  -1.6912549651250453e-01  1.8258245943407359e-01  -1.6940861730929324e-01  1.8205787811736898e-01  -1.6964760918736599e-01  1.8170343907146930e-01  -1.6972359200570897e-01  1.8155140318387877e-01  -1.6956350585390073e-01  1.8160455394063518e-01  -1.6907762827929235e-01  1.8185645795730121e-01  -1.6810834245644368e-01  1.8228398704036450e-01  -1.6636199027117679e-01  1.8280745575137083e-01  -1.6328880431537385e-01  1.8319144904836371e-01  -1.5784932212909861e-01  1.8282018279158058e-01  -1.4804178646439764e-01  1.8020138606682962e-01  -1.2992769250588343e-01  1.7187006979069669e-01  -9.5809925550628533e-02  1.4992689233581374e-01  -3.2502441639832055e-02  9.5793855992650181e-02  -1.6688104600020643e-02  4.4223772991913268e-02  -3.0896198930381417e-03  2.0023802988467617e-02  5.6439818390357612e-03  7.6870174439000712e-03  3.9761929511706387e-03  -8.2136488070217537e-03  -4.7347303606447575e-03  -3.3096647540635203e-02  -2.7520348045249970e-02  -5.9898111311238102e-02  -2.1855319576160739e-02  -7.3369660307952139e-02  3.1265990053529098e-02  -7.2716801344907628e-02  1.2231175223118074e-01  4.4277247530215130e-01  6.5440775399278905e-01  7.8533412393385182e-01  8.6632257209177910e-01  9.1650713847193899e-01  9.4770770501470958e-01  9.6717202624635501e-01  9.7935194154565997e-01  9.8699312701382469e-01  9.9179678305497065e-01  9.9482149099709538e-01  9.9672848168920591e-01  9.9793174376537497e-01  9.9869164390863852e-01  9.9917240005724195e-01  9.9947305306285195e-01  0.0000000000000000e+00  -4.8976367404333625e-03  3.6126789076186917e-02  -8.7536377815243760e-02  -5.6124000154669481e-03  -9.8541778458676212e-03  -7.2502279661704281e-03  -3.8760827442431582e-02  -4.0691549688910353e-02  -1.1046210156931198e-02  1.1509273037612489e-03  6.0155402805372746e-03  1.8540368993600182e-03  6.8367505264047886e-03  -1.9679024690874175e-03  9.2245056858773523e-03  -1.3334309826774735e-02  2.4588968902764474e-02  -1.9250698114378982e-02  -2.5293414369890983e-02  3.0433977590538598e-02  -2.9526428356178094e-02  1.8113731661385662e-02  -1.1653941746643559e-02  3.2664107969249324e-02  -4.0310580141658774e-02  2.9189881304212953e-03  -2.0160634518217998e-03  1.0037227159914855e-02  -1.9482739076855708e-02  2.2089674798057110e-02  -2.5236750052192978e-02  3.0858419320022493e-02  -3.8891255535973120e-02  4.4261146963589369e-02  -4.2204790168632954e-02  3.1068544153161761e-02  -2.2373396606492010e-02  2.4547738058923348e-02  -4.5642279939884109e-02  5.9423754483241172e-02  -2.0443581554193740e-03  3.9522042520798592e-02  -1.7068392830267239e-02  2.9804713519805823e-02  -2.4024579007712602e-02  2.2909017969512731e-02  -2.7738496656141021e-02  1.5220150092310718e-02  -3.2289411043197248e-02  4.7305385498730137e-03  -4.3732762707414802e-02  -1.4975715870818728e-02  -7.2566351900883411e-02  -7.7332414919366321e-02  -6.4917388565423506e-02  1.7902876225711569e-02  3.2823182255233410e-02  6.3477057111978957e-02  6.7816251867969718e-02  6.8416720000817029e-03  3.1130433412249144e-02  -2.3437559934561075e-02  -1.2465147548647120e-03  1.8884616860521480e-02  -4.3995272291377285e-02  -1.3243576783607569e-01  -3.1428229377707714e-02  -1.9006250102270087e-02  1.1908433817329761e-01  1.9290777402774552e-02  3.9305603175021686e-02  -4.5829669131054795e-02  8.3119256867650815e-02  2.0468809634857758e-02  1.8465732084181591e-01  6.3478167824252085e-02  -2.3459014845403570e-02  7.8581470212921806e-02  -1.0030923089402662e-01  3.0897309249934596e-01  -1.1088038874009173e-01  2.1797507172088659e-01  -1.8025694666272857e-01  2.9272729236446915e-01  -2.2068807481724895e-01  3.1282252862564908e-01  -2.7976900223084861e-01  2.2776075109141977e-01  -3.4200406334500227e-01  1.6164853063990137e-01  -3.8779847143113827e-01  1.1707838961494420e-01  -4.1589764376825550e-01  8.4824414788311264e-02  -4.3128565597488572e-01  4.6128967652380691e-02  -4.4202337904712219e-01  -4.9374649015473428e-02  -3.9900858299754643e-01  1.1191942981123700e-02  -3.5109917813385305e-01  4.8777049138751485e-02  -3.2037477817281745e-01  7.3055129779926786e-02  -3.0022723483355851e-01  8.9064381444932755e-02  -2.8684885452550246e-01  9.9725866912844907e-02  -2.7791275449416442e-01  1.0685883798758271e-01  -2.7191817397471080e-01  1.1164928054284633e-01  -2.6786140976547468e-01  1.1489030923693476e-01  -2.6505008260457397e-01  1.1711790591392902e-01  -2.6298270181481881e-01  1.1869256458897977e-01  -2.6125530127113838e-01  1.1984686920151452e-01  -2.5946797544039324e-01  1.2070488830695596e-01  -2.5709732373734390e-01  1.2127054249401939e-01  -2.5327262831314112e-01  1.2137468514440405e-01  -2.4632312781400464e-01  1.2056649023287516e-01  -2.3279553180270476e-01  1.1795800758965985e-01  -2.0521934902651992e-01  1.1229890954191474e-01  -1.4683471445109850e-01  1.0456177390221517e-01  -1.7869125930744689e-02  1.3839529856298063e-01  8.6842717474681544e-02  1.6109233631371703e-01  1.5071867844323936e-01  1.8691053963187040e-01  2.0342817581619058e-01  2.2929018190975894e-01  2.6194378252899481e-01  2.7811409365819451e-01  3.2189131073773536e-01  2.7297297619838706e-01  2.5843672121547939e-01  2.0377594371118762e-01  2.0342200859438692e-01  6.4027790723814523e-02  1.9257392282084548e-01  3.5423014359900146e-01  5.6655748580998810e-01  7.2670001579045795e-01  8.3023165713106728e-01  8.9482936714726502e-01  9.3473984960346668e-01  9.5938320585782422e-01  9.7464137948859841e-01  9.8412314413488755e-01  9.9003626529633093e-01  9.9373526256697964e-01  9.9605504578759929e-01  9.9751274491626640e-01  9.9843014768091531e-01  9.9900827291038408e-01  9.9937150832349408e-01  9.9960247791294088e-01  0.0000000000000000e+00  9.2726521862913653e-03  -3.4167970352315474e-02  4.8374840200869830e-02  -7.6702370999236890e-03  -5.7640751339102948e-03  -1.5355163548718373e-02  1.3028607377972745e-03  1.5235563537379862e-02  8.7935286496885010e-03  4.2274440769699950e-03  -1.0870931485844305e-03  1.6274399819248039e-03  -3.0258199744995521e-03  5.3179805439363672e-03  -1.8311736542403043e-03  1.6985095670834980e-02  -2.3530270407876797e-02  5.0948260128296285e-02  2.3072708556693841e-02  -3.7059986150469175e-02  4.0226567803056022e-02  -2.4753105528123369e-02  6.1184210497291234e-03  -2.7054473197342482e-02  6.7656437097920893e-02  -9.0095030358224963e-03  -5.6626187576188829e-03  -1.0318612930947345e-02  1.5813876883106304e-02  -2.8508927705310227e-02  1.9675836450183132e-02  -3.5475945115356088e-02  3.5679904442302096e-02  -5.4813662613507112e-02  5.0813129250250132e-02  -4.4248671842863810e-02  2.4349297529210386e-02  -2.1908646401890483e-02  3.4904980021459579e-02  -4.0964965894707488e-02  8.7078988912364427e-03  -2.8459552387090910e-02  1.3912660268007757e-02  -2.6353915899910825e-02  1.3106371612626762e-02  -2.6544217369942870e-02  8.2955169226076996e-03  -2.8559524479052939e-02  -5.0334980379192662e-04  -3.5124481134180700e-02  -1.3259134411321637e-02  -5.1757475197046168e-02  -3.8044751483451038e-02  -9.2745986843973727e-02  -5.6936697893175230e-02  8.2819875481467600e-03  -1.8771086621561441e-02  1.0356826218556854e-01  7.7309112565386385e-03  2.9850436540339181e-02  -3.3998590526614414e-02  -5.3585868691323577e-04  -6.7936907408809311e-02  -1.1043797179648253e-01  -3.8055975985157683e-02  -3.3353765918742333e-02  -4.7698079569379374e-02  -1.7199434436999413e-04  2.9528368086031744e-02  5.5004547048809041e-02  -2.2264255803867032e-02  5.5536202798270151e-02  -1.1498649154740091e-01  -1.5860321658574153e-01  -9.6019947112771925e-02  2.2027699070849498e-02  4.0073308720485576e-02  -1.0022596270002003e-01  -4.3109624000086381e-02  -1.4013649499380132e-01  5.7034411698781984e-01  2.5845640963641531e-01  8.5484155026788455e-01  1.4531218173755034e-01  1.0501212114831646e+00  3.9911868970339418e-03  9.4646146766356665e-01  -1.1018327958354604e-02  8.8380361437670718e-01  -1.6388453548792224e-02  8.4983248351171425e-01  -2.3603663580909019e-02  8.3306737228469663e-01  -2.7462055742944087e-02  8.2870379962039065e-01  -3.0138528275934037e-02  8.1487567557055862e-01  -1.4355724715589507e-01  1.0767998735054367e+00  -1.2067813165507205e-01  1.0792131744157039e+00  -1.2543558398334551e-01  1.0734298751555165e+00  -1.3097076707711913e-01  1.0680420649153437e+00  -1.3546106746586359e-01  1.0638892998415010e+00  -1.3876368593449001e-01  1.0608960688913291e+00  -1.4107388461461334e-01  1.0588106452260271e+00  -1.4263365253335661e-01  1.0573820793656659e+00  -1.4364383893896729e-01  1.0564038981195429e+00  -1.4424122079799592e-01  1.0557133840619783e+00  -1.4449142196669326e-01  1.0551740155706080e+00  -1.4437429042887520e-01  1.0546469170354755e+00  -1.4374268908359408e-01  1.0539445625236947e+00  -1.4222656142894843e-01  1.0527442788580319e+00  -1.3903176760999067e-01  1.0504025671829202e+00  -1.3255443375711340e-01  1.0454903120647792e+00  -1.1974353341703624e-01  1.0344192784110064e+00  -9.5683143945275578e-02  1.0064193240277013e+00  -5.6910081908877440e-02  9.3799090684249753e-01  4.2407351555824774e-01  1.0639415016547016e+00  8.1780920631066656e-01  1.0675766167651732e+00  9.4242755634187136e-