<?xml version="1.0"?>
<VTKFile type="UnstructuredGrid"  version="0.1"  >
<UnstructuredGrid>
<Piece  NumberOfPoints="21400" NumberOfCells="42336">
<Points>
<DataArray  type="Float64"  NumberOfComponents="3"  format="ascii">0 0 0  0.004583333333333333 0 0  0.009166666666666667 0 0  0.01375 0 0  0.01833333333333333 0 0  0.02291666666666667 0 0  0.0275 0 0  0.03208333333333334 0 0  0.03666666666666667 0 0  0.04125 0 0  0.04583333333333334 0 0  0.05041666666666667 0 0  0.055 0 0  0.05958333333333334 0 0  0.06416666666666668 0 0  0.06875000000000001 0 0  0.07333333333333333 0 0  0.07791666666666666 0 0  0.08249999999999999 0 0  0.08708333333333333 0 0  0.09166666666666667 0 0  0.09625000000000002 0 0  0.1008333333333333 0 0  0.1054166666666667 0 0  0.11 0 0  0.1145833333333333 0 0  0.1191666666666667 0 0  0.12375 0 0  0.1283333333333334 0 0  0.1329166666666667 0 0  0.1375 0 0  0.1420833333333333 0 0  0.1466666666666667 0 0  0.15125 0 0  0.1558333333333333 0 0  0.1604166666666667 0 0  0.165 0 0  0.1695833333333333 0 0  0.1741666666666667 0 0  0.17875 0 0  0.1833333333333333 0 0  0.1879166666666667 0 0  0.1925 0 0  0.1970833333333333 0 0  0.2016666666666667 0 0  0.20625 0 0  0.2108333333333333 0 0  0.2154166666666666 0 0  0.22 0 0  0.2245833333333334 0 0  0.2291666666666667 0 0  0.23375 0 0  0.2383333333333333 0 0  0.2429166666666667 0 0  0.2475 0 0  0.2520833333333333 0 0  0.2566666666666667 0 0  0.26125 0 0  0.2658333333333334 0 0  0.2704166666666666 0 0  0.275 0 0  0.2795833333333334 0 0  0.2841666666666667 0 0  0.28875 0 0  0.2933333333333333 0 0  0.2979166666666667 0 0  0.3025 0 0  0.3070833333333334 0 0  0.3116666666666666 0 0  0.31625 0 0  0.3208333333333333 0 0  0.3254166666666667 0 0  0.33 0 0  0.3345833333333333 0 0  0.3391666666666667 0 0  0.34375 0 0  0.3483333333333333 0 0  0.3529166666666667 0 0  0.3575 0 0  0.3620833333333333 0 0  0.3666666666666667 0 0  0.37125 0 0  0.3758333333333334 0 0  0.3804166666666667 0 0  0.3850000000000001 0 0  0.3895833333333333 0 0  0.3941666666666667 0 0  0.39875 0 0  0.4033333333333334 0 0  0.4079166666666666 0 0  0.4125 0 0  0.4170833333333334 0 0  0.4216666666666667 0 0  0.42625 0 0  0.4308333333333333 0 0  0.4354166666666667 0 0  0.44 0 0  0.4445833333333333 0 0  0.4491666666666667 0 0  0.45375 0 0  0.4583333333333333 0 0  0.4629166666666666 0 0  0.4675 0 0  0.4720833333333334 0 0  0.4766666666666667 0 0  0.4812500000000001 0 0  0.4858333333333333 0 0  0.4904166666666667 0 0  0.495 0 0  0.4995833333333334 0 0  0.5041666666666667 0 0  0.50875 0 0  0.5133333333333334 0 0  0.5179166666666667 0 0  0.5225 0 0  0.5270833333333333 0 0  0.5316666666666667 0 0  0.53625 0 0  0.5408333333333333 0 0  0.5454166666666667 0 0  0.55 0 0  0.5545833333333333 0 0  0.5591666666666667 0 0  0.5637500000000001 0 0  0.5683333333333334 0 0  0.5729166666666666 0 0  0.5775 0 0  0.5820833333333334 0 0  0.5866666666666667 0 0  0.5912499999999999 0 0  0.5958333333333334 0 0  0.6004166666666667 0 0  0.605 0 0  0.6095833333333334 0 0  0.6141666666666667 0 0  0.61875 0 0  0.6233333333333333 0 0  0.6279166666666667 0 0  0.6325000000000001 0 0  0.6370833333333333 0 0  0.6416666666666666 0 0  0.64625 0 0  0.6508333333333334 0 0  0.6554166666666666 0 0  0.6599999999999999 0 0  0.6645833333333334 0 0  0.6691666666666667 0 0  0.67375 0 0  0.6783333333333333 0 0  0.6829166666666667 0 0  0.6875 0 0  0.6920833333333333 0 0  0.6966666666666667 0 0  0.70125 0 0  0.7058333333333333 0 0  0.7104166666666667 0 0  0.7150000000000001 0 0  0.7195833333333334 0 0  0.7241666666666666 0 0  0.72875 0 0  0.7333333333333334 0 0  0.7379166666666667 0 0  0.7425 0 0  0.7470833333333333 0 0  0.7516666666666667 0 0  0.75625 0 0  0.7608333333333334 0 0  0.7654166666666666 0 0  0.7700000000000001 0 0  0 0.002380952380952381 0  0.004583333333333333 0.002380952380952381 0  0.009166666666666667 0.002380952380952381 0  0.01375 0.002380952380952381 0  0.01833333333333333 0.002380952380952381 0  0.02291666666666667 0.002380952380952381 0  0.0275 0.002380952380952381 0  0.03208333333333334 0.002380952380952381 0  0.03666666666666667 0.002380952380952381 0  0.04125 0.002380952380952381 0  0.04583333333333334 0.002380952380952381 0  0.05041666666666667 0.002380952380952381 0  0.055 0.002380952380952381 0  0.05958333333333334 0.002380952380952381 0  0.06416666666666668 0.002380952380952381 0  0.06875000000000001 0.002380952380952381 0  0.07333333333333333 0.002380952380952381 0  0.07791666666666666 0.002380952380952381 0  0.08249999999999999 0.002380952380952381 0  0.08708333333333333 0.002380952380952381 0  0.09166666666666667 0.002380952380952381 0  0.09625000000000002 0.002380952380952381 0  0.1008333333333333 0.002380952380952381 0  0.1054166666666667 0.002380952380952381 0  0.11 0.002380952380952381 0  0.1145833333333333 0.002380952380952381 0  0.1191666666666667 0.002380952380952381 0  0.12375 0.002380952380952381 0  0.1283333333333334 0.002380952380952381 0  0.1329166666666667 0.002380952380952381 0  0.1375 0.002380952380952381 0  0.1420833333333333 0.002380952380952381 0  0.1466666666666667 0.002380952380952381 0  0.15125 0.002380952380952381 0  0.1558333333333333 0.002380952380952381 0  0.1604166666666667 0.002380952380952381 0  0.165 0.002380952380952381 0  0.1695833333333333 0.002380952380952381 0  0.1741666666666667 0.002380952380952381 0  0.17875 0.002380952380952381 0  0.1833333333333333 0.002380952380952381 0  0.1879166666666667 0.002380952380952381 0  0.1925 0.002380952380952381 0  0.1970833333333333 0.002380952380952381 0  0.2016666666666667 0.002380952380952381 0  0.20625 0.002380952380952381 0  0.2108333333333333 0.002380952380952381 0  0.2154166666666666 0.002380952380952381 0  0.22 0.002380952380952381 0  0.2245833333333334 0.002380952380952381 0  0.2291666666666667 0.002380952380952381 0  0.23375 0.002380952380952381 0  0.2383333333333333 0.002380952380952381 0  0.2429166666666667 0.002380952380952381 0  0.2475 0.002380952380952381 0  0.2520833333333333 0.002380952380952381 0  0.2566666666666667 0.002380952380952381 0  0.26125 0.002380952380952381 0  0.2658333333333334 0.002380952380952381 0  0.2704166666666666 0.002380952380952381 0  0.275 0.002380952380952381 0  0.2795833333333334 0.002380952380952381 0  0.2841666666666667 0.002380952380952381 0  0.28875 0.002380952380952381 0  0.2933333333333333 0.002380952380952381 0  0.2979166666666667 0.002380952380952381 0  0.3025 0.002380952380952381 0  0.3070833333333334 0.002380952380952381 0  0.3116666666666666 0.002380952380952381 0  0.31625 0.002380952380952381 0  0.3208333333333333 0.002380952380952381 0  0.3254166666666667 0.002380952380952381 0  0.33 0.002380952380952381 0  0.3345833333333333 0.002380952380952381 0  0.3391666666666667 0.002380952380952381 0  0.34375 0.002380952380952381 0  0.3483333333333333 0.002380952380952381 0  0.3529166666666667 0.002380952380952381 0  0.3575 0.002380952380952381 0  0.3620833333333333 0.002380952380952381 0  0.3666666666666667 0.002380952380952381 0  0.37125 0.002380952380952381 0  0.3758333333333334 0.002380952380952381 0  0.3804166666666667 0.002380952380952381 0  0.3850000000000001 0.002380952380952381 0  0.3895833333333333 0.002380952380952381 0  0.3941666666666667 0.002380952380952381 0  0.39875 0.002380952380952381 0  0.4033333333333334 0.002380952380952381 0  0.4079166666666666 0.002380952380952381 0  0.4125 0.002380952380952381 0  0.4170833333333334 0.002380952380952381 0  0.4216666666666667 0.002380952380952381 0  0.42625 0.002380952380952381 0  0.4308333333333333 0.002380952380952381 0  0.4354166666666667 0.002380952380952381 0  0.44 0.002380952380952381 0  0.4445833333333333 0.002380952380952381 0  0.4491666666666667 0.002380952380952381 0  0.45375 0.002380952380952381 0  0.4583333333333333 0.002380952380952381 0  0.4629166666666666 0.002380952380952381 0  0.4675 0.002380952380952381 0  0.4720833333333334 0.002380952380952381 0  0.4766666666666667 0.002380952380952381 0  0.4812500000000001 0.002380952380952381 0  0.4858333333333333 0.002380952380952381 0  0.4904166666666667 0.002380952380952381 0  0.495 0.002380952380952381 0  0.4995833333333334 0.002380952380952381 0  0.5041666666666667 0.002380952380952381 0  0.50875 0.002380952380952381 0  0.5133333333333334 0.002380952380952381 0  0.5179166666666667 0.002380952380952381 0  0.5225 0.002380952380952381 0  0.5270833333333333 0.002380952380952381 0  0.5316666666666667 0.002380952380952381 0  0.53625 0.002380952380952381 0  0.5408333333333333 0.002380952380952381 0  0.5454166666666667 0.002380952380952381 0  0.55 0.002380952380952381 0  0.5545833333333333 0.002380952380952381 0  0.5591666666666667 0.002380952380952381 0  0.5637500000000001 0.002380952380952381 0  0.5683333333333334 0.002380952380952381 0  0.5729166666666666 0.002380952380952381 0  0.5775 0.002380952380952381 0  0.5820833333333334 0.002380952380952381 0  0.5866666666666667 0.002380952380952381 0  0.5912499999999999 0.002380952380952381 0  0.5958333333333334 0.002380952380952381 0  0.6004166666666667 0.002380952380952381 0  0.605 0.002380952380952381 0  0.6095833333333334 0.002380952380952381 0  0.6141666666666667 0.002380952380952381 0  0.61875 0.002380952380952381 0  0.6233333333333333 0.002380952380952381 0  0.6279166666666667 0.002380952380952381 0  0.6325000000000001 0.002380952380952381 0  0.6370833333333333 0.002380952380952381 0  0.6416666666666666 0.002380952380952381 0  0.64625 0.002380952380952381 0  0.6508333333333334 0.002380952380952381 0  0.6554166666666666 0.002380952380952381 0  0.6599999999999999 0.002380952380952381 0  0.6645833333333334 0.002380952380952381 0  0.6691666666666667 0.002380952380952381 0  0.67375 0.002380952380952381 0  0.6783333333333333 0.002380952380952381 0  0.6829166666666667 0.002380952380952381 0  0.6875 0.002380952380952381 0  0.6920833333333333 0.002380952380952381 0  0.6966666666666667 0.002380952380952381 0  0.70125 0.002380952380952381 0  0.7058333333333333 0.002380952380952381 0  0.7104166666666667 0.002380952380952381 0  0.7150000000000001 0.002380952380952381 
[...]
<PointData  Scalars="concentration"> 
<DataArray  type="Float64"  Name="concentration"  format="ascii">0.0000000000000000e+00  8.0085751282813450e-02  2.3034946115366528e-01  1.7610090981151297e-01  -2.3222956799509285e-02  -1.3067119752257572e-01  -1.7177994330001797e-01  -1.8852295966151730e-01  -1.7735447786042025e-01  -7.9989820827215036e-02  1.1137531359716854e-02  6.8245791189263929e-03  7.5405320422845361e-03  -1.5544600357987797e-03  7.1061864357756495e-03  -1.0243613407391472e-02  1.6467698618577841e-02  -1.3430280777197573e-02  -7.9245303199873569e-03  2.3037054927806028e-02  -2.2214435811016467e-02  1.6689394428410703e-02  -1.1769064378380920e-02  2.0518559794289858e-02  -2.4620630460541252e-02  9.9137486864604163e-03  2.1433704385192824e-03  3.0769009163549824e-03  -5.5657428245104983e-03  9.2500960283816470e-03  3.8297711444956761e-01  1.0209754044406683e+00  9.7876003084780783e-01  1.0452096113242377e+00  9.6839996760550673e-01  1.0401515569498998e+00  9.8635091035139066e-01  1.0428178234582450e+00  1.0248036993135368e+00  1.1514890355882794e+00  8.6534058535730385e-01  1.1042293885527701e+00  8.5444628618989582e-01  1.1005428159154000e+00  8.4663770117619297e-01  1.1071613021302640e+00  8.3567653399954789e-01  1.1173086981011993e+00  8.2372535061912555e-01  1.1299143299451095e+00  8.1426543732737122e-01  1.1392651998144612e+00  8.0009676676278718e-01  1.1005670968353776e+00  8.0709332054899385e-01  1.1614238494406073e+00  8.1188891494979420e-01  1.1979018226145661e+00  9.9251619626037602e-01  9.9654783459339635e-01  9.9783604895712319e-01  1.0540653684852264e+00  8.6355239320590127e-01  1.1672878126152555e+00  8.7705996522959573e-01  1.0181667069699705e+00  9.8891074335487350e-01  1.0290928863845783e+00  9.7479177377952575e-01  1.0149595163528036e+00  9.6736493873913909e-01  9.8951229554339626e-01  7.6370744234506127e-01  1.1091065378510279e+00  8.0571836484272064e-01  1.1212603116190283e+00  7.8222129214080172e-01  1.1572432168688671e+00  8.4536741324097298e-01  1.1113150108189178e+00  9.1039923020213109e-01  1.0637541470212690e+00  9.5083018987614321e-01  1.0247218089267434e+00  9.7703562049719295e-01  1.0036525261242790e+00  9.9102225884530160e-01  9.9659493349016515e-01  1.0010645468896735e+00  9.9400755035217891e-01  1.0144434756723661e+00  9.9750541615633681e-01  1.0328574399162773e+00  9.9203374111703324e-01  1.0564454679512534e+00  1.0193273851696047e+00  1.2639598092536439e+00  8.8990217401308891e-01  9.4240089256426229e-01  9.7025465945772427e-01  9.8878599100320563e-01  9.9674214088131874e-01  9.9992769079322141e-01  1.0009788611359831e+00  1.0011507192344395e+00  1.0010060542159946e+00  1.0007830794123493e+00  1.0005731431044504e+00  1.0004039565264757e+00  1.0002776078372462e+00  1.0001873839399722e+00  1.0001248129927856e+00  1.0000822964712461e+00  1.0000538348473578e+00  1.0000349957225312e+00  1.0000226344122380e+00  1.0000145793154274e+00  1.0000093592428536e+00  1.0000059915055268e+00  1.0000038267380378e+00  1.0000024394174800e+00  1.0000015525473880e+00  1.0000009867735138e+00  1.0000006264654746e+00  1.0000003973390756e+00  1.0000002518108870e+00  1.0000001594743704e+00  1.0000001009382606e+00  1.0000000638568407e+00  1.0000000403810716e+00  1.0000000255266726e+00  1.0000000161316700e+00  1.0000000101918409e+00  1.0000000064376964e+00  1.0000000040656210e+00  1.0000000025671627e+00  1.0000000016207644e+00  1.0000000010231396e+00  1.0000000006458114e+00  1.0000000004076048e+00  1.0000000002572409e+00  1.0000000001623350e+00  1.0000000001024376e+00  1.0000000000646385e+00  1.0000000000407847e+00  1.0000000000257325e+00  1.0000000000162368e+00  1.0000000000102436e+00  1.0000000000064635e+00  1.0000000000040785e+00  1.0000000000025744e+00  1.0000000000016245e+00  1.0000000000010258e+00  1.0000000000006481e+00  1.0000000000004101e+00  1.0000000000002596e+00  1.0000000000001643e+00  1.0000000000001039e+00  1.0000000000000659e+00  1.0000000000000417e+00  1.0000000000000269e+00  1.0000000000000178e+00  1.0000000000000111e+00  1.0000000000000080e+00  1.0000000000000064e+00  1.0000000000000031e+00  1.0000000000000027e+00  1.0000000000000018e+00  1.0000000000000018e+00  0.0000000000000000e+00  -1.8710601523026754e-02  -1.0171455864547685e-01  6.5391840023298869e-02  6.2678447681667082e-01  9.0466458890183199e-01  9.6996302580627458e-01  9.2658258320897924e-01  9.4135614975820925e-01  3.0988417546501618e-01  1.3924323927225055e-01  8.3907841194494806e-02  4.7543457626464232e-02  3.5037015352790343e-02  1.3792000977503398e-02  2.2626154519644000e-02  -8.0151990392306489e-03  1.9600193088925470e-02  9.0782543425142644e-03  -2.1022581786346906e-02  2.3674390971882651e-02  -1.6482453842978459e-02  1.2354695583028288e-02  -1.8553795741074439e-02  2.6041462573524313e-02  -1.0695817970813429e-02  -1.4423460928803982e-03  -1.4483349625721443e-03  6.9244202473173165e-03  -6.6775051184390991e-03  -3.2606966680798599e-02  -4.8185698571120074e-02  1.6672546700636511e-02  -3.1253813914400859e-02  4.4455102043153179e-02  -1.7451018676082428e-02  4.7206868822411777e-02  1.5668315220819740e-02  8.3060737524190548e-02  7.9522730565782476e-02  7.2871854319318496e-01  3.0274318140857071e-01  7.9156117403378667e-01  3.1744013926299081e-01  7.8448718967372166e-01  3.2059478840718364e-01  7.7441319456242830e-01  3.2422556946814229e-01  7.6756414405653273e-01  3.3038722268556031e-01  7.6803891485159093e-01  3.4459289711802665e-01  7.8066826252938704e-01  3.6358296010427982e-01  6.9779217820026440e-01  3.1959045867865049e-01  7.1200874564869909e-01  3.5755114335964139e-01  7.5602829446790121e-01  1.0020234980126472e+00  1.0265482503944541e+00  9.9950070980036632e-01  1.1940326328851465e+00  7.7756827983035914e-01  1.2577530835668320e+00  9.4010685954420981e-01  9.8212364380852013e-01  9.4154327979695562e-01  1.0281048285683680e+00  9.5843603125414800e-01  1.0093035558408818e+00  9.2915123482013151e-01  1.0060191044467710e+00  1.8320984186161487e-01  3.1187003658583218e-01  -3.5299450543798981e-02  2.1955503446595007e-01  -1.0829333710597791e-01  1.3666221243902860e-01  -1.0385443217593385e-01  6.1318674798552159e-02  -7.1872797641008984e-02  2.6000100305053803e-02  -3.6861774120368562e-02  1.9096487806319039e-03  -2.3523063983239934e-02  -1.5126882777846493e-02  -2.1618464965303223e-02  -2.3568335093777586e-02  -1.5762164231138014e-02  -2.2694918299233261e-02  4.8739855886806909e-03  3.8332170887002675e-03  4.5696006344189390e-02  2.0467991998345116e-02  8.9835630761073815e-02  4.9298381808236535e-03  2.2352416435472294e-01  4.2983276761524258e-01  6.4182825190802684e-01  7.7866809017494221e-01  8.6199555584189902e-01  9.1351255410227616e-01  9.4563801460334973e-01  9.6577144430382622e-01  9.7842574249930225e-01  9.8639296805238053e-01  9.9141450851543989e-01  9.9458156035515599e-01  9.9657983127620442e-01  9.9784097866330101e-01  9.9863703694972406e-01  9.9913956704782303e-01  9.9945681453950275e-01  9.9965709595340557e-01  9.9978353504086537e-01  9.9986335568959861e-01  9.9991374510580366e-01  9.9994555424461606e-01  9.9996563371467206e-01  9.9997830848682945e-01  9.9998630896340879e-01  9.9999135882842716e-01  9.9999454619825623e-01  9.9999655795073705e-01  9.9999782766698497e-01  9.9999862903034864e-01  9.9999913478929381e-01  9.9999945397946055e-01  9.9999965542043157e-01  9.9999978254776423e-01  9.9999986277528097e-01  9.9999991340451888e-01  9.9999994535470760e-01  9.9999996551699111e-01  9.9999997824031639e-01  9.9999998626922060e-01  9.9999999133570738e-01  9.9999999453278110e-01  9.9999999655018823e-01  9.9999999782319315e-01  9.9999999862646460e-01  9.9999999913332749e-01  9.9999999945315177e-01  9.9999999965495678e-01  9.9999999978229193e-01  9.9999999986263521e-01  9.9999999991333055e-01  9.9999999994531641e-01  9.9999999996549860e-01  9.9999999997823186e-01  9.9999999998626743e-01  9.9999999999133649e-01  9.9999999999453459e-01  9.9999999999655242e-01  9.9999999999782563e-01  9.9999999999862854e-01  9.9999999999913558e-01  9.9999999999945510e-01  9.9999999999965694e-01  9.9999999999978428e-01  9.9999999999986422e-01  9.9999999999991551e-01  9.9999999999994704e-01  9.9999999999996636e-01  9.9999999999998024e-01  9.9999999999998790e-01  9.9999999999999267e-01  9.9999999999999567e-01  0.0000000000000000e+00  5.8874487837692619e-04  -1.5841953466146461e-02  1.7260313688278783e-01  5.8498288589476706e-02  6.2614326267431727e-02  5.3135819364761944e-02  7.2292155677705125e-02  2.1997404528554150e-02  -4.0601828682945269e-02  -3.6773542726541944e-02  -2.7619155422828515e-02  -1.4389173158415839e-02  -1.4819510966199861e-02  -1.9369752409676383e-03  -1.4334260255375451e-02  1.2117223082335546e-02  -2.1365121908700369e-02  1.0995119258783664e-03  2.3495586387590087e-02  -2.5553973252533467e-02  2.1063801878862649e-02  -1.3354216221946411e-02  1.5210171774918254e-02  -2.9701462910565912e-02  1.8612618644707996e-02  1.7210123990327869e-03  -4.5820037786768210e-04  -6.5886701150291134e-03  6.9104185360401695e-03  6.7989092657553462e-03  3.3531773693915357e-02  -1.9527589193652696e-02  3.9961973267222783e-02  -3.1338496785929364e-02  4.5411738860356363e-02  -1.5053140634420932e-02  3.6149751501898052e-02  -9.7825855941271623e-03  4.0859857592100625e-02  -7.5961621404758692e-02  -6.9578603285096047e-03  -6.5690211527197132e-02  2.7163238865796324e-04  -5.7243559948602724e-02  3.8018098711713037e-03  -5.2257504624753641e-02  3.8781913855112085e-03  -4.9436806227596497e-02  2.1562377973438017e-03  -4.6880559039694389e-02  1.0055577582570281e-04  -3.8242113562926776e-02  1.4307076828646809e-02  1.8226640827285596e-03  3.6076564666284686e-02  -1.4605298940221943e-02  -9.9027070929412781e-03  4.8597201332343750e-04  -3.7926154418151413e-02  -4.4033843778328287e-02  -2.0542722572708474e-02  -8.3405307750507932e-02  1.4273183040729626e-01  -1.6356707662756237e-01  5.6375438943026990e-02  2.4695381244135471e-02  3.3451582220524932e-02  -3.8996568591243154e-02  -7.5460915327165172e-03  -4.5891659397913308e-02  -1.0513721089443161e-02  -9.5461418582452870e-02  4.8026762587494221e-02  -2.4419629151142025e-01  6.5873028665825048e-02  -2.0650913428233261e-01  1.4454416120239344e-01  -1.1737699847951703e-01  1.3901803963920339e-01  -4.7528143740092517e-02  9.0066639708190996e-02  -2.1862223998466414e-02  4.2759320312339533e-02  -3.5109808601844262e-03  2.0861690296739659e-02  6.9069415607808902e-03  9.2603417843085921e-03  5.5100146993690112e-03  -6.9569077059081445e-03  -3.7606050100038794e-03  -3.2658917297876358e-02  -2.7243834019390352e-02  -5.9712123661897876e-02  -2.1981722975778873e-02  -7.3551932947958074e-02  3.1108565871312215e-02  -7.2927543626990804e-02  1.2211739115622317e-01  4.4255536063677708e-01  6.5421710465386085e-01  7.8518226865791518e-01  8.6620743152249946e-01  9.1642209620411075e-01  9.4764575561161435e-01  9.6712719365047162e-01  9.7931959828245563e-01  9.8696983043288955e-01  9.9178005027394533e-01  9.9480957685668725e-01  9.9672009420180452e-01  9.9792616040238835e-01  9.9868813257761180e-01  9.9916983638813961e-01  9.9947451086585104e-01  9.9966729094635487e-01  9.9978930881082928e-01  9.9986655777036260e-01  9.9991547349352083e-01  9.9994645297391638e-01  9.9996607556139505e-01  9.9997850593853554e-01  9.9998638092348424e-01  9.9999137029364060e-01  9.9999453160132334e-01  9.9999653472786243e-01  9.9999780403563998e-01  9.9999860837526877e-01  9.9999911808571607e-01  9.9999944109659700e-01  9.9999964579699963e-01  9.9999977552293318e-01  9.9999985773591460e-01  9.9999990983841081e-01  9.9999994285867078e-01  9.9999996378560618e-01  9.9999997704835131e-01  9.9999998545385005e-01  9.9999999078100621e-01  9.9999999415721352e-01  9.9999999629696756e-01  9.9999999765309311e-01  9.9999999851257493e-01  9.9999999905729808e-01  9.9999999940253215e-01  9.9999999962133479e-01  9.9999999976000897e-01  9.9999999984789745e-01  9.9999999990360056e-01  9.9999999993890343e-01  9.9999999996127920e-01  9.9999999997545863e-01  9.9999999998444677e-01  9.9999999999014288e-01  9.9999999999375322e-01  9.9999999999604139e-01  9.9999999999749245e-01  9.9999999999841094e-01  9.9999999999899358e-01  9.9999999999936229e-01  9.9999999999959555e-01  9.9999999999974398e-01  9.9999999999983769e-01  9.9999999999989775e-01  9.9999999999993627e-01  9.9999999999995892e-01  9.9999999999997391e-01  9.9999999999998401e-01  9.9999999999999001e-01  0.0000000000000000e+00  -4.8912606220083039e-03  3.6116025888631526e-02  -8.7529971703188422e-02  -5.6257104025877486e-03  -9.8436546957203601e-03  -7.2754692303436405e-03  -3.8743831061830984e-02  -4.0737864586103699e-02  -1.1006403084849086e-02  1.0800049566822311e-03  6.0826883110657644e-03  1.7350658817097031e-03  6.9542176329315262e-03  -2.1508667578540599e-03  9.4319671437855992e-03  -1.3628062567232792e-02  2.4957146703731975e-02  -1.9528585027659338e-02  -2.4747920357599967e-02  2.9749499358844144e-02  -2.8482915820446760e-02  1.6444234552393609e-02  -9.8113668003119870e-03  3.1479594802622947e-02  -3.5944491761268342e-02  -2.2097373124736518e-03  2.3526998859245874e-03  3.1241992934487833e-03  -1.0462324895897485e-02  6.6044836826667699e-03  -2.5172567675637275e-02  2.9186939666621663e-02  -3.2167554092845323e-02  4.4342531387970528e-02  -4.2617411526385249e-02  3.0829575367926104e-02  -3.1512113839086114e-02  1.0276339733314250e-02  -4.6146736471216830e-02  4.1343315411081993e-02  -1.8666321958438203e-02  3.1865717105530045e-02  -2.4988916074466717e-02  2.4512376979283705e-02  -2.9924287657390688e-02  1.7740626182857704e-02  -3.4577548639374150e-02  1.0273232036972590e-02  -4.1020015135668164e-02  -4.3654324790156555e-04  -5.1861949727790131e-02  -2.1489411893130684e-02  -8.0424134962648830e-02  -8.1119036295751165e-02  -9.3730476371541194e-02  -1.7868690203581609e-02  1.2283772255927326e-02  1.7264872830628761e-02  4.6948112841108600e-02  3.4529938657186482e-02  -3.2638754875585524e-03  2.4521720604507507e-02  -2.1144241808986014e-01  1.0886376237344994e-01  -1.9727820045596836e-01  -1.4602167252222178e-01  -1.2038404516877148e-01  -3.2493273858553426e-02  -7.1160505752591460e-02  -3.4126707026952738e-02  -7.5844759179266710e-02  -9.1125804821835191e-03  -1.1490362034034701e-01  2.7550087914531773e-01  -1.7709195266251494e-02  2.4927889510614812e-01  -1.5834879700108298e-01  1.5048139440743841e-01  -1.2292890749392354e-01  1.2673884440446048e-01  -9.5350090114923840e-03  1.4255307586026239e-01  8.4067465500540395e-02  1.5546267995805027e-01  1.4274043136374742e-01  1.7813111435388276e-01  1.9434468143014491e-01  2.2056877050724089e-01  2.5391845815174385e-01  2.7083448633130397e-01  3.1554739528157844e-01  2.6798119647017338e-01  2.5454359180736852e-01  2.0059164593211912e-01  2.0089860460938236e-01  6.1952091907171589e-02  1.9125898055593329e-01  3.5362754284149539e-01  5.6611632636148979e-01  7.2637379821429238e-01  8.2999896797039097e-01  8.9466765256879099e-01  9.3462942784424285e-01  9.5930867235190109e-01  9.7459145743636744e-01  9.8408987785520030e-01  9.9001421287044900e-01  9.9372074602338889e-01  9.9604562106724137e-01  9.9750683166172993e-01  9.9842668461772177e-01  9.9900646451480613e-01  9.9937224978617056e-01  9.9960319756018179e-01  9.9974909698920822e-01  9.9984130956582373e-01  9.9989961121597937e-01  9.9993648288786252e-01  9.9995980676359186e-01  9.9997456331183521e-01  9.9998390079006727e-01  9.9998980991355113e-01  9.9999354977574406e-01  9.9999591689207190e-01  9.9999741522733976e-01  9.9999836368715755e-01  9.9999896409380173e-01  9.9999934418297076e-01  9.9999958480556017e-01  9.9999973713929591e-01  9.9999983358056621e-01  9.9999989463756533e-01  9.9999993329318326e-01  9.9999995776653305e-01  9.9999997326101842e-01  9.9999998307088633e-01  9.9999998928173561e-01  9.9999999321397659e-01  9.9999999570358100e-01  9.9999999727981681e-01  9.9999999827777597e-01  9.9999999890961222e-01  9.9999999930964456e-01  9.9999999956291741e-01  9.9999999972327180e-01  9.9999999982479615e-01  9.9999999988907440e-01  9.9999999992977007e-01  9.9999999995553635e-01  9.9999999997184807e-01  9.9999999998217770e-01  9.9999999998871658e-01  9.9999999999285705e-01  9.9999999999547773e-01  9.9999999999713773e-01  9.9999999999818767e-01  9.9999999999885403e-01  9.9999999999927469e-01  9.9999999999954159e-01  9.9999999999971034e-01  9.9999999999981726e-01  9.9999999999988576e-01  9.9999999999992795e-01  9.9999999999995359e-01  9.9999999999997158e-01  9.9999999999998235e-01  9.9999999999998868e-01  9.9999999999999301e-01  0.0000000000000000e+00  9.2616650161345786e-03  -3.4163776425438039e-02  4.8359076281403700e-02  -7.6674750730974682e-03  -5.7886174303498862e-03  -1.5343392954664076e-02  1.2650968442662043e-03  1.5261194064928518e-02  8.7235351905983333e-03  4.2552574460348117e-03  -1.2117612738443107e-03  1.6744881686816919e-03  -3.2272370341275883e-03  5.4079905913952779e-03  -2.1356655121381098e-03  1.7183560605493139e-02  -2.4058934531534102e-02  5.1129267877274447e-02  2.2572138355134583e-02  -3.6284304499518076e-02  3.9571645874967004e-02  -2.2724282632423692e-02  4.3424712395555990e-03  -2.5738408026942296e-02  6.5053415998052158e-02  -1.7823217493497055e-03  -7.8761431915016743e-03  -5.9595548745264488e-04  1.0946336113771127e-02  -2.0033312723965965e-02  1.6336604422399925e-02  -3.7805348868944370e-02  2.7024084460693740e-02  -5.2501589913954920e-02  4.8479913180565562e-02  -4.5666171880412887e-02  3.0348834258896503e-02  -1.8360085980316309e-02  3.4080953769285417e-02  -3.3387427357704905e-02  1.5212429818572641e-02  -3.0942839254824706e-02  1.4488987752443472e-02  -3.1116160052815443e-02  1.2014237391051860e-02  -3.2874800599161813e-02  7.5547708421715007e-03  -3.6809758046701078e-02  1.3621286942287435e-03  -4.2626816107795062e-02  -6.9520564887120525e-03  -4.8548857454449090e-02  -1.8591243992172130e-02  -6.7219974522341047e-02  -4.4505818778861929e-03  1.2970110002337024e-03  1.6083479669144515e-02  7.8370316710361418e-02  -2.5512670215835507e-02  -3.9167677511748614e-02  -2.6971407890616587e-02  -5.2358020920741877e-02  5.0264183146693113e-02  -4.6694664781861815e-02  5.1305310816199223e-01  1.2171650507641978e-01  7.6471605467087778e-01  7.7803846264586696e-01  1.2099518881204101e+00  9.6201878772124549e-01  9.2236054874547546e-01  1.0370859828434904e+00  5.2775025499535755e-01  1.0148740767858173e-02  5.8306749118978884e-01  6.2482482587469790e-01  1.3677796134967934e+00  -6.1408799051806219e-02  1.0156682840395994e+00  -6.0364204626930457e-02  9.3732077629206734e-01  4.2052698609938738e-01  1.0695062561948638e+00  8.1921525504655612e-01  1.0704143048277757e+00  9.4335789358372657e-01  1.0112127809267311e+00  9.5671726104585875e-01  9.6734076339155606e-01  9.6561934664630167e-01  9.5770008665220707e-01  1.1471455891188964e+00  1.1001021328697940e+00  1.1622632771507468e+00  1.0227650059891151e+00  6.2825063805143566e-01  5.2746733525461298e-01  6.2940803744402030e-01  7.4693691125545547e-01  8.4088945395385484e-01  9.0236120600730940e-01  9.4039313963357984e-01  9.6353100142238179e-01  9.7757940064538196e-01  9.8614312679206684e-01  9.9139432282935480e-01  9.9463359732505707e-01  9.9664243242800143e-01  9.9789374592186286e-01  9.9867598488207054e-01  9.9916637126177810e-01  9.9947447374088239e-01  9.9966838222942811e-01  9.9979058386512976e-01  9.9986767551090416e-01  9.9991634859920697e-01  9.9994709864968268e-01  9.9996653521991918e-01  9.9997882559433948e-01  9.9998659964191905e-01  9.9999151820776322e-01  9.9999463076612061e-01  9.9999660077083308e-01  9.9999784779339007e-01  9.9999863724932292e-01  9.9999913707597288e-01  9.9999945355280595e-01  9.9999965394917778e-01  9.9999978084830787e-01  9.9999986120918194e-01  9.9999991210063066e-01  9.9999994433036710e-01  9.9999996474203023e-01  9.9999997766934212e-01  9.9999998585671790e-01  9.9999999104217308e-01  9.9999999432640518e-01  9.9999999640650750e-01  9.9999999772397219e-01  9.9999999855841482e-01  9.9999999908692772e-01  9.9999999942167628e-01  9.9999999963369934e-01  9.9999999976799037e-01  9.99999999853048