<?xml version="1.0"?>
<VTKFile type="UnstructuredGrid"  version="0.1"  >
<UnstructuredGrid>
<Piece  NumberOfPoints="21400" NumberOfCells="42336">
<Points>
<DataArray  type="Float64"  NumberOfComponents="3"  format="ascii">0 0 0  0.004583333333333333 0 0  0.009166666666666667 0 0  0.01375 0 0  0.01833333333333333 0 0  0.02291666666666667 0 0  0.0275 0 0  0.03208333333333334 0 0  0.03666666666666667 0 0  0.04125 0 0  0.04583333333333334 0 0  0.05041666666666667 0 0  0.055 0 0  0.05958333333333334 0 0  0.06416666666666668 0 0  0.06875000000000001 0 0  0.07333333333333333 0 0  0.07791666666666666 0 0  0.08249999999999999 0 0  0.08708333333333333 0 0  0.09166666666666667 0 0  0.09625000000000002 0 0  0.1008333333333333 0 0  0.1054166666666667 0 0  0.11 0 0  0.1145833333333333 0 0  0.1191666666666667 0 0  0.12375 0 0  0.1283333333333334 0 0  0.1329166666666667 0 0  0.1375 0 0  0.1420833333333333 0 0  0.1466666666666667 0 0  0.15125 0 0  0.1558333333333333 0 0  0.1604166666666667 0 0  0.165 0 0  0.1695833333333333 0 0  0.1741666666666667 0 0  0.17875 0 0  0.1833333333333333 0 0  0.1879166666666667 0 0  0.1925 0 0  0.1970833333333333 0 0  0.2016666666666667 0 0  0.20625 0 0  0.2108333333333333 0 0  0.2154166666666666 0 0  0.22 0 0  0.2245833333333334 0 0  0.2291666666666667 0 0  0.23375 0 0  0.2383333333333333 0 0  0.2429166666666667 0 0  0.2475 0 0  0.2520833333333333 0 0  0.2566666666666667 0 0  0.26125 0 0  0.2658333333333334 0 0  0.2704166666666666 0 0  0.275 0 0  0.2795833333333334 0 0  0.2841666666666667 0 0  0.28875 0 0  0.2933333333333333 0 0  0.2979166666666667 0 0  0.3025 0 0  0.3070833333333334 0 0  0.3116666666666666 0 0  0.31625 0 0  0.3208333333333333 0 0  0.3254166666666667 0 0  0.33 0 0  0.3345833333333333 0 0  0.3391666666666667 0 0  0.34375 0 0  0.3483333333333333 0 0  0.3529166666666667 0 0  0.3575 0 0  0.3620833333333333 0 0  0.3666666666666667 0 0  0.37125 0 0  0.3758333333333334 0 0  0.3804166666666667 0 0  0.3850000000000001 0 0  0.3895833333333333 0 0  0.3941666666666667 0 0  0.39875 0 0  0.4033333333333334 0 0  0.4079166666666666 0 0  0.4125 0 0  0.4170833333333334 0 0  0.4216666666666667 0 0  0.42625 0 0  0.4308333333333333 0 0  0.4354166666666667 0 0  0.44 0 0  0.4445833333333333 0 0  0.4491666666666667 0 0  0.45375 0 0  0.4583333333333333 0 0  0.4629166666666666 0 0  0.4675 0 0  0.4720833333333334 0 0  0.4766666666666667 0 0  0.4812500000000001 0 0  0.4858333333333333 0 0  0.4904166666666667 0 0  0.495 0 0  0.4995833333333334 0 0  0.5041666666666667 0 0  0.50875 0 0  0.5133333333333334 0 0  0.5179166666666667 0 0  0.5225 0 0  0.5270833333333333 0 0  0.5316666666666667 0 0  0.53625 0 0  0.5408333333333333 0 0  0.5454166666666667 0 0  0.55 0 0  0.5545833333333333 0 0  0.5591666666666667 0 0  0.5637500000000001 0 0  0.5683333333333334 0 0  0.5729166666666666 0 0  0.5775 0 0  0.5820833333333334 0 0  0.5866666666666667 0 0  0.5912499999999999 0 0  0.5958333333333334 0 0  0.6004166666666667 0 0  0.605 0 0  0.6095833333333334 0 0  0.6141666666666667 0 0  0.61875 0 0  0.6233333333333333 0 0  0.6279166666666667 0 0  0.6325000000000001 0 0  0.6370833333333333 0 0  0.6416666666666666 0 0  0.64625 0 0  0.6508333333333334 0 0  0.6554166666666666 0 0  0.6599999999999999 0 0  0.6645833333333334 0 0  0.6691666666666667 0 0  0.67375 0 0  0.6783333333333333 0 0  0.6829166666666667 0 0  0.6875 0 0  0.6920833333333333 0 0  0.6966666666666667 0 0  0.70125 0 0  0.7058333333333333 0 0  0.7104166666666667 0 0  0.7150000000000001 0 0  0.7195833333333334 0 0  0.7241666666666666 0 0  0.72875 0 0  0.7333333333333334 0 0  0.7379166666666667 0 0  0.7425 0 0  0.7470833333333333 0 0  0.7516666666666667 0 0  0.75625 0 0  0.7608333333333334 0 0  0.7654166666666666 0 0  0.7700000000000001 0 0  0 0.002380952380952381 0  0.004583333333333333 0.002380952380952381 0  0.009166666666666667 0.002380952380952381 0  0.01375 0.002380952380952381 0  0.01833333333333333 0.002380952380952381 0  0.02291666666666667 0.002380952380952381 0  0.0275 0.002380952380952381 0  0.03208333333333334 0.002380952380952381 0  0.03666666666666667 0.002380952380952381 0  0.04125 0.002380952380952381 0  0.04583333333333334 0.002380952380952381 0  0.05041666666666667 0.002380952380952381 0  0.055 0.002380952380952381 0  0.05958333333333334 0.002380952380952381 0  0.06416666666666668 0.002380952380952381 0  0.06875000000000001 0.002380952380952381 0  0.07333333333333333 0.002380952380952381 0  0.07791666666666666 0.002380952380952381 0  0.08249999999999999 0.002380952380952381 0  0.08708333333333333 0.002380952380952381 0  0.09166666666666667 0.002380952380952381 0  0.09625000000000002 0.002380952380952381 0  0.1008333333333333 0.002380952380952381 0  0.1054166666666667 0.002380952380952381 0  0.11 0.002380952380952381 0  0.1145833333333333 0.002380952380952381 0  0.1191666666666667 0.002380952380952381 0  0.12375 0.002380952380952381 0  0.1283333333333334 0.002380952380952381 0  0.1329166666666667 0.002380952380952381 0  0.1375 0.002380952380952381 0  0.1420833333333333 0.002380952380952381 0  0.1466666666666667 0.002380952380952381 0  0.15125 0.002380952380952381 0  0.1558333333333333 0.002380952380952381 0  0.1604166666666667 0.002380952380952381 0  0.165 0.002380952380952381 0  0.1695833333333333 0.002380952380952381 0  0.1741666666666667 0.002380952380952381 0  0.17875 0.002380952380952381 0  0.1833333333333333 0.002380952380952381 0  0.1879166666666667 0.002380952380952381 0  0.1925 0.002380952380952381 0  0.1970833333333333 0.002380952380952381 0  0.2016666666666667 0.002380952380952381 0  0.20625 0.002380952380952381 0  0.2108333333333333 0.002380952380952381 0  0.2154166666666666 0.002380952380952381 0  0.22 0.002380952380952381 0  0.2245833333333334 0.002380952380952381 0  0.2291666666666667 0.002380952380952381 0  0.23375 0.002380952380952381 0  0.2383333333333333 0.002380952380952381 0  0.2429166666666667 0.002380952380952381 0  0.2475 0.002380952380952381 0  0.2520833333333333 0.002380952380952381 0  0.2566666666666667 0.002380952380952381 0  0.26125 0.002380952380952381 0  0.2658333333333334 0.002380952380952381 0  0.2704166666666666 0.002380952380952381 0  0.275 0.002380952380952381 0  0.2795833333333334 0.002380952380952381 0  0.2841666666666667 0.002380952380952381 0  0.28875 0.002380952380952381 0  0.2933333333333333 0.002380952380952381 0  0.2979166666666667 0.002380952380952381 0  0.3025 0.002380952380952381 0  0.3070833333333334 0.002380952380952381 0  0.3116666666666666 0.002380952380952381 0  0.31625 0.002380952380952381 0  0.3208333333333333 0.002380952380952381 0  0.3254166666666667 0.002380952380952381 0  0.33 0.002380952380952381 0  0.3345833333333333 0.002380952380952381 0  0.3391666666666667 0.002380952380952381 0  0.34375 0.002380952380952381 0  0.3483333333333333 0.002380952380952381 0  0.3529166666666667 0.002380952380952381 0  0.3575 0.002380952380952381 0  0.3620833333333333 0.002380952380952381 0  0.3666666666666667 0.002380952380952381 0  0.37125 0.002380952380952381 0  0.3758333333333334 0.002380952380952381 0  0.3804166666666667 0.002380952380952381 0  0.3850000000000001 0.002380952380952381 0  0.3895833333333333 0.002380952380952381 0  0.3941666666666667 0.002380952380952381 0  0.39875 0.002380952380952381 0  0.4033333333333334 0.002380952380952381 0  0.4079166666666666 0.002380952380952381 0  0.4125 0.002380952380952381 0  0.4170833333333334 0.002380952380952381 0  0.4216666666666667 0.002380952380952381 0  0.42625 0.002380952380952381 0  0.4308333333333333 0.002380952380952381 0  0.4354166666666667 0.002380952380952381 0  0.44 0.002380952380952381 0  0.4445833333333333 0.002380952380952381 0  0.4491666666666667 0.002380952380952381 0  0.45375 0.002380952380952381 0  0.4583333333333333 0.002380952380952381 0  0.4629166666666666 0.002380952380952381 0  0.4675 0.002380952380952381 0  0.4720833333333334 0.002380952380952381 0  0.4766666666666667 0.002380952380952381 0  0.4812500000000001 0.002380952380952381 0  0.4858333333333333 0.002380952380952381 0  0.4904166666666667 0.002380952380952381 0  0.495 0.002380952380952381 0  0.4995833333333334 0.002380952380952381 0  0.5041666666666667 0.002380952380952381 0  0.50875 0.002380952380952381 0  0.5133333333333334 0.002380952380952381 0  0.5179166666666667 0.002380952380952381 0  0.5225 0.002380952380952381 0  0.5270833333333333 0.002380952380952381 0  0.5316666666666667 0.002380952380952381 0  0.53625 0.002380952380952381 0  0.5408333333333333 0.002380952380952381 0  0.5454166666666667 0.002380952380952381 0  0.55 0.002380952380952381 0  0.5545833333333333 0.002380952380952381 0  0.5591666666666667 0.002380952380952381 0  0.5637500000000001 0.002380952380952381 0  0.5683333333333334 0.002380952380952381 0  0.5729166666666666 0.002380952380952381 0  0.5775 0.002380952380952381 0  0.5820833333333334 0.002380952380952381 0  0.5866666666666667 0.002380952380952381 0  0.5912499999999999 0.002380952380952381 0  0.5958333333333334 0.002380952380952381 0  0.6004166666666667 0.002380952380952381 0  0.605 0.002380952380952381 0  0.6095833333333334 0.002380952380952381 0  0.6141666666666667 0.002380952380952381 0  0.61875 0.002380952380952381 0  0.6233333333333333 0.002380952380952381 0  0.6279166666666667 0.002380952380952381 0  0.6325000000000001 0.002380952380952381 0  0.6370833333333333 0.002380952380952381 0  0.6416666666666666 0.002380952380952381 0  0.64625 0.002380952380952381 0  0.6508333333333334 0.002380952380952381 0  0.6554166666666666 0.002380952380952381 0  0.6599999999999999 0.002380952380952381 0  0.6645833333333334 0.002380952380952381 0  0.6691666666666667 0.002380952380952381 0  0.67375 0.002380952380952381 0  0.6783333333333333 0.002380952380952381 0  0.6829166666666667 0.002380952380952381 0  0.6875 0.002380952380952381 0  0.6920833333333333 0.002380952380952381 0  0.6966666666666667 0.002380952380952381 0  0.70125 0.002380952380952381 0  0.7058333333333333 0.002380952380952381 0  0.7104166666666667 0.002380952380952381 0  0.7150000000000001 0.002380952380952381 
[...]
<PointData  Scalars="concentration"> 
<DataArray  type="Float64"  Name="concentration"  format="ascii">0.0000000000000000e+00  8.0096258246684121e-02  2.3034544086716541e-01  1.7610335342334366e-01  -2.3238875477393509e-02  -1.3067076902854510e-01  -1.7180286800259992e-01  -1.8850719456906306e-01  -1.7735173587406775e-01  -7.9891879921247216e-02  1.1119763561366099e-02  6.9571426075235631e-03  7.4971012659796801e-03  -1.3474873468494097e-03  7.0254096295228937e-03  -9.9080535910172421e-03  1.6339336275926254e-02  -1.2985898297801552e-02  -8.0701871170421914e-03  2.3870938850896806e-02  -2.2694753141376131e-02  1.8357503045475208e-02  -1.2680568319494963e-02  2.2506145852564281e-02  -2.6722050371426696e-02  1.5222125964929816e-02  -8.9945965438042650e-04  8.9283361174800867e-03  -1.0434737028130690e-02  2.2087581056217005e-02  -1.6374444379441046e-02  3.2077132749681950e-02  -2.3039299130152398e-02  4.6695614365942086e-02  -1.9953851734718937e-02  4.7726072560214890e-02  6.0336568599724163e-03  6.6936509544237827e-02  2.5164824140827071e-02  6.6076108242016207e-01  8.8314992497680012e-01  1.0962104552488277e+00  8.7638260571578530e-01  1.0803227593291189e+00  8.8262414743930850e-01  1.0772117913209645e+00  8.8575233202325232e-01  1.0756408966756119e+00  8.8789951709562809e-01  1.0755080290383972e+00  8.9012988195255915e-01  1.0764008388780535e+00  8.9178378001352487e-01  1.0461483822471389e+00  8.8854169084696011e-01  1.0886863159505051e+00  8.7520823305492168e-01  1.1107031937743888e+00  1.0254546126702833e+00  9.7756723228119047e-01  1.0107125996151012e+00  9.8648916330186576e-01  1.0019598105147367e+00  1.0171744702351486e+00  9.9231156018957845e-01  9.6495290544277790e-01  1.0144218103289933e+00  9.8309264932999540e-01  1.0562638151137052e+00  9.7706330414403397e-01  9.8397985440958979e-01  9.2087298656653593e-01  8.5571692034429558e-01  9.1401860427991166e-01  1.0326652104785516e+00  9.9494854704842639e-01  9.3488038299242715e-01  1.0711713608285873e+00  8.2914575601806584e-01  1.1769139066305179e+00  7.9142885198564250e-01  1.2031297252376516e+00  7.4468272616127307e-01  1.3147591261193352e+00  6.6287590850882627e-01  1.3417775492409934e+00  6.5729253008408306e-01  1.3339496461804528e+00  6.7557164796504909e-01  1.3244221394538949e+00  6.9300682046987350e-01  1.3131756709466420e+00  7.1464331032399542e-01  1.2943619822063919e+00  7.4685736054736851e-01  1.2304439215114802e+00  7.6640963744063917e-01  1.2184148289583203e+00  7.8330711854179025e-01  1.2154140812211172e+00  7.8832096248547934e-01  1.2117405701064941e+00  7.9137607361595019e-01  1.2090438558562187e+00  7.9331088144468342e-01  1.2071502763769728e+00  7.9454250437943741e-01  1.2058551020904980e+00  7.9533912121266304e-01  1.2049830225972824e+00  7.9587308109660426e-01  1.2043955102208908e+00  7.9626098555452185e-01  1.2039828866874462e+00  7.9659451599212716e-01  1.2036469519073978e+00  7.9696841004743113e-01  1.2032724237200925e+00  7.9751533836064237e-01  1.2026761344144254e+00  7.9846266381072561e-01  1.2015068496938068e+00  8.0023734792589551e-01  1.1990351200388234e+00  8.0366869587603695e-01  1.1936984053044797e+00  8.1038796183659512e-01  1.1821156427037447e+00  8.2368101183781783e-01  1.1572200848593941e+00  8.5094807116612747e-01  1.1080251076399532e+00  9.1691416440685936e-01  1.0626984987969448e+00  9.5294616362739204e-01  1.0244779826677193e+00  9.7747602593222827e-01  1.0035132196405916e+00  9.9099631063208804e-01  9.9637803822305260e-01  1.0007520987237453e+00  9.9371843263864867e-01  1.0140085908412240e+00  9.9739907550494911e-01  1.0327149403435381e+00  9.9178191527652693e-01  1.0563647949613770e+00  1.0192926322243909e+00  1.2637982887831609e+00  8.9005379984601019e-01  9.4235674654302115e-01  9.7023870918322908e-01  9.8877984254228624e-01  9.9673943152162892e-01  9.9992613166377264e-01  1.0009777382092113e+00  1.0011498248045447e+00  1.0010053229864990e+00  1.0007824704554278e+00  1.0005726272304034e+00  1.0004034998883060e+00  1.0002771841736329e+00  1.0001869703105937e+00  1.0001243689364654e+00  1.0000818673424807e+00  1.0000531445842971e+00  1.0000350842495325e+00  1.0000189783328848e+00  1.0000275108350734e+00  0.0000000000000000e+00  -1.8718467797516260e-02  -1.0170790085672463e-01  6.5390317481591020e-02  6.2680355719759573e-01  9.0464432515263171e-01  9.6998959615624825e-01  9.2654661389875848e-01  9.4138527675664629e-01  3.0983957027445425e-01  1.3932603819160080e-01  8.3861391350132236e-02  4.7690711246027077e-02  3.4964033859101469e-02  1.4033887946716204e-02  2.2501135094169959e-02  -7.6300595829164571e-03  1.9476173066252024e-02  9.6144154714477102e-03  -2.1335872667300911e-02  2.4760445210375581e-02  -1.7313540131494307e-02  1.4271223382168990e-02  -1.9307881758017866e-02  2.9420818512168920e-02  -1.4122397674272071e-02  3.8558703271048041e-03  -4.4746993013207968e-03  1.4989848825976437e-02  -1.5490772588093530e-02  2.4053332689632743e-02  -2.1259442304976395e-02  3.5531556526878436e-02  -2.9368224020026337e-02  4.2359907996689303e-02  -1.9150916849138160e-02  3.3329331897887539e-02  -1.1612333506949655e-02  5.3719241764650295e-02  -2.8556052255410060e-02  7.2943332536216332e-01  2.9992192979975890e-01  8.1577807294151328e-01  3.1060083463426130e-01  8.1079771844861548e-01  3.0927846855771202e-01  8.0594275104438717e-01  3.1096209625706284e-01  8.0324362497387802e-01  3.1539073929093742e-01  8.0494805080581122e-01  3.2540949759022703e-01  8.1561630672232943e-01  3.4732713249057279e-01  7.4392606610373069e-01  3.1056784270874133e-01  7.6574693884284861e-01  3.3236382702109618e-01  8.1571201948220307e-01  1.0608642662901917e+00  9.9186350321406691e-01  1.0285756629006704e+00  9.8535726461176598e-01  9.8464476366383502e-01  1.0420781648514588e+00  1.0314177977402024e+00  9.1646480407733588e-01  9.6342752968175671e-01  8.9605530183114090e-01  1.0650123124723199e+00  1.0095275435720783e+00  9.8890737927200656e-01  8.2109339014619076e-01  2.8879540523976238e-01  3.0481055899826519e-02  8.6970401967008087e-02  1.1457686094074158e-01  -2.4989042826683735e-02  1.1521487634217197e-01  -1.8557126878531738e-01  1.3305376491271959e-01  -1.8183332008632713e-01  1.6343507371496060e-01  -2.5953729445455803e-01  2.4025733589600262e-01  -2.6793489540191545e-01  2.5071835762234257e-01  -2.4678401115212248e-01  2.4669810628329347e-01  -2.3135309328238898e-01  2.4511247798962940e-01  -2.1950516641694007e-01  2.4274799229848537e-01  -2.0057847569594053e-01  2.3818210037715790e-01  -1.5466894334705111e-01  2.0443491277706141e-01  -1.4908815977003040e-01  1.8773258481703525e-01  -1.5734029930512725e-01  1.7904116254823224e-01  -1.6179562113084076e-01  1.7408910970330851e-01  -1.6409843920239384e-01  1.7128636426247573e-01  -1.6528057704264446e-01  1.6968531280905047e-01  -1.6588817148772547e-01  1.6876146237935907e-01  -1.6618418247483771e-01  1.6823606422492335e-01  -1.6628197491251220e-01  1.6796156133361875e-01  -1.6621469521544879e-01  1.6785569079513188e-01  -1.6596237050914112e-01  1.6786086223152005e-01  -1.6545206983474872e-01  1.6790722747954376e-01  -1.6453610046717707e-01  1.6785510020785332e-01  -1.6294378156608438e-01  1.6737553701588695e-01  -1.6019354409756076e-01  1.6568114270330667e-01  -1.5544431338231168e-01  1.6090419910484008e-01  -1.4726813886512805e-01  1.4864267934786679e-01  -1.3337826562526398e-01  1.1873851659340218e-01  -1.1065130989550112e-01  4.9701211336214940e-02  -7.5826227052913669e-02  2.1467822253143504e-02  -3.8790973295609044e-02  3.8344837931209995e-04  -2.4175999920217767e-02  -1.5475692871400470e-02  -2.1611809649028434e-02  -2.3413228265111118e-02  -1.5637594403631168e-02  -2.2585116666580900e-02  4.6787263286913461e-03  3.6426459799334980e-03  4.5570336879969371e-02  2.0177062247696519e-02  8.9570224595970624e-02  4.7646218950856559e-03  2.2327489599492514e-01  4.2991145055097296e-01  6.4191794497021271e-01  7.7874270161659098e-01  8.6205344851713184e-01  9.1355602467205255e-01  9.4567010948663399e-01  9.6579492802803935e-01  9.7844284778455914e-01  9.8640540942004640e-01  9.9142355214540279e-01  9.9458813333720952e-01  9.9658459548797629e-01  9.9784440644436778e-01  9.9863947483956361e-01  9.9914121140607126e-01  9.9945794259211773e-01  9.9965747635318969e-01  9.9978377385335526e-01  9.9986377029069762e-01  0.0000000000000000e+00  5.9882195500174362e-04  -1.5844447617015731e-02  1.7261828555322603e-01  5.8496248035553651e-02  6.2638456586803087e-02  5.3131774105429012e-02  7.2329891052586748e-02  2.1984207963374219e-02  -4.0531772202584526e-02  -3.6815718603966312e-02  -2.7519953577946218e-02  -1.4471764224751204e-02  -1.4661641959148238e-02  -2.0731829698941353e-03  -1.4071502902106766e-02  1.1896302476189743e-02  -2.0980271837227876e-02  8.7409511589338731e-04  2.4173337792330673e-02  -2.6124628243061988e-02  2.2449533331571677e-02  -1.4616936071891545e-02  1.7123268136195396e-02  -3.1183660337130433e-02  2.3838926806880500e-02  -1.7996983608175906e-03  5.3911318767410317e-03  -1.1338728962245978e-02  1.9385037864254922e-02  -2.0676351260408267e-02  2.5912603726441552e-02  -3.0413452322284023e-02  3.7299228882334536e-02  -3.8824975859557076e-02  3.2554914807868568e-02  -2.7261210744743063e-02  1.8966726587416400e-02  -3.6159379554230001e-02  4.6232093966978957e-02  -1.0325051512682462e-01  -3.4025540445727857e-02  -8.4824815177985943e-02  -1.5004034685913450e-02  -7.2945652082883172e-02  -7.4340282254384974e-03  -6.7685180878217385e-02  -6.7743838516123511e-03  -6.4541460730148562e-02  -8.2990622539256594e-03  -6.1359847376425962e-02  -7.1610265723336597e-03  -5.1667047054217624e-02  7.7269276446735331e-03  -6.4627252479974098e-03  3.1363565396623945e-02  -2.8222968761338639e-02  1.1900922122017550e-02  -1.0182807531067284e-02  -3.8401859507335857e-02  4.0427707110050302e-03  -2.2667265456069837e-02  1.3189024496090336e-02  4.0711821326510000e-03  -3.4211389830513923e-02  1.2302427125455912e-02  8.0630799126108557e-02  2.1141126191565579e-02  3.3749039571578515e-02  -7.4769728217698062e-02  -3.8676888400990581e-02  -5.7780130770933656e-02  -2.3006112387506761e-02  -1.0752111346868450e-01  2.1221159207978551e-02  -8.8723007525307637e-02  -1.0746571763764588e-01  2.3846976055975331e-02  -1.3550208184159862e-01  1.6530205346464727e-01  -1.7069098576362163e-01  1.5194408007157542e-01  -2.0182254131396057e-01  2.2492691285348226e-01  -2.9614069175305963e-01  2.2960908847912120e-01  -3.0335444970878150e-01  2.1634830428702898e-01  -2.8793574412330808e-01  2.1264188576742737e-01  -2.7575783539394744e-01  2.1104736241248329e-01  -2.6650213278726353e-01  2.0012036252143295e-01  -2.5466455352840406e-01  1.7067564074988373e-01  -2.0355152221571554e-01  1.6725233050273949e-01  -1.8287424104706282e-01  1.7923168795531094e-01  -1.7308609291590440e-01  1.8375012210263128e-01  -1.6932360842596489e-01  1.8466831933604641e-01  -1.6835369393558822e-01  1.8419311660521279e-01  -1.6848201197543569e-01  1.8336542358060712e-01  -1.6890760485961662e-01  1.8261470030340562e-01  -1.6928508296667727e-01  1.8208573357939031e-01  -1.6947208577211229e-01  1.8180824349276276e-01  -1.6939330539118247e-01  1.8177487701178222e-01  -1.6896407518287385e-01  1.8196859983434821e-01  -1.6803309669432082e-01  1.8235761458003488e-01  -1.6631215491238727e-01  1.8285585319517356e-01  -1.6325558157480261e-01  1.8322345391831091e-01  -1.5782680131641388e-01  1.8284163094802930e-01  -1.4802601404751567e-01  1.8021612363958361e-01  -1.2991601224236909e-01  1.7188063219108862e-01  -9.5800545962643896e-02  1.4993493361153404e-01  -3.2494257255566816e-02  9.5799913240827761e-02  -1.6683174351816130e-02  4.4227907092584125e-02  -3.0866390132892234e-03  2.0025738723912445e-02  5.6448006035780679e-03  7.6863316478477783e-03  3.9744881765760263e-03  -8.2169176641938360e-03  -4.7382605185229366e-03  -3.3100909933299873e-02  -2.7522732898333482e-02  -5.9899414198035385e-02  -2.1859507144386843e-02  -7.3368613650331135e-02  3.1258260304146732e-02  -7.2711017259436489e-02  1.2230318075752937e-01  4.4274873711835783e-01  6.5437941175859571e-01  7.8530699492983336e-01  8.6629890965773648e-01  9.1648746343518595e-01  9.4769180547505283e-01  9.6715941211340550e-01  9.7934208162590997e-01  9.8698552489841884e-01  9.9179101586549923e-01  9.9481724404998173e-01  9.9672544091578197e-01  9.9792984664588069e-01  9.9869062887691396e-01  9.9917139088229234e-01  9.9947537692805755e-01  9.9966789058431116e-01  9.9978837598024894e-01  0.0000000000000000e+00  -4.8976343422068268e-03  3.6126831119532188e-02  -8.7536377019258788e-02  -5.6124099881167998e-03  -9.8542166262261255e-03  -7.2501989038274046e-03  -3.8760877425962632e-02  -4.0691529688746730e-02  -1.1046359773991470e-02  1.1509667523393605e-03  6.0154086220533939e-03  1.8541775474026630e-03  6.8365334848071394e-03  -1.9677699705775470e-03  9.2241018885634574e-03  -1.3333991425192341e-02  2.4588250573040208e-02  -1.9252083934020212e-02  -2.5293296455727091e-02  3.0434301131851034e-02  -2.9527305129913153e-02  1.8116674835242264e-02  -1.1654536674189440e-02  3.2662418028161798e-02  -4.0315180036771245e-02  2.9205481903965226e-03  -2.0152751001031488e-03  1.0035709666510339e-02  -1.9481223067129547e-02  2.2089659155940643e-02  -2.5235053404656132e-02  3.0855487121660894e-02  -3.8882462101527300e-02  4.4263900160489721e-02  -4.2216869336348876e-02  3.1085354392813552e-02  -2.2391552558658337e-02  2.4548535663428715e-02  -4.5650082574146544e-02  5.9413844285021639e-02  -2.0460121229798241e-03  3.9524257552542158e-02  -1.7065106573481648e-02  2.9803320911785721e-02  -2.4026284611429291e-02  2.2904100938953665e-02  -2.7742004538269457e-02  1.5212301208214839e-02  -3.2265382398569326e-02  4.7235738236298805e-03  -4.3676685366672081e-02  -1.4844445109727494e-02  -7.2580423217924378e-02  -7.6904905836593443e-02  -6.4779320849579033e-02  1.8523905473272501e-02  3.2792480206790389e-02  6.4344113773452560e-02  6.7219448889146993e-02  8.6538328798585491e-03  2.9851536918014003e-02  -1.9997076495685957e-02  -3.9136953203448843e-03  2.4165596278932479e-02  -5.0039301267692501e-02  -1.2557962299522657e-01  -3.7662700818050586e-02  -7.5755272079582993e-03  1.1225106539098491e-01  3.5703222849150139e-02  3.9368357889443463e-02  -2.9501634521199308e-02  8.3799065258077204e-02  4.9455936142991999e-02  2.0007590243343570e-01  1.2046583610248457e-01  -1.1776630036504017e-02  1.7376815370238416e-01  -1.0996143958039085e-01  2.5098484890653289e-01  -9.6621295741852062e-02  2.5300665587473620e-01  -2.0813752868274590e-01  3.2939676290462311e-01  -2.5603938438301760e-01  2.8127287998425882e-01  -3.0965058409124196e-01  1.9965680398673050e-01  -3.6593237215442742e-01  1.3650958509976288e-01  -4.0839751766433313e-01  9.1473889504995784e-02  -4.3379304479537401e-01  4.5221152510865219e-02  -4.4873480817874767e-01  -5.5471384939389176e-02  -4.0870111340358839e-01  2.6623577815013989e-03  -3.6103845420184216e-01  4.0241341667103005e-02  -3.2910571005255540e-01  6.5710199029668542e-02  -3.0721622017562233e-01  8.3280272370831979e-02  -2.9211058782763072e-01  9.5424388044310415e-02  -2.8171163620048761e-01  1.0378096386852763e-01  -2.7458231557941071e-01  1.0950465036355951e-01  -2.6969205310634320e-01  1.1342338999359138e-01  -2.6628999337114834e-01  1.1612755080980022e-01  -2.6381392587904040e-01  1.1803011699621219e-01  -2.6180843776670154e-01  1.1940669495990187e-01  -2.5983404497119361e-01  1.2041384074380394e-01  -2.5733852344515695e-01  1.2107886525869480e-01  -2.5343086180682045e-01  1.2124897109447128e-01  -2.4642631191416331e-01  1.2048455177308560e-01  -2.3286206150226899e-01  1.1790528330555752e-01  -2.0526115964611291e-01  1.1226603042011972e-01  -1.4685931361315152e-01  1.0454293074113687e-01  -1.7881388832312078e-02  1.3838816087821368e-01  8.6840928614259683e-02  1.6109590045044653e-01  1.5072762414123023e-01  1.8692459999434405e-01  2.0344758737269680e-01  2.2931402933423511e-01  2.6197240925270798e-01  2.7814582186089526e-01  3.2192655997940434e-01  2.7300387941865112e-01  2.5846587597957421e-01  2.0381030224502120e-01  2.0345066723062841e-01  6.4064910146195239e-02  1.9258508158633289e-01  3.5422242352760852e-01  5.6654285547096994e-01  7.2668408181027688e-01  8.3021715372257876e-01  8.9481732203407660e-01  9.3473035015308070e-01  9.5937593885347805e-01  9.7463594310718227e-01  9.8411915055830035e-01  9.9003340581638577e-01  9.9373329642758346e-01  9.9605379279957329e-01  9.9751211354328695e-01  9.9843004242519673e-01  9.9900851291857762e-01  9.9937339240411904e-01  9.9960373896316124e-01  9.9974866119741490e-01  9.9984092921565870e-01  0.0000000000000000e+00  9.2726844486826256e-03  -3.4167982574889490e-02  4.8374881255864102e-02  -7.6701891280075039e-03  -5.7640072550057594e-03  -1.5355185270930286e-02  1.3029132261440882e-03  1.5235559531248047e-02  8.7937669940576415e-03  4.2276174830973888e-03  -1.0866314265218344e-03  1.6277097080792994e-03  -3.0251395436309411e-03  5.3182969000399542e-03  -1.8304175700207673e-03  1.6985031428417487e-02  -2.3528692394996491e-02  5.0949610794366648e-02  2.3071791892045515e-02  -3.7061012419625707e-02  4.0225357114083087e-02  -2.4757924983630508e-02  6.1193189710680908e-03  -2.7052173936529492e-02  6.7659226468409314e-02  -9.0147757435928080e-03  -5.6665207913536211e-03  -1.0322268827034719e-02  1.5805309762147658e-02  -2.8516522058024144e-02  1.9667398567367277e-02  -3.5481529215296140e-02  3.5662723013146581e-02  -5.4810406983472747e-02  5.0820583565837157e-02  -4.4263069816865605e-02  2.4371604603903634e-02  -2.1921271493632530e-02  3.4912428370388097e-02  -4.0970032279942739e-02  8.6997151662222046e-03  -2.8484260758689390e-02  1.3897740578739109e-02  -2.6384275713312998e-02  1.3093594917762777e-02  -2.6581160901686975e-02  8.2869705137997157e-03  -2.8602079668751352e-02  -5.2337053959619151e-04  -3.5145012269505192e-02  -1.3298782212813163e-02  -5.1839620903477109e-02  -3.7888213137139123e-02  -9.2959725802447199e-02  -5.6768396909625964e-02  7.7735702856117023e-03  -1.8211216623572841e-02  1.0308020274095016e-01  9.2408603082748484e-03  2.9190873836626705e-02  -3.1100224616714557e-02  -2.0542699945481782e-03  -6.2308771676728429e-02  -1.1267147048689809e-01  -2.9348036836442326e-02  -3.9783062021952358e-02  -3.4730386694080718e-02  -1.3245118778560206e-02  4.7712300233595469e-02  4.6407000997721125e-02  -6.9650731737693587e-03  5.8651489934003084e-02  -8.7577091378734720e-02  -1.5304006696259032e-01  -5.4034496897612104e-02  4.1739682730368786e-02  1.2875539957223070e-01  -6.3263587748081690e-02  4.6505106337658964e-01  3.7587754358465487e-02  5.9945104353700218e-01  2.4863896264819166e-01  9.7711881278122370e-01  5.0934892657659547e-02  1.0530473575548092e+00  -2.0816370915840095e-02  9.2693127768684114e-01  -1.6885740539454436e-02  8.6904931430359444e-01  -2.1652541654058270e-02  8.3542095185474319e-01  -3.0279434320762032e-02  8.2188829510994832e-01  -3.5360494382004844e-02  8.0357574298755996e-01  -1.4374376429970773e-01  1.0758266162401831e+00  -1.1833926042143028e-01  1.0807398333853939e+00  -1.2246917003869172e-01  1.0757625806627396e+00  -1.2825762031169477e-01  1.0702896762235468e+00  -1.3330096482477799e-01  1.0657215777329374e+00  -1.3716621820153257e-01  1.0622695218742895e+00  -1.3994264014261334e-01  1.0597917993199242e+00  -1.4185393612132141e-01  1.0580624661837366e+00  -1.4311574208949965e-01  1.0568667270994692e+00  -1.4388766807112915e-01  1.0560241925426681e+00  -1.4425655356470024e-01  1.0553808908842495e+00  -1.4421906688754194e-01  1.0547837367087485e+00  -1.4364043508798371e-01  1.0540345912207807e+00  -1.4215931358737557e-01  1.0528032140857220e+00  -1.3898754651706277e-01  1.0504408473161344e+00  -1.3252530789700973e-01  1.0455147561917808e+00  -1.1972429245548091e-01  1.0344341776241039e+00  -9.5670430217496105e-02  1.0064269150227361e+00  -5.6902235540919846e-02  9.3799199637226338e-01  4.2407643372060067e-01  1.0639385410861282e+00  8.1780760014493648e-01  1.0675722905212348e+00  9.4242504780361014e-01  1.0098470582722376e+00  9.5595167352484478e-01  