<?xml version="1.0"?>
<VTKFile type="UnstructuredGrid"  version="0.1"  >
<UnstructuredGrid>
<Piece  NumberOfPoints="21400" NumberOfCells="42336">
<Points>
<DataArray  type="Float64"  NumberOfComponents="3"  format="ascii">0 0 0  0.004583333333333333 0 0  0.009166666666666667 0 0  0.01375 0 0  0.01833333333333333 0 0  0.02291666666666667 0 0  0.0275 0 0  0.03208333333333334 0 0  0.03666666666666667 0 0  0.04125 0 0  0.04583333333333334 0 0  0.05041666666666667 0 0  0.055 0 0  0.05958333333333334 0 0  0.06416666666666668 0 0  0.06875000000000001 0 0  0.07333333333333333 0 0  0.07791666666666666 0 0  0.08249999999999999 0 0  0.08708333333333333 0 0  0.09166666666666667 0 0  0.09625000000000002 0 0  0.1008333333333333 0 0  0.1054166666666667 0 0  0.11 0 0  0.1145833333333333 0 0  0.1191666666666667 0 0  0.12375 0 0  0.1283333333333334 0 0  0.1329166666666667 0 0  0.1375 0 0  0.1420833333333333 0 0  0.1466666666666667 0 0  0.15125 0 0  0.1558333333333333 0 0  0.1604166666666667 0 0  0.165 0 0  0.1695833333333333 0 0  0.1741666666666667 0 0  0.17875 0 0  0.1833333333333333 0 0  0.1879166666666667 0 0  0.1925 0 0  0.1970833333333333 0 0  0.2016666666666667 0 0  0.20625 0 0  0.2108333333333333 0 0  0.2154166666666666 0 0  0.22 0 0  0.2245833333333334 0 0  0.2291666666666667 0 0  0.23375 0 0  0.2383333333333333 0 0  0.2429166666666667 0 0  0.2475 0 0  0.2520833333333333 0 0  0.2566666666666667 0 0  0.26125 0 0  0.2658333333333334 0 0  0.2704166666666666 0 0  0.275 0 0  0.2795833333333334 0 0  0.2841666666666667 0 0  0.28875 0 0  0.2933333333333333 0 0  0.2979166666666667 0 0  0.3025 0 0  0.3070833333333334 0 0  0.3116666666666666 0 0  0.31625 0 0  0.3208333333333333 0 0  0.3254166666666667 0 0  0.33 0 0  0.3345833333333333 0 0  0.3391666666666667 0 0  0.34375 0 0  0.3483333333333333 0 0  0.3529166666666667 0 0  0.3575 0 0  0.3620833333333333 0 0  0.3666666666666667 0 0  0.37125 0 0  0.3758333333333334 0 0  0.3804166666666667 0 0  0.3850000000000001 0 0  0.3895833333333333 0 0  0.3941666666666667 0 0  0.39875 0 0  0.4033333333333334 0 0  0.4079166666666666 0 0  0.4125 0 0  0.4170833333333334 0 0  0.4216666666666667 0 0  0.42625 0 0  0.4308333333333333 0 0  0.4354166666666667 0 0  0.44 0 0  0.4445833333333333 0 0  0.4491666666666667 0 0  0.45375 0 0  0.4583333333333333 0 0  0.4629166666666666 0 0  0.4675 0 0  0.4720833333333334 0 0  0.4766666666666667 0 0  0.4812500000000001 0 0  0.4858333333333333 0 0  0.4904166666666667 0 0  0.495 0 0  0.4995833333333334 0 0  0.5041666666666667 0 0  0.50875 0 0  0.5133333333333334 0 0  0.5179166666666667 0 0  0.5225 0 0  0.5270833333333333 0 0  0.5316666666666667 0 0  0.53625 0 0  0.5408333333333333 0 0  0.5454166666666667 0 0  0.55 0 0  0.5545833333333333 0 0  0.5591666666666667 0 0  0.5637500000000001 0 0  0.5683333333333334 0 0  0.5729166666666666 0 0  0.5775 0 0  0.5820833333333334 0 0  0.5866666666666667 0 0  0.5912499999999999 0 0  0.5958333333333334 0 0  0.6004166666666667 0 0  0.605 0 0  0.6095833333333334 0 0  0.6141666666666667 0 0  0.61875 0 0  0.6233333333333333 0 0  0.6279166666666667 0 0  0.6325000000000001 0 0  0.6370833333333333 0 0  0.6416666666666666 0 0  0.64625 0 0  0.6508333333333334 0 0  0.6554166666666666 0 0  0.6599999999999999 0 0  0.6645833333333334 0 0  0.6691666666666667 0 0  0.67375 0 0  0.6783333333333333 0 0  0.6829166666666667 0 0  0.6875 0 0  0.6920833333333333 0 0  0.6966666666666667 0 0  0.70125 0 0  0.7058333333333333 0 0  0.7104166666666667 0 0  0.7150000000000001 0 0  0.7195833333333334 0 0  0.7241666666666666 0 0  0.72875 0 0  0.7333333333333334 0 0  0.7379166666666667 0 0  0.7425 0 0  0.7470833333333333 0 0  0.7516666666666667 0 0  0.75625 0 0  0.7608333333333334 0 0  0.7654166666666666 0 0  0.7700000000000001 0 0  0 0.002380952380952381 0  0.004583333333333333 0.002380952380952381 0  0.009166666666666667 0.002380952380952381 0  0.01375 0.002380952380952381 0  0.01833333333333333 0.002380952380952381 0  0.02291666666666667 0.002380952380952381 0  0.0275 0.002380952380952381 0  0.03208333333333334 0.002380952380952381 0  0.03666666666666667 0.002380952380952381 0  0.04125 0.002380952380952381 0  0.04583333333333334 0.002380952380952381 0  0.05041666666666667 0.002380952380952381 0  0.055 0.002380952380952381 0  0.05958333333333334 0.002380952380952381 0  0.06416666666666668 0.002380952380952381 0  0.06875000000000001 0.002380952380952381 0  0.07333333333333333 0.002380952380952381 0  0.07791666666666666 0.002380952380952381 0  0.08249999999999999 0.002380952380952381 0  0.08708333333333333 0.002380952380952381 0  0.09166666666666667 0.002380952380952381 0  0.09625000000000002 0.002380952380952381 0  0.1008333333333333 0.002380952380952381 0  0.1054166666666667 0.002380952380952381 0  0.11 0.002380952380952381 0  0.1145833333333333 0.002380952380952381 0  0.1191666666666667 0.002380952380952381 0  0.12375 0.002380952380952381 0  0.1283333333333334 0.002380952380952381 0  0.1329166666666667 0.002380952380952381 0  0.1375 0.002380952380952381 0  0.1420833333333333 0.002380952380952381 0  0.1466666666666667 0.002380952380952381 0  0.15125 0.002380952380952381 0  0.1558333333333333 0.002380952380952381 0  0.1604166666666667 0.002380952380952381 0  0.165 0.002380952380952381 0  0.1695833333333333 0.002380952380952381 0  0.1741666666666667 0.002380952380952381 0  0.17875 0.002380952380952381 0  0.1833333333333333 0.002380952380952381 0  0.1879166666666667 0.002380952380952381 0  0.1925 0.002380952380952381 0  0.1970833333333333 0.002380952380952381 0  0.2016666666666667 0.002380952380952381 0  0.20625 0.002380952380952381 0  0.2108333333333333 0.002380952380952381 0  0.2154166666666666 0.002380952380952381 0  0.22 0.002380952380952381 0  0.2245833333333334 0.002380952380952381 0  0.2291666666666667 0.002380952380952381 0  0.23375 0.002380952380952381 0  0.2383333333333333 0.002380952380952381 0  0.2429166666666667 0.002380952380952381 0  0.2475 0.002380952380952381 0  0.2520833333333333 0.002380952380952381 0  0.2566666666666667 0.002380952380952381 0  0.26125 0.002380952380952381 0  0.2658333333333334 0.002380952380952381 0  0.2704166666666666 0.002380952380952381 0  0.275 0.002380952380952381 0  0.2795833333333334 0.002380952380952381 0  0.2841666666666667 0.002380952380952381 0  0.28875 0.002380952380952381 0  0.2933333333333333 0.002380952380952381 0  0.2979166666666667 0.002380952380952381 0  0.3025 0.002380952380952381 0  0.3070833333333334 0.002380952380952381 0  0.3116666666666666 0.002380952380952381 0  0.31625 0.002380952380952381 0  0.3208333333333333 0.002380952380952381 0  0.3254166666666667 0.002380952380952381 0  0.33 0.002380952380952381 0  0.3345833333333333 0.002380952380952381 0  0.3391666666666667 0.002380952380952381 0  0.34375 0.002380952380952381 0  0.3483333333333333 0.002380952380952381 0  0.3529166666666667 0.002380952380952381 0  0.3575 0.002380952380952381 0  0.3620833333333333 0.002380952380952381 0  0.3666666666666667 0.002380952380952381 0  0.37125 0.002380952380952381 0  0.3758333333333334 0.002380952380952381 0  0.3804166666666667 0.002380952380952381 0  0.3850000000000001 0.002380952380952381 0  0.3895833333333333 0.002380952380952381 0  0.3941666666666667 0.002380952380952381 0  0.39875 0.002380952380952381 0  0.4033333333333334 0.002380952380952381 0  0.4079166666666666 0.002380952380952381 0  0.4125 0.002380952380952381 0  0.4170833333333334 0.002380952380952381 0  0.4216666666666667 0.002380952380952381 0  0.42625 0.002380952380952381 0  0.4308333333333333 0.002380952380952381 0  0.4354166666666667 0.002380952380952381 0  0.44 0.002380952380952381 0  0.4445833333333333 0.002380952380952381 0  0.4491666666666667 0.002380952380952381 0  0.45375 0.002380952380952381 0  0.4583333333333333 0.002380952380952381 0  0.4629166666666666 0.002380952380952381 0  0.4675 0.002380952380952381 0  0.4720833333333334 0.002380952380952381 0  0.4766666666666667 0.002380952380952381 0  0.4812500000000001 0.002380952380952381 0  0.4858333333333333 0.002380952380952381 0  0.4904166666666667 0.002380952380952381 0  0.495 0.002380952380952381 0  0.4995833333333334 0.002380952380952381 0  0.5041666666666667 0.002380952380952381 0  0.50875 0.002380952380952381 0  0.5133333333333334 0.002380952380952381 0  0.5179166666666667 0.002380952380952381 0  0.5225 0.002380952380952381 0  0.5270833333333333 0.002380952380952381 0  0.5316666666666667 0.002380952380952381 0  0.53625 0.002380952380952381 0  0.5408333333333333 0.002380952380952381 0  0.5454166666666667 0.002380952380952381 0  0.55 0.002380952380952381 0  0.5545833333333333 0.002380952380952381 0  0.5591666666666667 0.002380952380952381 0  0.5637500000000001 0.002380952380952381 0  0.5683333333333334 0.002380952380952381 0  0.5729166666666666 0.002380952380952381 0  0.5775 0.002380952380952381 0  0.5820833333333334 0.002380952380952381 0  0.5866666666666667 0.002380952380952381 0  0.5912499999999999 0.002380952380952381 0  0.5958333333333334 0.002380952380952381 0  0.6004166666666667 0.002380952380952381 0  0.605 0.002380952380952381 0  0.6095833333333334 0.002380952380952381 0  0.6141666666666667 0.002380952380952381 0  0.61875 0.002380952380952381 0  0.6233333333333333 0.002380952380952381 0  0.6279166666666667 0.002380952380952381 0  0.6325000000000001 0.002380952380952381 0  0.6370833333333333 0.002380952380952381 0  0.6416666666666666 0.002380952380952381 0  0.64625 0.002380952380952381 0  0.6508333333333334 0.002380952380952381 0  0.6554166666666666 0.002380952380952381 0  0.6599999999999999 0.002380952380952381 0  0.6645833333333334 0.002380952380952381 0  0.6691666666666667 0.002380952380952381 0  0.67375 0.002380952380952381 0  0.6783333333333333 0.002380952380952381 0  0.6829166666666667 0.002380952380952381 0  0.6875 0.002380952380952381 0  0.6920833333333333 0.002380952380952381 0  0.6966666666666667 0.002380952380952381 0  0.70125 0.002380952380952381 0  0.7058333333333333 0.002380952380952381 0  0.7104166666666667 0.002380952380952381 0  0.7150000000000001 0.002380952380952381 
[...]
<PointData  Scalars="concentration"> 
<DataArray  type="Float64"  Name="concentration"  format="ascii">0.0000000000000000e+00  8.0089856659418909e-02  2.3030427204726373e-01  1.7609853628411248e-01  -2.3261672904695233e-02  -1.3071919252932471e-01  -1.7190674659673058e-01  -1.8866003858115346e-01  -1.7764946627972181e-01  -8.0411178261392935e-02  1.0563160685922694e-02  6.3184131198458704e-03  6.6431416535935265e-03  -2.3599308437146937e-03  5.6348471061390265e-03  -1.1567570232690942e-02  1.4028731989572836e-02  -1.5583403415611560e-02  -1.2023364900481929e-02  1.9492336833321793e-02  -2.9018692794036412e-02  1.0850440191151039e-02  -2.3353434366188544e-02  1.0555608130956401e-02  -4.4607252414620421e-02  -6.8145718547216912e-03  -3.3266599672698308e-02  -2.7831024878215652e-02  -7.4699154642712914e-02  -5.4984824687875661e-02  -3.0004502575427200e-01  7.4483998119655126e-01  9.6470791056998706e-01  1.0410894702616191e+00  9.6626451908770861e-01  1.0378812284259527e+00  9.8616464209663668e-01  1.0414388406834789e+00  1.0245833828156015e+00  1.1503498669621923e+00  8.6829689956965017e-01  1.1012919599612330e+00  8.5904590054091234e-01  1.0965354972489165e+00  8.5309901814700773e-01  1.1014723033959848e+00  8.4433751907573884e-01  1.1090404957256481e+00  8.3470877798179677e-01  1.1181650512163790e+00  8.2634719424668734e-01  1.1263039103985060e+00  8.0911825525382841e-01  1.0945678055451302e+00  8.1570568399493693e-01  1.1603347877614330e+00  8.0870022022809473e-01  1.2092801937400202e+00  9.9163880721217201e-01  9.7792587002085107e-01  9.9965363848254718e-01  1.0640575487976704e+00  8.5704998298937485e-01  1.1772392809474219e+00  8.6991948886316850e-01  1.0289148268713473e+00  9.7109924320796837e-01  1.0723158915419757e+00  9.2059558758836313e-01  1.0383227997240925e+00  9.4529480117985187e-01  1.0009920751754426e+00  7.6167721387869680e-01  1.1051049755669695e+00  8.1369896209263048e-01  1.1443549009554141e+00  7.6496134969047924e-01  1.1840067385258466e+00  8.0929755419633576e-01  1.1611365360933552e+00  8.4169308726057268e-01  1.1106136552576793e+00  9.1279179782358744e-01  1.0638115170247200e+00  9.5186774881489233e-01  1.0249040507337090e+00  9.7740766966097403e-01  1.0037503154851133e+00  9.9113447931544452e-01  9.9660984938160213e-01  1.0010489670239155e+00  9.9396374607733207e-01  1.0143647432186336e+00  9.9745934064564024e-01  1.0328186494880460e+00  9.9197119897049191e-01  1.0564196026203023e+00  1.0193133251283697e+00  1.2639139223603868e+00  8.8993328484177381e-01  9.4239378987804057e-01  9.7025204337265281e-01  9.8878476487704103e-01  9.9674146514221396e-01  9.9992724733085969e-01  1.0009785413595438e+00  1.0011504844166119e+00  1.0010058843344551e+00  1.0007829593183231e+00  1.0005730600709606e+00  1.0004039001892830e+00  1.0002775701949558e+00  1.0001873590957235e+00  1.0001247967547473e+00  1.0000822859401968e+00  1.0000538280594731e+00  1.0000349913686712e+00  1.0000226316303993e+00  1.0000145775434544e+00  1.0000093581168741e+00  1.0000059907913987e+00  1.0000038262857927e+00  1.0000024391314171e+00  1.0000015523666050e+00  1.0000009866593429e+00  1.0000006263934109e+00  1.0000003972936065e+00  1.0000002517822086e+00  1.0000001594562846e+00  1.0000001009268586e+00  1.0000000638496513e+00  1.0000000403765399e+00  1.0000000255238128e+00  1.0000000161298690e+00  1.0000000101907058e+00  1.0000000064369798e+00  1.0000000040651689e+00  1.0000000025668767e+00  1.0000000016205839e+00  1.0000000010230257e+00  1.0000000006457395e+00  1.0000000004075582e+00  1.0000000002572103e+00  1.0000000001623153e+00  1.0000000001024258e+00  1.0000000000646305e+00  1.0000000000407803e+00  1.0000000000257288e+00  1.0000000000162339e+00  1.0000000000102414e+00  1.0000000000064631e+00  1.0000000000040765e+00  1.0000000000025735e+00  1.0000000000016234e+00  1.0000000000010245e+00  1.0000000000006470e+00  1.0000000000004088e+00  1.0000000000002587e+00  1.0000000000001639e+00  1.0000000000001024e+00  1.0000000000000653e+00  1.0000000000000417e+00  1.0000000000000275e+00  1.0000000000000171e+00  1.0000000000000115e+00  1.0000000000000071e+00  1.0000000000000049e+00  1.0000000000000033e+00  1.0000000000000031e+00  0.0000000000000000e+00  -1.8736125194011487e-02  -1.0171496068664632e-01  6.5334786075701770e-02  6.2674287483358115e-01  9.0456348276787546e-01  9.6989555344346634e-01  9.2636868632615144e-01  9.4123788104356854e-01  3.0960772756704608e-01  1.3900125770072042e-01  8.3372093880816942e-02  4.7100811160459839e-02  3.4131827118589600e-02  1.3063462459059710e-02  2.1142544384978080e-02  -9.1832494245200312e-03  1.7167069704270344e-02  7.2956276427647787e-03  -2.4960326959115139e-02  2.0837011092944443e-02  -2.2947571055393936e-02  8.0645069918972526e-03  -2.8897159639572605e-02  1.9687480616798744e-02  -2.7757742593740881e-02  -1.0301752866120039e-02  -2.8272913919823416e-02  -1.7936009925146245e-03  -4.7700265508195484e-02  3.6608632243956961e-02  1.0603758925522873e-02  5.1974343666776487e-02  -9.7246986399907916e-03  5.7442829549780805e-02  -8.9692906981025909e-03  5.1180298651022658e-02  1.8841528548948397e-02  8.3899501938814292e-02  8.0188454404838280e-02  7.3080853990458472e-01  3.0402769537407626e-01  7.9285849137907372e-01  3.1918560388209261e-01  7.8559421116437489e-01  3.2377229426557858e-01  7.7487653672839041e-01  3.2967181969459292e-01  7.6555813307829834e-01  3.3820950987374110e-01  7.6064178197900656e-01  3.5177798412407590e-01  7.6789351952257223e-01  3.6342103805232606e-01  6.8319610640034067e-01  3.2360580678430861e-01  7.1448998872655178e-01  3.5284386845965798e-01  7.7185853485591061e-01  1.0254194202733100e+00  1.0061598719958431e+00  9.7597973177630570e-01  1.1954159022017350e+00  7.6737791867870042e-01  1.2630552623058373e+00  9.3313868975778680e-01  1.0090850363484609e+00  9.0499544148781941e-01  1.1234149531282125e+00  9.0875556830283177e-01  1.0246071588849801e+00  8.8394987859458063e-01  9.9288239212997320e-01  1.9832165099250046e-01  3.0707734936416048e-01  -4.1574764441042827e-02  2.4811737491708985e-01  -1.1836479997024028e-01  1.7940283622947603e-01  -1.2384865606859154e-01  1.3418083800898598e-01  -1.0581173560938395e-01  5.7001695165497204e-02  -7.3672341751333525e-02  2.3731350506440901e-02  -3.8096753837809166e-02  8.8313487110040171e-04  -2.4083307702855179e-02  -1.5495855168729188e-02  -2.1777460961871668e-02  -2.3623419136066762e-02  -1.5754959928698888e-02  -2.2662307006013058e-02  4.8767126929645426e-03  3.8190002779013403e-03  4.5690327827218991e-02  2.0421731545318587e-02  8.9790096535315819e-02  4.9033924778105961e-03  2.2347478969751702e-01  4.2984830208101521e-01  6.4184597599926652e-01  7.7868214886816856e-01  8.6200572584201918e-01  9.1351959629557911e-01  9.4564277421532383e-01  9.6577460996269304e-01  9.7842782375829962e-01  9.8639432449834497e-01  9.9141538666382756e-01  9.9458212589711315e-01  9.9658019400073239e-01  9.9784121054914166e-01  9.9863718480721930e-01  9.9913966113022867e-01  9.9945687430439423e-01  9.9965713386715938e-01  9.9978355906635918e-01  9.9986337090076050e-01  9.9991375472944222e-01  9.9994556032962600e-01  9.9996563756037449e-01  9.9997831091634715e-01  9.9998631049776487e-01  9.9999135979719433e-01  9.9999454680978861e-01  9.9999655833669931e-01  9.9999782791054448e-01  9.9999862918402982e-01  9.9999913488625281e-01  9.9999945404063018e-01  9.9999965545901859e-01  9.9999978257210775e-01  9.9999986279063446e-01  9.9999991341420380e-01  9.9999994536081738e-01  9.9999996552084591e-01  9.9999997824274844e-01  9.9999998627075448e-01  9.9999999133667472e-01  9.9999999453339117e-01  9.9999999655057370e-01  9.9999999782343707e-01  9.9999999862661781e-01  9.9999999913342230e-01  9.9999999945321194e-01  9.9999999965499398e-01  9.9999999978231602e-01  9.9999999986265042e-01  9.9999999991334021e-01  9.9999999994532152e-01  9.9999999996550304e-01  9.9999999997823397e-01  9.9999999998626832e-01  9.9999999999133693e-01  9.9999999999453482e-01  9.9999999999655254e-01  9.9999999999782574e-01  9.9999999999862887e-01  9.9999999999913625e-01  9.9999999999945510e-01  9.9999999999965672e-01  9.9999999999978317e-01  9.9999999999986433e-01  9.9999999999991396e-01  9.9999999999994671e-01  9.9999999999996669e-01  9.9999999999997913e-01  9.9999999999998768e-01  0.0000000000000000e+00  5.9188215414845763e-04  -1.5876697751832234e-02  1.7257316916138540e-01  5.8434871823576526e-02  6.2561827505531659e-02  5.3020654748237382e-02  7.2209933562063788e-02  2.1802141959763457e-02  -4.0778854313949044e-02  -3.7099446264088121e-02  -2.7804691371087792e-02  -1.4859209328139410e-02  -1.5063591460119803e-02  -2.6600140563925677e-03  -1.4669225570036451e-02  1.1007867323724491e-02  -2.1756448668875508e-02  -5.9181032975376771e-04  2.3127957634699107e-02  -2.8082313046908846e-02  2.0901133040604421e-02  -1.7105849758185680e-02  1.5975782425775228e-02  -3.4559557422431546e-02  2.2502488073921939e-02  -4.3168353718111242e-03  1.0041640200475958e-02  -1.2394570886357380e-02  3.7477675443968933e-02  -2.0354844552674958e-02  1.9201371686507533e-02  -2.6615520281128652e-02  3.6438812636982461e-02  -3.3279652856805571e-02  4.3654057064421548e-02  -1.5134840803198834e-02  3.4951881091162255e-02  -9.7705457912706292e-03  4.0229127684097483e-02  -7.5824184154822977e-02  -8.2883835648404174e-03  -6.5209537490999836e-02  -1.5738229111307944e-03  -5.6123711257064481e-02  1.2305875320069886e-03  -4.9857854473221698e-02  2.6851007298857787e-04  -4.4870496939859651e-02  -3.0578267298184566e-03  -3.9893994765983126e-02  -6.1499737714128411e-03  -3.1571488518119396e-02  1.0077463414874501e-02  3.3574926804600829e-03  2.0924112392669156e-02  -2.0708451323444146e-02  -7.7285712408908342e-03  -4.4160945159563234e-03  -4.5506676198767720e-02  -3.6993421437375822e-02  -1.7470625216304384e-02  -9.0247369986058909e-02  1.4520389723209895e-01  -1.6368006149098965e-01  5.8087135901378942e-02  9.3979285434863495e-03  5.4642846302250081e-02  -8.1188647441714681e-02  5.6848562789713064e-02  -2.7135435495725824e-02  2.7828733487656857e-02  -1.0022243203810906e-01  9.3292614482300557e-03  -2.3733806593282183e-01  7.4153017489847761e-02  -2.4847398837225743e-01  1.3754059697405271e-01  -1.7530015127668358e-01  1.5024976001821819e-01  -1.2058271106452222e-01  1.3912345839709159e-01  -4.3120325626601154e-02  9.2501883394215542e-02  -1.8819577546047732e-02  4.4544690442656645e-02  -2.1663104706538751e-03  2.1511976476101303e-02  7.2092419073904413e-03  9.2501024434964736e-03  5.3526517755686058e-03  -7.1827678259752071e-03  -3.9905751943652024e-03  -3.2827459094052130e-02  -2.7360699528927425e-02  -5.9804553749197270e-02  -2.2002607340058992e-02  -7.3552858068841903e-02  3.1110099080829668e-02  -7.2898836697425209e-02  1.2214285105755758e-01  4.4258701300509351e-01  6.5424467977940493e-01  7.8520345304824724e-01  8.6622268060534735e-01  9.1643265293872733e-01  9.4765288450965612e-01  9.6713192851860386e-01  9.7932270706826285e-01  9.8697185479972838e-01  9.9178136051712551e-01  9.9481042103742845e-01  9.9672063621178852e-01  9.9792650746543055e-01  9.9868835434229697e-01  9.9916997785391271e-01  9.9947460098825625e-01  9.9966734829869641e-01  9.9978934527753227e-01  9.9986658094110670e-01  9.9991548820777987e-01  9.9994646231370954e-01  9.9996608148755772e-01  9.9997850969757363e-01  9.9998638330729095e-01  9.9999137180502995e-01  9.9999453255941761e-01  9.9999653533513122e-01  9.9999780442050024e-01  9.9999860861915568e-01  9.9999911824025489e-01  9.9999944119451756e-01  9.9999964585904000e-01  9.9999977556224351e-01  9.9999985776082012e-01  9.9999990985418974e-01  9.9999994286866789e-01  9.9999996379193878e-01  9.9999997705236376e-01  9.9999998545639190e-01  9.9999999078261692e-01  9.9999999415823349e-01  9.9999999629761427e-01  9.9999999765350367e-01  9.9999999851283639e-01  9.9999999905746306e-01  9.9999999940263695e-01  9.9999999962140029e-01  9.9999999976005083e-01  9.9999999984792343e-01  9.9999999990361788e-01  9.9999999993891375e-01  9.9999999996128586e-01  9.9999999997546329e-01  9.9999999998444933e-01  9.9999999999014466e-01  9.9999999999375411e-01  9.9999999999604205e-01  9.9999999999749201e-01  9.9999999999841083e-01  9.9999999999899336e-01  9.9999999999936218e-01  9.9999999999959643e-01  9.9999999999974365e-01  9.9999999999983791e-01  9.9999999999989708e-01  9.9999999999993472e-01  9.9999999999995914e-01  9.9999999999997391e-01  0.0000000000000000e+00  -4.9119127267050278e-03  3.6106597879611457e-02  -8.7569471018249037e-02  -5.6540076573835469e-03  -9.9212311365024352e-03  -7.3271168582657647e-03  -3.8880481474851972e-02  -4.0816759618587439e-02  -1.1164718034270346e-02  1.0626592034859671e-03  5.8832123999446760e-03  1.7542401507135207e-03  6.6625424726476680e-03  -2.0688823339059699e-03  9.0005867769100325e-03  -1.3415292419878566e-02  2.4347358319976541e-02  -1.8965747648238631e-02  -2.5636952714525742e-02  3.0820196889508659e-02  -2.9822821446406470e-02  1.8703841541821239e-02  -1.1858047764813601e-02  3.5377043500273972e-02  -3.9489116670527624e-02  5.2500854974233194e-03  -4.2388070717253147e-03  1.3710655541881859e-02  -3.1853199258691255e-02  1.9547677493532704e-02  -2.0880474004774018e-02  3.0400883304383678e-02  -3.2287918825133349e-02  4.4354999100615286e-02  -4.2216223582368977e-02  3.0122974203815142e-02  -3.0668326138315816e-02  1.0031674419627330e-02  -4.5387568153085277e-02  4.0799395579049678e-02  -1.7497191402916886e-02  3.0803606260049129e-02  -2.3197228522183547e-02  2.2857826085409833e-02  -2.7124491294626605e-02  1.5037490455522034e-02  -3.0335366768639752e-02  5.7263010141679034e-03  -3.4570097234966964e-02  -7.0008054360495599e-03  -4.3034505933070580e-02  -2.6746164496491153e-02  -7.1501731937530719e-02  -7.8598272455896456e-02  -7.3916353964960671e-02  -1.2080695529039337e-02  1.0061973909448496e-02  2.1329762323600059e-02  4.7060244193354077e-02  1.9491561140950527e-02  -1.1534204621036936e-02  2.5224439441015146e-02  -2.2249696853684653e-01  1.0033479224087526e-01  -2.0278522264796744e-01  -1.3804323330001428e-01  -1.4905298782437376e-01  -1.1847739110504559e-03  -1.5333560909701618e-01  -3.9083871862196903e-02  -8.6177260669697581e-02  4.4255410379558553e-02  -2.1445042749298832e-02  2.7101373375036181e-01  -4.4954498120321512e-02  3.0243262568023188e-01  -1.3745602068973437e-01  2.0716643433413945e-01  -1.5124733688230191e-01  1.5693540499986891e-01  -1.2562057498327561e-01  1.1789847499155952e-01  -1.6404979793569429e-02  1.3583386634627614e-01  7.9846985049038269e-02  1.5272842892870056e-01  1.4157434772864810e-01  1.7792076125140080e-01  1.9486597613120424e-01  2.2148387231860703e-01  2.5504620765357305e-01  2.7203409734796591e-01  3.1671601647677311e-01  2.6893124732396650e-01  2.5532502355261805e-01  2.0125963054909685e-01  2.0144254198810274e-01  6.2409740686156352e-02  1.9153993959887369e-01  3.5375200201172868e-01  5.6620734704408748e-01  7.2644073793399189e-01  8.3004610374714316e-01  8.9469986988516448e-01  9.3465100480767538e-01  9.5932291887141063e-01  9.7460076853454103e-01  9.8409591830681376e-01  9.9001811010260377e-01  9.9372325017472185e-01  9.9604722510462718e-01  9.9750785668556285e-01  9.9842733842976916e-01  9.9900688094928269e-01  9.9937251472656397e-01  9.9960336596686183e-01  9.9974920395846401e-01  9.9984137747191637e-01  9.9989965430405903e-01  9.9993651021804908e-01  9.9995982409348472e-01  9.9997457429788073e-01  9.9998390775311252e-01  9.9998981432605627e-01  9.9999355257158384e-01  9.9999591866336834e-01  9.9999741634943651e-01  9.9999836439794221e-01  9.9999896454401394e-01  9.9999934446812322e-01  9.9999958498615793e-01  9.9999973725367364e-01  9.9999983365299949e-01  9.9999989468343720e-01  9.9999993332223269e-01  9.9999995778492856e-01  9.9999997327266821e-01  9.9999998307826377e-01  9.9999998928640776e-01  9.9999999321693489e-01  9.9999999570545373e-01  9.9999999728100286e-01  9.9999999827852648e-01  9.9999999891008695e-01  9.9999999930994632e-01  9.9999999956310781e-01  9.9999999972339282e-01  9.9999999982487153e-01  9.9999999988912236e-01  9.9999999992979927e-01  9.9999999995555533e-01  9.9999999997186084e-01  9.9999999998218492e-01  9.9999999998872047e-01  9.9999999999285916e-01  9.9999999999547939e-01  9.9999999999713707e-01  9.9999999999818723e-01  9.9999999999885258e-01  9.9999999999927380e-01  9.9999999999954048e-01  9.9999999999970901e-01  9.9999999999981615e-01  9.9999999999988409e-01  9.9999999999992739e-01  9.9999999999995492e-01  9.9999999999997125e-01  9.9999999999998190e-01  0.0000000000000000e+00  9.2704385768443386e-03  -3.4178149163780695e-02  4.8360086632736950e-02  -7.6982389247262535e-03  -5.7903328777969111e-03  -1.5397646494908199e-02  1.2738775614817212e-03  1.5204219754900128e-02  8.7694628884105019e-03  4.1682373160814917e-03  -1.1209886893245649e-03  1.5420822570991835e-03  -3.0572999601934311e-03  5.2054702042875801e-03  -1.8194738159722577e-03  1.6879693376419626e-02  -2.3504508246828013e-02  5.0630855716068415e-02  2.3543376397532921e-02  -3.7141723938999983e-02  4.1227131124472426e-02  -2.4364389940099301e-02  7.1674200930153462e-03  -2.8577051214434841e-02  6.9029352331087979e-02  -8.4280838179311736e-03  -1.8943406509785671e-03  -1.1799337245091183e-02  2.5703326736809681e-02  -2.5842424077661547e-02  1.5076759816086709e-02  -3.7821500171490094e-02  2.7474425711738491e-02  -5.2940677379637417e-02  4.7997857509912541e-02  -4.5191910808101171e-02  2.9333526810615553e-02  -1.8028136215262395e-02  3.3156159321672228e-02  -3.2752009387061382e-02  1.3913618863739763e-02  -2.9714903759066331e-02  1.2402786779178936e-02  -2.9398239039796045e-02  8.5795017127129579e-03  -3.0500460761762417e-02  1.9827470508851459e-03  -3.3448738029994610e-02  -7.8428628979967125e-03  -3.8679374302940994e-02  -2.1261275607037181e-02  -4.8057035113793049e-02  -3.6073865150875038e-02  -7.6772990964237023e-02  -2.8842937542157492e-02  1.3770258005573384e-02  2.6198376772746036e-02  1.1708211734594091e-01  3.0799743524514124e-02  3.9037030470617629e-02  3.4900586919010157e-02  -1.2004637570491909e-02  8.6279314994740147e-02  -1.4525103911983934e-02  5.3567394670484691e-01  1.5577079399012037e-01  8.1873899928135974e-01  8.4590677126898250e-01  1.2922015442792176e+00  7.3485900010547478e-01  9.3710530019605520e-01  9.7392695166507659e-01  9.9469202224679698e-01  1.2795577105220021e-01  6.8476660099272368e-01  3.2611249221585076e-01  1.3643392748767240e+00  -1.1988587742381315e-01  1.0279106190199119e+00  -1.0462560944887310e-01  1.0014545874489755e+00  -5.6219768846207704e-02  9.4110177391530070e-01  4.2650028392948841e-01  1.0701954929793176e+00  8.2017610938550889e-01  1.0700905792464430e+00  9.4343224299152206e-01  1.0109955303946141e+00  9.5663219460609583e-01  9.6721974651848575e-01  9.6549443597874574e-01  9.5740066838901849e-01  1.1467706135898001e+00  1.0999460114906510e+00  1.1622166007950212e+00  1.0229529719353938e+00  6.2863596114195752e-01  5.2779404228092142e-01  6.2966046295905498e-01  7.4710621618784256e-01  8.4100396586039150e-01  9.0243782113664794e-01  9.4044367804271922e-01  9.6356395315943011e-01  9.7760070747616745e-01  9.8615682542615624e-01  9.9140309563578588e-01  9.9463920036045406e-01  9.9664600412594528e-01  9.9789601955892748e-01  9.9867743071485282e-01  9.9916728996230364e-01  9.9947505714101570e-01  9.9966875252866050e-01  9.9979081881525711e-01  9.9986782453892942e-01  9.9991644310427852e-01  9.9994715856767613e-01  9.9996657320301530e-01  9.9997884966938611e-01  9.9998661489993312e-01  9.9999152787697798e-01  9.9999463689320078e-01  9.9999660465314721e-01  9.9999785025323140e-01  9.9999863880782147e-01  9.9999913806336727e-01  9.9999945417835956e-01  9.9999965434547999e-01  9.9999978109937215e-01  9.9999986136823038e-01  9.9999991220138829e-01  9.9999994439419626e-01  9.9999996478246600e-01  9.9999997769495730e-01  9.9999998587294392e-01  9.9999999105245196e-01  9.9999999433291631e-01  9.9999999641063275e-01  9.9999999772658610e-01  9.9999999856007071e-01  9.9999999908797776e-01  9.9999999942234108e-01  9.99999