<?xml version="1.0"?>
<VTKFile type="UnstructuredGrid"  version="0.1"  >
<UnstructuredGrid>
<Piece  NumberOfPoints="21400" NumberOfCells="42336">
<Points>
<DataArray  type="Float64"  NumberOfComponents="3"  format="ascii">0 0 0  0.004583333333333333 0 0  0.009166666666666667 0 0  0.01375 0 0  0.01833333333333333 0 0  0.02291666666666667 0 0  0.0275 0 0  0.03208333333333334 0 0  0.03666666666666667 0 0  0.04125 0 0  0.04583333333333334 0 0  0.05041666666666667 0 0  0.055 0 0  0.05958333333333334 0 0  0.06416666666666668 0 0  0.06875000000000001 0 0  0.07333333333333333 0 0  0.07791666666666666 0 0  0.08249999999999999 0 0  0.08708333333333333 0 0  0.09166666666666667 0 0  0.09625000000000002 0 0  0.1008333333333333 0 0  0.1054166666666667 0 0  0.11 0 0  0.1145833333333333 0 0  0.1191666666666667 0 0  0.12375 0 0  0.1283333333333334 0 0  0.1329166666666667 0 0  0.1375 0 0  0.1420833333333333 0 0  0.1466666666666667 0 0  0.15125 0 0  0.1558333333333333 0 0  0.1604166666666667 0 0  0.165 0 0  0.1695833333333333 0 0  0.1741666666666667 0 0  0.17875 0 0  0.1833333333333333 0 0  0.1879166666666667 0 0  0.1925 0 0  0.1970833333333333 0 0  0.2016666666666667 0 0  0.20625 0 0  0.2108333333333333 0 0  0.2154166666666666 0 0  0.22 0 0  0.2245833333333334 0 0  0.2291666666666667 0 0  0.23375 0 0  0.2383333333333333 0 0  0.2429166666666667 0 0  0.2475 0 0  0.2520833333333333 0 0  0.2566666666666667 0 0  0.26125 0 0  0.2658333333333334 0 0  0.2704166666666666 0 0  0.275 0 0  0.2795833333333334 0 0  0.2841666666666667 0 0  0.28875 0 0  0.2933333333333333 0 0  0.2979166666666667 0 0  0.3025 0 0  0.3070833333333334 0 0  0.3116666666666666 0 0  0.31625 0 0  0.3208333333333333 0 0  0.3254166666666667 0 0  0.33 0 0  0.3345833333333333 0 0  0.3391666666666667 0 0  0.34375 0 0  0.3483333333333333 0 0  0.3529166666666667 0 0  0.3575 0 0  0.3620833333333333 0 0  0.3666666666666667 0 0  0.37125 0 0  0.3758333333333334 0 0  0.3804166666666667 0 0  0.3850000000000001 0 0  0.3895833333333333 0 0  0.3941666666666667 0 0  0.39875 0 0  0.4033333333333334 0 0  0.4079166666666666 0 0  0.4125 0 0  0.4170833333333334 0 0  0.4216666666666667 0 0  0.42625 0 0  0.4308333333333333 0 0  0.4354166666666667 0 0  0.44 0 0  0.4445833333333333 0 0  0.4491666666666667 0 0  0.45375 0 0  0.4583333333333333 0 0  0.4629166666666666 0 0  0.4675 0 0  0.4720833333333334 0 0  0.4766666666666667 0 0  0.4812500000000001 0 0  0.4858333333333333 0 0  0.4904166666666667 0 0  0.495 0 0  0.4995833333333334 0 0  0.5041666666666667 0 0  0.50875 0 0  0.5133333333333334 0 0  0.5179166666666667 0 0  0.5225 0 0  0.5270833333333333 0 0  0.5316666666666667 0 0  0.53625 0 0  0.5408333333333333 0 0  0.5454166666666667 0 0  0.55 0 0  0.5545833333333333 0 0  0.5591666666666667 0 0  0.5637500000000001 0 0  0.5683333333333334 0 0  0.5729166666666666 0 0  0.5775 0 0  0.5820833333333334 0 0  0.5866666666666667 0 0  0.5912499999999999 0 0  0.5958333333333334 0 0  0.6004166666666667 0 0  0.605 0 0  0.6095833333333334 0 0  0.6141666666666667 0 0  0.61875 0 0  0.6233333333333333 0 0  0.6279166666666667 0 0  0.6325000000000001 0 0  0.6370833333333333 0 0  0.6416666666666666 0 0  0.64625 0 0  0.6508333333333334 0 0  0.6554166666666666 0 0  0.6599999999999999 0 0  0.6645833333333334 0 0  0.6691666666666667 0 0  0.67375 0 0  0.6783333333333333 0 0  0.6829166666666667 0 0  0.6875 0 0  0.6920833333333333 0 0  0.6966666666666667 0 0  0.70125 0 0  0.7058333333333333 0 0  0.7104166666666667 0 0  0.7150000000000001 0 0  0.7195833333333334 0 0  0.7241666666666666 0 0  0.72875 0 0  0.7333333333333334 0 0  0.7379166666666667 0 0  0.7425 0 0  0.7470833333333333 0 0  0.7516666666666667 0 0  0.75625 0 0  0.7608333333333334 0 0  0.7654166666666666 0 0  0.7700000000000001 0 0  0 0.002380952380952381 0  0.004583333333333333 0.002380952380952381 0  0.009166666666666667 0.002380952380952381 0  0.01375 0.002380952380952381 0  0.01833333333333333 0.002380952380952381 0  0.02291666666666667 0.002380952380952381 0  0.0275 0.002380952380952381 0  0.03208333333333334 0.002380952380952381 0  0.03666666666666667 0.002380952380952381 0  0.04125 0.002380952380952381 0  0.04583333333333334 0.002380952380952381 0  0.05041666666666667 0.002380952380952381 0  0.055 0.002380952380952381 0  0.05958333333333334 0.002380952380952381 0  0.06416666666666668 0.002380952380952381 0  0.06875000000000001 0.002380952380952381 0  0.07333333333333333 0.002380952380952381 0  0.07791666666666666 0.002380952380952381 0  0.08249999999999999 0.002380952380952381 0  0.08708333333333333 0.002380952380952381 0  0.09166666666666667 0.002380952380952381 0  0.09625000000000002 0.002380952380952381 0  0.1008333333333333 0.002380952380952381 0  0.1054166666666667 0.002380952380952381 0  0.11 0.002380952380952381 0  0.1145833333333333 0.002380952380952381 0  0.1191666666666667 0.002380952380952381 0  0.12375 0.002380952380952381 0  0.1283333333333334 0.002380952380952381 0  0.1329166666666667 0.002380952380952381 0  0.1375 0.002380952380952381 0  0.1420833333333333 0.002380952380952381 0  0.1466666666666667 0.002380952380952381 0  0.15125 0.002380952380952381 0  0.1558333333333333 0.002380952380952381 0  0.1604166666666667 0.002380952380952381 0  0.165 0.002380952380952381 0  0.1695833333333333 0.002380952380952381 0  0.1741666666666667 0.002380952380952381 0  0.17875 0.002380952380952381 0  0.1833333333333333 0.002380952380952381 0  0.1879166666666667 0.002380952380952381 0  0.1925 0.002380952380952381 0  0.1970833333333333 0.002380952380952381 0  0.2016666666666667 0.002380952380952381 0  0.20625 0.002380952380952381 0  0.2108333333333333 0.002380952380952381 0  0.2154166666666666 0.002380952380952381 0  0.22 0.002380952380952381 0  0.2245833333333334 0.002380952380952381 0  0.2291666666666667 0.002380952380952381 0  0.23375 0.002380952380952381 0  0.2383333333333333 0.002380952380952381 0  0.2429166666666667 0.002380952380952381 0  0.2475 0.002380952380952381 0  0.2520833333333333 0.002380952380952381 0  0.2566666666666667 0.002380952380952381 0  0.26125 0.002380952380952381 0  0.2658333333333334 0.002380952380952381 0  0.2704166666666666 0.002380952380952381 0  0.275 0.002380952380952381 0  0.2795833333333334 0.002380952380952381 0  0.2841666666666667 0.002380952380952381 0  0.28875 0.002380952380952381 0  0.2933333333333333 0.002380952380952381 0  0.2979166666666667 0.002380952380952381 0  0.3025 0.002380952380952381 0  0.3070833333333334 0.002380952380952381 0  0.3116666666666666 0.002380952380952381 0  0.31625 0.002380952380952381 0  0.3208333333333333 0.002380952380952381 0  0.3254166666666667 0.002380952380952381 0  0.33 0.002380952380952381 0  0.3345833333333333 0.002380952380952381 0  0.3391666666666667 0.002380952380952381 0  0.34375 0.002380952380952381 0  0.3483333333333333 0.002380952380952381 0  0.3529166666666667 0.002380952380952381 0  0.3575 0.002380952380952381 0  0.3620833333333333 0.002380952380952381 0  0.3666666666666667 0.002380952380952381 0  0.37125 0.002380952380952381 0  0.3758333333333334 0.002380952380952381 0  0.3804166666666667 0.002380952380952381 0  0.3850000000000001 0.002380952380952381 0  0.3895833333333333 0.002380952380952381 0  0.3941666666666667 0.002380952380952381 0  0.39875 0.002380952380952381 0  0.4033333333333334 0.002380952380952381 0  0.4079166666666666 0.002380952380952381 0  0.4125 0.002380952380952381 0  0.4170833333333334 0.002380952380952381 0  0.4216666666666667 0.002380952380952381 0  0.42625 0.002380952380952381 0  0.4308333333333333 0.002380952380952381 0  0.4354166666666667 0.002380952380952381 0  0.44 0.002380952380952381 0  0.4445833333333333 0.002380952380952381 0  0.4491666666666667 0.002380952380952381 0  0.45375 0.002380952380952381 0  0.4583333333333333 0.002380952380952381 0  0.4629166666666666 0.002380952380952381 0  0.4675 0.002380952380952381 0  0.4720833333333334 0.002380952380952381 0  0.4766666666666667 0.002380952380952381 0  0.4812500000000001 0.002380952380952381 0  0.4858333333333333 0.002380952380952381 0  0.4904166666666667 0.002380952380952381 0  0.495 0.002380952380952381 0  0.4995833333333334 0.002380952380952381 0  0.5041666666666667 0.002380952380952381 0  0.50875 0.002380952380952381 0  0.5133333333333334 0.002380952380952381 0  0.5179166666666667 0.002380952380952381 0  0.5225 0.002380952380952381 0  0.5270833333333333 0.002380952380952381 0  0.5316666666666667 0.002380952380952381 0  0.53625 0.002380952380952381 0  0.5408333333333333 0.002380952380952381 0  0.5454166666666667 0.002380952380952381 0  0.55 0.002380952380952381 0  0.5545833333333333 0.002380952380952381 0  0.5591666666666667 0.002380952380952381 0  0.5637500000000001 0.002380952380952381 0  0.5683333333333334 0.002380952380952381 0  0.5729166666666666 0.002380952380952381 0  0.5775 0.002380952380952381 0  0.5820833333333334 0.002380952380952381 0  0.5866666666666667 0.002380952380952381 0  0.5912499999999999 0.002380952380952381 0  0.5958333333333334 0.002380952380952381 0  0.6004166666666667 0.002380952380952381 0  0.605 0.002380952380952381 0  0.6095833333333334 0.002380952380952381 0  0.6141666666666667 0.002380952380952381 0  0.61875 0.002380952380952381 0  0.6233333333333333 0.002380952380952381 0  0.6279166666666667 0.002380952380952381 0  0.6325000000000001 0.002380952380952381 0  0.6370833333333333 0.002380952380952381 0  0.6416666666666666 0.002380952380952381 0  0.64625 0.002380952380952381 0  0.6508333333333334 0.002380952380952381 0  0.6554166666666666 0.002380952380952381 0  0.6599999999999999 0.002380952380952381 0  0.6645833333333334 0.002380952380952381 0  0.6691666666666667 0.002380952380952381 0  0.67375 0.002380952380952381 0  0.6783333333333333 0.002380952380952381 0  0.6829166666666667 0.002380952380952381 0  0.6875 0.002380952380952381 0  0.6920833333333333 0.002380952380952381 0  0.6966666666666667 0.002380952380952381 0  0.70125 0.002380952380952381 0  0.7058333333333333 0.002380952380952381 0  0.7104166666666667 0.002380952380952381 0  0.7150000000000001 0.002380952380952381 
[...]
<PointData  Scalars="concentration"> 
<DataArray  type="Float64"  Name="concentration"  format="ascii">0.0000000000000000e+00  8.0093773148073547e-02  2.3033800016176409e-01  1.7610017611484652e-01  -2.3243176964649368e-02  -1.3068297408835375e-01  -1.7182253462607155e-01  -1.8854021917304781e-01  -1.7740641155084466e-01  -7.9997812263600032e-02  1.1022807229044661e-02  6.8244831330192754e-03  7.3503251238625994e-03  -1.5580648297290650e-03  6.7892655444401389e-03  -1.0250399738949046e-02  1.5953878954654926e-02  -1.3535324855903155e-02  -8.6994156110867232e-03  2.2965771990071646e-02  -2.3694418817388409e-02  1.6866255382264977e-02  -1.4308506993494955e-02  2.0111631296832830e-02  -2.9364754680312796e-02  1.1274767469256142e-02  -5.2761631086865688e-03  2.5474480244670836e-03  -1.7671022250280569e-02  1.1364054801805622e-02  -2.8493045764783575e-02  1.3733640056153323e-02  -4.4206009683530126e-02  1.3625392004761013e-02  -5.7404267420621428e-02  -2.0494655250009122e-02  -7.3633318818446661e-02  -2.4481401349553189e-01  7.8144449570027719e-01  1.1537068218771354e+00  8.7696921402868511e-01  1.0898920144010928e+00  8.7812707207213225e-01  1.0803253999183249e+00  8.8167886033760889e-01  1.0787053367074402e+00  8.8317666044540133e-01  1.0782570942110825e+00  8.8392476478618798e-01  1.0791679700128187e+00  8.8410635058099096e-01  1.0815349884351588e+00  8.7946493679729276e-01  1.0530220416112439e+00  8.7587596871593054e-01  1.1022478476544568e+00  8.5623305533889982e-01  1.1468712151502640e+00  1.0035619137070342e+00  9.7920245461622168e-01  9.9918685937113771e-01  9.9378892988047673e-01  9.9358634303488425e-01  1.0441884607949263e+00  9.2321763925141931e-01  1.0109130785283986e+00  9.6256623075398928e-01  1.0670288801797376e+00  9.2992621420613264e-01  1.0812696573395753e+00  9.1735985757409377e-01  9.2891626992805221e-01  6.3104634847364882e-01  1.1659667911437315e+00  7.4882159443659835e-01  1.2806743854073090e+00  6.8268221725896683e-01  1.3162711939249971e+00  6.7236726885643749e-01  1.3170707208842225e+00  6.9001936021939692e-01  1.3104391858819007e+00  7.1227684748385145e-01  1.2935174318069385e+00  7.4621906391658743e-01  1.2300730541735838e+00  7.6559859309216105e-01  1.2184237745962656e+00  7.8311734724928206e-01  1.2154456478299571e+00  7.8838681508457198e-01  1.2117235113447762e+00  7.9163668470159798e-01  1.2089254239668932e+00  7.9382851215925088e-01  1.2068087404244001e+00  7.9551538866016336e-01  1.2050141952918370e+00  7.9718493116805134e-01  1.2030353824995776e+00  7.9942257524963756e-01  1.2000218498144508e+00  8.0315391739585762e-01  1.1943228693126968e+00  8.1006916555537489e-01  1.1824952447066541e+00  8.2349072980824922e-01  1.1574279784943176e+00  8.5084419124132082e-01  1.1081055547247103e+00  9.1692394697791413e-01  1.0627609808037375e+00  9.5293230776082594e-01  1.0245036896897624e+00  9.7748372566495467e-01  1.0035244168410251e+00  9.9100460698241466e-01  9.9638688354181448e-01  1.0007639697574353e+00  9.9372607503582511e-01  1.0140211854383288e+00  9.9739689728702785e-01  1.0327171628362029e+00  9.9178876442091646e-01  1.0563652191410575e+00  1.0193008887904262e+00  1.2638056283800574e+00  8.9004433530916649e-01  9.4234839315418883e-01  9.7023209065376204e-01  9.8877538103379681e-01  9.9673665763138053e-01  9.9992453042183227e-01  1.0009768857716481e+00  1.0011494330587400e+00  1.0010052053437941e+00  1.0007825191742989e+00  1.0005727753675122e+00  1.0004037168181665e+00  1.0002774526408655e+00  1.0001872840609067e+00  1.0001247490377900e+00  1.0000822556878817e+00  1.0000538089259141e+00  1.0000349792896990e+00  1.0000226240153731e+00  1.0000145727471950e+00  1.0000093550978053e+00  1.0000059888915152e+00  1.0000038250902250e+00  1.0000024383787731e+00  1.0000015518925038e+00  1.0000009863602268e+00  1.0000006262043419e+00  1.0000003971734728e+00  1.0000002517054469e+00  1.0000001594063532e+00  1.0000001008938280e+00  1.0000000638265261e+00  1.0000000403596849e+00  1.0000000255097905e+00  1.0000000161176614e+00  1.0000000101781601e+00  1.0000000064237611e+00  1.0000000040516126e+00  1.0000000025440805e+00  1.0000000016293595e+00  1.0000000008821794e+00  1.0000000011753432e+00  0.0000000000000000e+00  -1.8720679595096084e-02  -1.0170983368394487e-01  6.5381128066047442e-02  6.2678968972003435e-01  9.0463122596862933e-01  9.6996718384741709e-01  9.2651568212633673e-01  9.4134883563763239e-01  3.0980000833827187e-01  1.3925305403775495e-01  8.3776500866621778e-02  4.7560202125342677e-02  3.4820538680439481e-02  1.3819204366931088e-02  2.2268154852326767e-02  -7.9762417660521924e-03  1.9096357483477416e-02  9.0669684836832062e-03  -2.1926783093920012e-02  2.3862686138405156e-02  -1.8240138210559753e-02  1.2833706678214490e-02  -2.0804555824479810e-02  2.7142926430794422e-02  -1.6427053067325646e-02  3.0401835983451692e-04  -8.1875153883270348e-03  9.4190314569852808e-03  -2.1072075407374543e-02  1.5455562974797329e-02  -2.9505443310662249e-02  2.2403456483032665e-02  -4.1303622417994075e-02  2.0574346608489599e-02  -3.1879667376966882e-02  1.3275448753629633e-03  2.5435944897705506e-02  1.0822351551192258e-01  9.0971931065053788e-02  7.5412296214241459e-01  3.0480376862296160e-01  8.1142646956356079e-01  3.1059526768931878e-01  8.0800607337119423e-01  3.1021208663946465e-01  8.0439885391805854e-01  3.1274525617773014e-01  8.0229323150315224e-01  3.1813047011220974e-01  8.0420870192411331e-01  3.2778955484668515e-01  8.1481234565623328e-01  3.4116356305986911e-01  7.3289698533674408e-01  3.0332153287490510e-01  7.5728981846413257e-01  3.2106389890390230e-01  8.3271361328750981e-01  1.0506524563641169e+00  1.0009106216737871e+00  9.9924538524650297e-01  9.8471484689412248e-01  9.4748573195834473e-01  1.0953215256521180e+00  9.0724241228312141e-01  9.4270913412913004e-01  8.2424369206295278e-01  1.0061730179256025e+00  8.2152596799654787e-01  1.0291123153210682e+00  9.1723128073728721e-01  1.0100889234726975e+00  1.8800904076680092e-01  3.1055037369141231e-01  -1.0694863688416295e-01  2.9995962356878603e-01  -1.8763877178065197e-01  2.7960791599743173e-01  -2.0590579267311904e-01  2.6103737903045721e-01  -2.0948319246787669e-01  2.5009253774709317e-01  -1.9639227686528168e-01  2.4118035593275353e-01  -1.5223264105299217e-01  2.0659208673793106e-01  -1.4767175263192558e-01  1.8886722278514867e-01  -1.5642405148702582e-01  1.7974314764102314e-01  -1.6098565100384196e-01  1.7468251744941526e-01  -1.6309762632221053e-01  1.7192923257251239e-01  -1.6379565071852870e-01  1.7040920112177446e-01  -1.6352015344339579e-01  1.6943568345851812e-01  -1.6228796967005399e-01  1.6839289419756695e-01  -1.5975342303235091e-01  1.6634229831636491e-01  -1.5514072876688728e-01  1.6133338191492355e-01  -1.4705573986906664e-01  1.4891525390566007e-01  -1.3323197263538075e-01  1.1889486871065454e-01  -1.1056324668170271e-01  4.9731866892606003e-02  -7.5798678936019548e-02  2.1512864145395535e-02  -3.8777690956928082e-02  3.9512627089385117e-04  -2.4168996001201506e-02  -1.5471659213958282e-02  -2.1609750525298867e-02  -2.3412684466468037e-02  -1.5631766064962398e-02  -2.2578754641037826e-02  4.6964678992527306e-03  3.6555160431809347e-03  4.5578874596381151e-02  2.0191023769221977e-02  8.9577470531101072e-02  4.7754866369418203e-03  2.2327052544656711e-01  4.2989059543476432e-01  6.4189253882950992e-01  7.7871807884826161e-01  8.6203160676459367e-01  9.1353755564990746e-01  9.4565495369440156e-01  9.6578273475010257e-01  9.7843317710821631e-01  9.8639781865498566e-01  9.9141765083464117e-01  9.9458358484616660e-01  9.9658113000588266e-01  9.9784180901632813e-01  9.9863756644360735e-01  9.9913990399272834e-01  9.9945702860745866e-01  9.9965723178363419e-01  9.9978362114454677e-01  9.9986341023210634e-01  9.9991377963829897e-01  9.9994557610117296e-01  9.9996564754613249e-01  9.9997831723985420e-01  9.9998631450342057e-01  9.9999136233594932e-01  9.9999454841979984e-01  9.9999655935861809e-01  9.9999782855950980e-01  9.9999862959652364e-01  9.9999913514807071e-01  9.9999945420668779e-01  9.9999965556318005e-01  9.9999978263676814e-01  9.9999986282861208e-01  9.9999991343489125e-01  9.9999994536857628e-01  9.9999996551877268e-01  9.9999997823507247e-01  9.9999998624624786e-01  9.9999999131499839e-01  9.9999999453063892e-01  0.0000000000000000e+00  5.9597574491117365e-04  -1.5850425550432930e-02  1.7260743541584553e-01  5.8485452658639178e-02  6.2621653921193746e-02  5.3112484482112941e-02  7.2303524275135533e-02  2.1952957963246377e-02  -4.0588031329529636e-02  -3.6866464917517744e-02  -2.7593632974439088e-02  -1.4542160941029676e-02  -1.4772641418991305e-02  -2.1798577419032831e-03  -1.4244044524580751e-02  1.1734291117996714e-02  -2.1239104351323739e-02  6.2813303494681878e-04  2.3775366742044494e-02  -2.6473559790109305e-02  2.1823228779853193e-02  -1.5099672089040249e-02  1.6232303075940601e-02  -3.1858216531950832e-02  2.2526712824004029e-02  -2.6679805586839089e-03  3.6723467775448379e-03  -1.2294538552180188e-02  1.7307521281673396e-02  -2.0945009998575809e-02  2.4001421889324564e-02  -2.8859842536902876e-02  3.6503858316133682e-02  -3.1225409267068412e-02  3.3504403306241708e-02  -2.5171510303745640e-03  1.4874382827661120e-02  -3.0544218415923464e-02  2.8610208736825522e-02  -8.3406794306750270e-02  -1.5352553365663494e-02  -7.3983914802672635e-02  -6.1680105075492949e-03  -6.7803676398530757e-02  -2.5921096817232937e-03  -6.4257489226828265e-02  -2.2914212694571108e-03  -6.0790585771892412e-02  -2.0177830666334401e-03  -5.5820998636526890e-02  3.7417934605269913e-03  -4.4178380254422778e-02  3.0027507758313195e-02  9.4297991092985220e-04  4.5342883957572744e-02  -2.9472456780274367e-02  1.7855065842392225e-02  -2.9115838270167321e-02  -3.4526492025398925e-02  -3.6067896754318146e-03  -4.2486674386997990e-03  8.8386015998832453e-03  2.1899541239012714e-02  -5.5634590101647251e-02  8.7047211617450243e-02  5.6438147904776449e-02  8.7108104704832809e-02  -4.6033456988110524e-02  1.5703016594806038e-02  -1.3113331353203897e-01  -6.4499825336910427e-02  -1.5110061622290966e-01  2.4142613538597528e-02  -1.6611096647142620e-01  2.1063571689252861e-01  -2.4036527576136535e-01  2.3850422071748523e-01  -2.5930360261654267e-01  2.3249247758006711e-01  -2.5873696705938026e-01  2.2463086015400716e-01  -2.5726090884887926e-01  2.0745489667913250e-01  -2.4944059641871205e-01  1.7410874610757643e-01  -2.0113192497158816e-01  1.6943672817492164e-01  -1.8103616963330552e-01  1.8087728924733007e-01  -1.7146088181443284e-01  1.8517022204762845e-01  -1.6764650520835181e-01  1.8609056068361549e-01  -1.6628607057352809e-01  1.8582006969283263e-01  -1.6553507639345239e-01  1.8536190582871531e-01  -1.6431967097810443e-01  1.8504735400924205e-01  -1.6177565404533725e-01  1.8476512461925579e-01  -1.5676353081520747e-01  1.8390694867975052e-01  -1.4726898170669134e-01  1.8095030171621893e-01  -1.2936992532532793e-01  1.7239454355660938e-01  -9.5388468449347633e-02  1.5031035858151146e-01  -3.2140398717233822e-02  9.6075027658511794e-02  -1.6479339138132751e-02  4.4419201620311356e-02  -2.9345262038828943e-03  2.0147802314925366e-02  5.7402695319481358e-03  7.7585625476962686e-03  4.0266098190936501e-03  -8.1877468062619124e-03  -4.7234630843343648e-03  -3.3106873559854318e-02  -2.7528357415024372e-02  -5.9905176657743885e-02  -2.1874924828486901e-02  -7.3380079414837707e-02  3.1242409280511009e-02  -7.2715474771980329e-02  1.2228832681810774e-01  4.4272204913856955e-01  6.5435034719675433e-01  7.8528032696039707e-01  8.6627625412046461e-01  9.1646897579842923e-01  9.4767706729673606e-01  9.6714782941675659e-01  9.7933307077545906e-01  9.8697856655226868e-01  9.9178568665514399e-01  9.9481319955051795e-01  9.9672241586849364e-01  9.9792764493778419e-01  9.9868908016296487e-01  9.9917044040297709e-01  9.9947489546329993e-01  9.9966753562508059e-01  9.9978946437112637e-01  9.9986665662144325e-01  9.9991553628494800e-01  9.9994649284928205e-01  9.9996610087979032e-01  9.9997852201297144e-01  9.9998639112897669e-01  9.9999137677358507e-01  9.9999453571616137e-01  9.9999653734137905e-01  9.9999780569555941e-01  9.9999860942964680e-01  9.9999911875466763e-01  9.9999944152055831e-01  9.9999964606389091e-01  9.9999977568966936e-01  9.9999985783683787e-01  9.9999990989664267e-01  9.9999994288692495e-01  9.9999996379218825e-01  9.9999997703652188e-01  9.9999998544392676e-01  9.9999999070789103e-01  0.0000000000000000e+00  -4.8995008111368792e-03  3.6121574975670472e-02  -8.7542171569661154e-02  -5.6232371029452570e-03  -9.8668138825439081e-03  -7.2696697663362916e-03  -3.8783352721012028e-02  -4.0724927763422444e-02  -1.1068674992369970e-02  1.1178830864636347e-03  5.9917707010395610e-03  1.8076817201445722e-03  6.8053422444242489e-03  -2.0353822480087373e-03  9.1832140709389738e-03  -1.3431745546717513e-02  2.4543544141790528e-02  -1.9364857769375191e-02  -2.5335524766771412e-02  3.0249314864178430e-02  -2.9546623064505180e-02  1.7851711948515071e-02  -1.1592914434990087e-02  3.2420978765922391e-02  -4.0020510677544821e-02  2.6462851315161955e-03  -1.5007228790372717e-03  9.8531804134786936e-03  -1.8328751880233099e-02  2.1868532413947823e-02  -2.3308277597828882e-02  3.0143063102964131e-02  -3.6249603400683859e-02  4.1513580708468077e-02  -3.7361090579539437e-02  1.7780566885811908e-02  -1.6419540251167378e-02  2.1944121728095005e-02  -3.7318383372213618e-02  4.3567894603759566e-02  -1.4313061774471064e-02  3.3682083946588622e-02  -2.1890690542166091e-02  2.8046641284607841e-02  -2.5681870732881987e-02  2.3225175208187114e-02  -2.7993745139508995e-02  1.7277001180847271e-02  -3.1375955506185584e-02  9.1994946059979609e-03  -4.0884616713552771e-02  -3.9478077090333600e-03  -6.7110162767761383e-02  -4.3815537392983814e-02  -2.7417689201458317e-02  7.3256459134792867e-02  8.6794982694954073e-02  1.2378753413038021e-01  8.8265569194002316e-02  4.7196656748559870e-02  3.9763920565931900e-02  1.4663425789329575e-02  -2.6221876802741979e-03  5.7555888296781543e-02  -1.0866312307684517e-01  -7.3109932579856957e-02  -8.8467296570054643e-02  8.1351625471344613e-02  3.2110993663784587e-02  2.0226270646735056e-01  1.0477271247099967e-01  1.7485469156156069e-01  7.3389773342487155e-03  1.6996708198461788e-01  -1.8721404798287658e-01  2.7147101038675409e-01  -2.7879957969333746e-01  2.1180104309131034e-01  -3.5384082722080479e-01  1.4613732342844171e-01  -4.0139865859059831e-01  9.8806975012899034e-02  -4.2886772518027633e-01  4.9209751761943199e-02  -4.4694307701566255e-01  -5.4820095429017487e-02  -4.0866063764906030e-01  2.4951442328826883e-03  -3.6130891794017428e-01  3.9919224915828423e-02  -3.2919437433458443e-01  6.5604488829178575e-02  -3.0683172801465791e-01  8.3521180766973624e-02  -2.9100732878861807e-01  9.6025515707038198e-02  -2.7949916132851849e-01  1.0469090235870834e-01  -2.7049289727517717e-01  1.1056969811048110e-01  -2.6218283431016542e-01  1.1425462171604048e-01  -2.5222728468304950e-01  1.1583964315014758e-01  -2.3670071549327218e-01  1.1481790312487769e-01  -2.0780725689937637e-01  1.1019800305316024e-01  -1.4856699934794393e-01  1.0310985526895317e-01  -1.9093907651775325e-02  1.3736365879336945e-01  8.5935626894092357e-02  1.6033616340706761e-01  1.5009047334207268e-01  1.8639598505183069e-01  2.0301177958349961e-01  2.2895811263220261e-01  2.6168842690011412e-01  2.7791601861460796e-01  3.2174806450084481e-01  2.7286936583492410e-01  2.5836961719427332e-01  2.0374315334393245e-01  2.0340032618770471e-01  6.4035061469592369e-02  1.9255513503611771e-01  3.5419807311445345e-01  5.6651808832340123e-01  7.2666180083359400e-01  8.3019877368671813e-01  8.9480295849310165e-01  9.3471948420874762e-01  9.5936787161608039e-01  9.7463002258393638e-01  9.8411483480316819e-01  9.9003028408749194e-01  9.9373105704628328e-01  9.9605221795387788e-01  9.9751104324904527e-01  9.9842936893467960e-01  9.9900817319925816e-01  9.9937333633847736e-01  9.9960388794733923e-01  9.9974953537844757e-01  9.9984158779876708e-01  9.9989978773163846e-01  9.9993659483675068e-01  9.9995987774533301e-01  9.9997460830926699e-01  9.9998392931078739e-01  9.9998982798870462e-01  9.9999356122972871e-01  9.9999592414975302e-01  9.9999741982540669e-01  9.9999836659989993e-01  9.9999896593803228e-01  9.9999934535013202e-01  9.9999958554270174e-01  9.9999973760389149e-01  9.9999983387085023e-01  9.9999989481717211e-01  9.9999993340018534e-01  9.9999995782684614e-01  9.9999997328771140e-01  9.9999998307896742e-01  9.9999998924894185e-01  9.9999999319047361e-01  0.0000000000000000e+00  9.2710994149402311e-03  -3.4169368483655108e-02  4.8370108440036572e-02  -7.6747557277650636e-03  -5.7725008640195702e-03  -1.5362658832161287e-02  1.2908007472493207e-03  1.5231846681111777e-02  8.7799928171308252e-03  4.2224128147491779e-03  -1.1066939533507058e-03  1.6232784937662340e-03  -3.0533422859073621e-03  5.3171728813215012e-03  -1.8680685927379588e-03  1.6995656570904787e-02  -2.3581164234126820e-02  5.0970225402856673e-02  2.3028663621386090e-02  -3.6973674631504215e-02  4.0166850857287821e-02  -2.4549811069130782e-02  6.0198179620259661e-03  -2.6792664917624144e-02  6.7504052000073519e-02  -8.4611769163256256e-03  -5.7501955210297866e-03  -9.4821760290062975e-03  1.5582940781987787e-02  -2.7247288528739005e-02  1.8929002856153548e-02  -3.3767222162433913e-02  3.3854258056082998e-02  -5.3080256900388118e-02  4.5247533569035062e-02  -3.6429811413950471e-02  1.9014757734759351e-02  -2.1005646895852666e-02  2.9294554351580536e-02  -3.1851675349198812e-02  1.4204455953027462e-02  -2.6941750556611164e-02  1.5601224210609534e-02  -2.6606797356245621e-02  1.3497411313157133e-02  -2.7932133462510739e-02  8.0985923590053011e-03  -3.1436549386166052e-02  -1.4809988279358705e-03  -4.0387382606471255e-02  -1.6522562930883101e-02  -6.3203438804620773e-02  -4.4694144394424880e-02  -1.2772988617704481e-01  -9.1221035449274429e-02  -4.8875653891058093e-02  -6.6194225856097924e-02  4.9813038416576895e-02  7.9432899280457072e-03  7.6742296392098997e-03  -1.9464458159225942e-02  -1.6433144521647132e-02  -2.9413991982324240e-02  -1.0593208426492633e-01  5.4235297388818465e-02  -6.5864133320659504e-02  5.3871106056601309e-02  -4.5151788386394977e-02  3.2519534513938969e-01  -1.5302807046151196e-02  6.3528907540356072e-01  4.6568180115455848e-01  1.1421369466731679e+00  4.6377126538252722e-01  9.1033338360729543e-01  1.7574308433396754e-01  1.0034995947838905e+00  1.9725167870738254e-02  8.8173278250871967e-01  -1.8662762276726756e-02  8.4576397293319661e-01  -2.8203720190552138e-02  8.2957880154257135e-01  -3.3651342682145834e-02  8.0676091722932908e-01  -1.4260338219682081e-01  1.0760090512208362e+00  -1.1802014997377132e-01  1.0808021053693184e+00  -1.2212938304943065e-01  1.0758536443892071e+00  -1.2784800150812128e-01  1.0703019866337125e+00  -1.3273005294035498e-01  1.0655724852038488e+00  -1.3621791210948606e-01  1.0618395031086196e+00  -1.3820012659018527e-01  1.0588282628567982e+00  -1.3850608510576787e-01  1.0560228122836259e+00  -1.3655189486704630e-01  1.0525902177794273e+00  -1.3090752502814682e-01  1.0469486961455614e+00  -1.1865319578210855e-01  1.0353973260414076e+00  -9.4969616910894464e-02  1.0070776503270262e+00  -5.6496489215595559e-02  9.3848893287288315e-01  4.2449605946276148e-01  1.0643143013878427e+00  8.1798747296704988e-01  1.0676931393419120e+00  9.4248519660150898e-01  1.0098939191704039e+00  9.5598014651434426e-01  9.6677158569601007e-01  9.6505352052610005e-01  9.5650992829476789e-01  1.1456044763199276e+00  1.0993907699196792e+00  1.1619164903840493e+00  1.0233665061663082e+00  6.2979508193214728e-01  5.2886167596988731e-01  6.3050463321894701e-01  7.4766541484090376e-01  8.4137698915648296e-01  9.0268451427074492e-01  9.4060497632654494e-01  9.6366843387447954e-01  9.7766793614671932e-01  9.8619988983214146e-01  9.9143059791710508e-01  9.9465672802519756e-01  9.9665715875659078e-01  9.9790311106994689e-01  9.9868193569117214e-01  9.9917015016580291e-01  9.9947687227538096e-01  