<?xml version="1.0"?>
<VTKFile type="UnstructuredGrid"  version="0.1"  >
<UnstructuredGrid>
<Piece  NumberOfPoints="21400" NumberOfCells="42336">
<Points>
<DataArray  type="Float64"  NumberOfComponents="3"  format="ascii">0 0 0  0.004583333333333333 0 0  0.009166666666666667 0 0  0.01375 0 0  0.01833333333333333 0 0  0.02291666666666667 0 0  0.0275 0 0  0.03208333333333334 0 0  0.03666666666666667 0 0  0.04125 0 0  0.04583333333333334 0 0  0.05041666666666667 0 0  0.055 0 0  0.05958333333333334 0 0  0.06416666666666668 0 0  0.06875000000000001 0 0  0.07333333333333333 0 0  0.07791666666666666 0 0  0.08249999999999999 0 0  0.08708333333333333 0 0  0.09166666666666667 0 0  0.09625000000000002 0 0  0.1008333333333333 0 0  0.1054166666666667 0 0  0.11 0 0  0.1145833333333333 0 0  0.1191666666666667 0 0  0.12375 0 0  0.1283333333333334 0 0  0.1329166666666667 0 0  0.1375 0 0  0.1420833333333333 0 0  0.1466666666666667 0 0  0.15125 0 0  0.1558333333333333 0 0  0.1604166666666667 0 0  0.165 0 0  0.1695833333333333 0 0  0.1741666666666667 0 0  0.17875 0 0  0.1833333333333333 0 0  0.1879166666666667 0 0  0.1925 0 0  0.1970833333333333 0 0  0.2016666666666667 0 0  0.20625 0 0  0.2108333333333333 0 0  0.2154166666666666 0 0  0.22 0 0  0.2245833333333334 0 0  0.2291666666666667 0 0  0.23375 0 0  0.2383333333333333 0 0  0.2429166666666667 0 0  0.2475 0 0  0.2520833333333333 0 0  0.2566666666666667 0 0  0.26125 0 0  0.2658333333333334 0 0  0.2704166666666666 0 0  0.275 0 0  0.2795833333333334 0 0  0.2841666666666667 0 0  0.28875 0 0  0.2933333333333333 0 0  0.2979166666666667 0 0  0.3025 0 0  0.3070833333333334 0 0  0.3116666666666666 0 0  0.31625 0 0  0.3208333333333333 0 0  0.3254166666666667 0 0  0.33 0 0  0.3345833333333333 0 0  0.3391666666666667 0 0  0.34375 0 0  0.3483333333333333 0 0  0.3529166666666667 0 0  0.3575 0 0  0.3620833333333333 0 0  0.3666666666666667 0 0  0.37125 0 0  0.3758333333333334 0 0  0.3804166666666667 0 0  0.3850000000000001 0 0  0.3895833333333333 0 0  0.3941666666666667 0 0  0.39875 0 0  0.4033333333333334 0 0  0.4079166666666666 0 0  0.4125 0 0  0.4170833333333334 0 0  0.4216666666666667 0 0  0.42625 0 0  0.4308333333333333 0 0  0.4354166666666667 0 0  0.44 0 0  0.4445833333333333 0 0  0.4491666666666667 0 0  0.45375 0 0  0.4583333333333333 0 0  0.4629166666666666 0 0  0.4675 0 0  0.4720833333333334 0 0  0.4766666666666667 0 0  0.4812500000000001 0 0  0.4858333333333333 0 0  0.4904166666666667 0 0  0.495 0 0  0.4995833333333334 0 0  0.5041666666666667 0 0  0.50875 0 0  0.5133333333333334 0 0  0.5179166666666667 0 0  0.5225 0 0  0.5270833333333333 0 0  0.5316666666666667 0 0  0.53625 0 0  0.5408333333333333 0 0  0.5454166666666667 0 0  0.55 0 0  0.5545833333333333 0 0  0.5591666666666667 0 0  0.5637500000000001 0 0  0.5683333333333334 0 0  0.5729166666666666 0 0  0.5775 0 0  0.5820833333333334 0 0  0.5866666666666667 0 0  0.5912499999999999 0 0  0.5958333333333334 0 0  0.6004166666666667 0 0  0.605 0 0  0.6095833333333334 0 0  0.6141666666666667 0 0  0.61875 0 0  0.6233333333333333 0 0  0.6279166666666667 0 0  0.6325000000000001 0 0  0.6370833333333333 0 0  0.6416666666666666 0 0  0.64625 0 0  0.6508333333333334 0 0  0.6554166666666666 0 0  0.6599999999999999 0 0  0.6645833333333334 0 0  0.6691666666666667 0 0  0.67375 0 0  0.6783333333333333 0 0  0.6829166666666667 0 0  0.6875 0 0  0.6920833333333333 0 0  0.6966666666666667 0 0  0.70125 0 0  0.7058333333333333 0 0  0.7104166666666667 0 0  0.7150000000000001 0 0  0.7195833333333334 0 0  0.7241666666666666 0 0  0.72875 0 0  0.7333333333333334 0 0  0.7379166666666667 0 0  0.7425 0 0  0.7470833333333333 0 0  0.7516666666666667 0 0  0.75625 0 0  0.7608333333333334 0 0  0.7654166666666666 0 0  0.7700000000000001 0 0  0 0.002380952380952381 0  0.004583333333333333 0.002380952380952381 0  0.009166666666666667 0.002380952380952381 0  0.01375 0.002380952380952381 0  0.01833333333333333 0.002380952380952381 0  0.02291666666666667 0.002380952380952381 0  0.0275 0.002380952380952381 0  0.03208333333333334 0.002380952380952381 0  0.03666666666666667 0.002380952380952381 0  0.04125 0.002380952380952381 0  0.04583333333333334 0.002380952380952381 0  0.05041666666666667 0.002380952380952381 0  0.055 0.002380952380952381 0  0.05958333333333334 0.002380952380952381 0  0.06416666666666668 0.002380952380952381 0  0.06875000000000001 0.002380952380952381 0  0.07333333333333333 0.002380952380952381 0  0.07791666666666666 0.002380952380952381 0  0.08249999999999999 0.002380952380952381 0  0.08708333333333333 0.002380952380952381 0  0.09166666666666667 0.002380952380952381 0  0.09625000000000002 0.002380952380952381 0  0.1008333333333333 0.002380952380952381 0  0.1054166666666667 0.002380952380952381 0  0.11 0.002380952380952381 0  0.1145833333333333 0.002380952380952381 0  0.1191666666666667 0.002380952380952381 0  0.12375 0.002380952380952381 0  0.1283333333333334 0.002380952380952381 0  0.1329166666666667 0.002380952380952381 0  0.1375 0.002380952380952381 0  0.1420833333333333 0.002380952380952381 0  0.1466666666666667 0.002380952380952381 0  0.15125 0.002380952380952381 0  0.1558333333333333 0.002380952380952381 0  0.1604166666666667 0.002380952380952381 0  0.165 0.002380952380952381 0  0.1695833333333333 0.002380952380952381 0  0.1741666666666667 0.002380952380952381 0  0.17875 0.002380952380952381 0  0.1833333333333333 0.002380952380952381 0  0.1879166666666667 0.002380952380952381 0  0.1925 0.002380952380952381 0  0.1970833333333333 0.002380952380952381 0  0.2016666666666667 0.002380952380952381 0  0.20625 0.002380952380952381 0  0.2108333333333333 0.002380952380952381 0  0.2154166666666666 0.002380952380952381 0  0.22 0.002380952380952381 0  0.2245833333333334 0.002380952380952381 0  0.2291666666666667 0.002380952380952381 0  0.23375 0.002380952380952381 0  0.2383333333333333 0.002380952380952381 0  0.2429166666666667 0.002380952380952381 0  0.2475 0.002380952380952381 0  0.2520833333333333 0.002380952380952381 0  0.2566666666666667 0.002380952380952381 0  0.26125 0.002380952380952381 0  0.2658333333333334 0.002380952380952381 0  0.2704166666666666 0.002380952380952381 0  0.275 0.002380952380952381 0  0.2795833333333334 0.002380952380952381 0  0.2841666666666667 0.002380952380952381 0  0.28875 0.002380952380952381 0  0.2933333333333333 0.002380952380952381 0  0.2979166666666667 0.002380952380952381 0  0.3025 0.002380952380952381 0  0.3070833333333334 0.002380952380952381 0  0.3116666666666666 0.002380952380952381 0  0.31625 0.002380952380952381 0  0.3208333333333333 0.002380952380952381 0  0.3254166666666667 0.002380952380952381 0  0.33 0.002380952380952381 0  0.3345833333333333 0.002380952380952381 0  0.3391666666666667 0.002380952380952381 0  0.34375 0.002380952380952381 0  0.3483333333333333 0.002380952380952381 0  0.3529166666666667 0.002380952380952381 0  0.3575 0.002380952380952381 0  0.3620833333333333 0.002380952380952381 0  0.3666666666666667 0.002380952380952381 0  0.37125 0.002380952380952381 0  0.3758333333333334 0.002380952380952381 0  0.3804166666666667 0.002380952380952381 0  0.3850000000000001 0.002380952380952381 0  0.3895833333333333 0.002380952380952381 0  0.3941666666666667 0.002380952380952381 0  0.39875 0.002380952380952381 0  0.4033333333333334 0.002380952380952381 0  0.4079166666666666 0.002380952380952381 0  0.4125 0.002380952380952381 0  0.4170833333333334 0.002380952380952381 0  0.4216666666666667 0.002380952380952381 0  0.42625 0.002380952380952381 0  0.4308333333333333 0.002380952380952381 0  0.4354166666666667 0.002380952380952381 0  0.44 0.002380952380952381 0  0.4445833333333333 0.002380952380952381 0  0.4491666666666667 0.002380952380952381 0  0.45375 0.002380952380952381 0  0.4583333333333333 0.002380952380952381 0  0.4629166666666666 0.002380952380952381 0  0.4675 0.002380952380952381 0  0.4720833333333334 0.002380952380952381 0  0.4766666666666667 0.002380952380952381 0  0.4812500000000001 0.002380952380952381 0  0.4858333333333333 0.002380952380952381 0  0.4904166666666667 0.002380952380952381 0  0.495 0.002380952380952381 0  0.4995833333333334 0.002380952380952381 0  0.5041666666666667 0.002380952380952381 0  0.50875 0.002380952380952381 0  0.5133333333333334 0.002380952380952381 0  0.5179166666666667 0.002380952380952381 0  0.5225 0.002380952380952381 0  0.5270833333333333 0.002380952380952381 0  0.5316666666666667 0.002380952380952381 0  0.53625 0.002380952380952381 0  0.5408333333333333 0.002380952380952381 0  0.5454166666666667 0.002380952380952381 0  0.55 0.002380952380952381 0  0.5545833333333333 0.002380952380952381 0  0.5591666666666667 0.002380952380952381 0  0.5637500000000001 0.002380952380952381 0  0.5683333333333334 0.002380952380952381 0  0.5729166666666666 0.002380952380952381 0  0.5775 0.002380952380952381 0  0.5820833333333334 0.002380952380952381 0  0.5866666666666667 0.002380952380952381 0  0.5912499999999999 0.002380952380952381 0  0.5958333333333334 0.002380952380952381 0  0.6004166666666667 0.002380952380952381 0  0.605 0.002380952380952381 0  0.6095833333333334 0.002380952380952381 0  0.6141666666666667 0.002380952380952381 0  0.61875 0.002380952380952381 0  0.6233333333333333 0.002380952380952381 0  0.6279166666666667 0.002380952380952381 0  0.6325000000000001 0.002380952380952381 0  0.6370833333333333 0.002380952380952381 0  0.6416666666666666 0.002380952380952381 0  0.64625 0.002380952380952381 0  0.6508333333333334 0.002380952380952381 0  0.6554166666666666 0.002380952380952381 0  0.6599999999999999 0.002380952380952381 0  0.6645833333333334 0.002380952380952381 0  0.6691666666666667 0.002380952380952381 0  0.67375 0.002380952380952381 0  0.6783333333333333 0.002380952380952381 0  0.6829166666666667 0.002380952380952381 0  0.6875 0.002380952380952381 0  0.6920833333333333 0.002380952380952381 0  0.6966666666666667 0.002380952380952381 0  0.70125 0.002380952380952381 0  0.7058333333333333 0.002380952380952381 0  0.7104166666666667 0.002380952380952381 0  0.7150000000000001 0.002380952380952381 
[...]
<PointData  Scalars="concentration"> 
<DataArray  type="Float64"  Name="concentration"  format="ascii">0.0000000000000000e+00  8.0097847337970554e-02  2.3034367085364749e-01  1.7611070413534385e-01  -2.3235050990693402e-02  -1.3066221370429748e-01  -1.7179939828852248e-01  -1.8850189360638722e-01  -1.7736475505862914e-01  -7.9902683756395587e-02  1.1089317049171040e-02  6.9514144146288715e-03  7.4544011041278594e-03  -1.3496412357242493e-03  6.9593895522719528e-03  -9.9098766874852924e-03  1.6228212587940171e-02  -1.2939544827377508e-02  -8.2966526236831172e-03  2.3905737856242934e-02  -2.2984588872896693e-02  1.8368703463257665e-02  -1.3194567834350192e-02  2.2687847957622752e-02  -2.7535861640726654e-02  1.5435292980065594e-02  -2.4828931335639810e-03  9.7149250063607410e-03  -1.3355998155496695e-02  2.3576857525371604e-02  -2.1940540967048085e-02  3.5617791191920350e-02  -3.4451777151343628e-02  5.5601833918318168e-02  -3.8459313204825006e-02  4.4714235803789587e-01  9.9199070307562431e-01  1.0468035547675747e+00  1.0256021110075937e+00  1.1520796608677650e+00  8.7815853605699645e-01  1.0920156840287467e+00  8.7532814338409515e-01  1.0836132700515948e+00  8.7638242939601518e-01  1.0836531663586992e+00  8.7511515028710951e-01  1.0852948406860692e+00  8.7227374345951159e-01  1.0881317918314843e+00  8.6769431171831291e-01  1.0908452142951996e+00  8.5371920789396794e-01  1.0654818538447015e+00  8.4993518917232225e-01  1.1360835819077639e+00  8.1565796059990070e-01  1.2239765940252654e+00  9.5921979992665574e-01  9.8353288223026358e-01  9.6654722337397492e-01  9.9523720290713080e-01  9.3970678903151728e-01  1.1696799876598423e+00  9.6242837998544206e-01  9.6689526474828846e-01  9.4513924457238740e-01  1.1009604743840056e+00  8.7922773451716196e-01  1.0877627042023565e+00  9.3201589049963041e-01  9.7613576339990404e-01  6.6833951254427837e-01  1.1432031198299184e+00  7.5495908750132112e-01  1.2465376999772917e+00  7.2926978653902974e-01  1.2316085833121662e+00  7.1221111894792877e-01  1.2818616187520750e+00  7.4015825220503684e-01  1.2709013609628290e+00  7.6004224871343662e-01  1.2172525093841835e+00  7.7557877050752377e-01  1.2107549148762207e+00  7.8961600695768441e-01  1.2093412509203523e+00  7.9366466399997204e-01  1.2061580033580688e+00  7.9725419732247549e-01  1.2021577759106359e+00  8.0182168638844264e-01  1.1957247684819761e+00  8.0926120108111543e-01  1.1833676483682192e+00  8.2301543959542212e-01  1.1579137513038074e+00  8.5058648538956538e-01  1.1082959273855151e+00  9.1693699880231205e-01  1.0629080870452967e+00  9.5289930542938273e-01  1.0245646276980060e+00  9.7750281192328092e-01  1.0035514333060414e+00  9.9102431934147461e-01  9.9640808650312163e-01  1.0007914325877671e+00  9.9374498367377762e-01  1.0140510571167258e+00  9.9739550294890311e-01  1.0327229458543439e+00  9.9180166781808377e-01  1.0563675419010961e+00  1.0192993431951758e+00  1.2638120083230879e+00  8.9003404348491288e-01  9.4235407874861876e-01  9.7023469239858762e-01  9.8877660284426661e-01  9.9673727285146230e-01  9.9992486480094789e-01  1.0009770789041263e+00  1.0011495489169844e+00  1.0010052762779942e+00  1.0007825630332625e+00  1.0005728026014726e+00  1.0004037337557556e+00  1.0002774631797959e+00  1.0001872906194831e+00  1.0001247531202810e+00  1.0000822582303952e+00  1.0000538105107164e+00  1.0000349802788051e+00  1.0000226246337360e+00  1.0000145731346495e+00  1.0000093553412346e+00  1.0000059890450330e+00  1.0000038251874654e+00  1.0000024384408193e+00  1.0000015519324199e+00  1.0000009863863681e+00  1.0000006262217755e+00  1.0000003971856761e+00  1.0000002517143232e+00  1.0000001594135772e+00  1.0000001008999821e+00  1.0000000638327327e+00  1.0000000403658853e+00  1.0000000255171011e+00  1.0000000161256342e+00  1.0000000101880318e+00  1.0000000064352863e+00  1.0000000040640908e+00  1.0000000025661855e+00  1.0000000016201334e+00  1.0000000010227263e+00  1.0000000006455287e+00  1.0000000004074037e+00  1.0000000002570781e+00  1.0000000001622005e+00  1.0000000001023017e+00  1.0000000000645022e+00  1.0000000000406444e+00  1.0000000000255094e+00  1.0000000000163252e+00  1.0000000000088467e+00  1.0000000000117413e+00  0.0000000000000000e+00  -1.8721104831314853e-02  -1.0170771249649224e-01  6.5383886793844465e-02  6.2680423954243836e-01  9.0464041538520334e-01  9.6999499243176368e-01  9.2654265237680866e-01  9.4140098886108314e-01  3.0982933831059650e-01  1.3932943976243087e-01  8.3834145777712893e-02  4.7692436726405107e-02  3.4916995552080485e-02  1.4038097345591527e-02  2.2427150440092671e-02  -7.6166716992804731e-03  1.9316450246436329e-02  9.6909694685831313e-03  -2.1557896524167734e-02  2.4810864236307219e-02  -1.7625907607294513e-02  1.4387646241979191e-02  -1.9963733316456761e-02  2.9632847871535556e-02  -1.5070190201458028e-02  4.4523192457215826e-03  -6.4261355296782860e-03  1.6343444751959812e-02  -1.8840975152347207e-02  2.7010744891388213e-02  -2.7784515358383634e-02  4.2410830781346984e-02  -4.3127665617043912e-02  5.2837406018591063e-02  -5.7732641001081518e-02  1.6785807319118110e-02  4.1816256841972670e-03  7.5041487432279869e-02  7.0587792544775582e-02  7.4369664235112132e-01  2.9969293090279420e-01  8.0834183733988207e-01  3.1020524154807433e-01  8.0620019191471282e-01  3.1164297199455482e-01  8.0234234955059047e-01  3.1541298564890247e-01  7.9883975627697001e-01  3.2202139300910915e-01  7.9576718215690656e-01  3.3166749152938768e-01  7.9279043957036566e-01  3.3314096791240416e-01  6.9086992753858967e-01  2.9270901683040917e-01  7.3350783811616893e-01  3.0625708484194047e-01  8.4004692754460353e-01  1.0211620356649991e+00  1.0264826102105353e+00  9.5290742097081471e-01  9.6965591325964118e-01  7.4263775438578172e-01  1.1217873261294320e+00  1.0791489003753705e+00  1.0373576775174878e+00  8.5931528602857776e-01  1.1339900093493007e+00  8.4038474742048608e-01  1.0533779738579010e+00  9.2623876803513605e-01  1.0578044301588416e+00  1.9313700277935844e-01  3.2301490568085051e-01  -9.8269828490242184e-02  2.9204641648066837e-01  -1.4827404204644568e-01  2.3795138417507983e-01  -2.0480652374996880e-01  2.2814966579569659e-01  -2.0331831769186751e-01  2.2371857456016406e-01  -1.6004089228071947e-01  1.9327679385102828e-01  -1.5283396582218906e-01  1.8117158665536742e-01  -1.5790003058642282e-01  1.7539708692302486e-01  -1.5936153625041929e-01  1.7177139346388015e-01  -1.5815632412160655e-01  1.6831446847442474e-01  -1.5421042798022178e-01  1.6251492082252364e-01  -1.4647730617085394e-01  1.4962739797477292e-01  -1.3285962107047875e-01  1.1929486322934187e-01  -1.1034337669297625e-01  4.9822925920679655e-02  -7.5729020841489969e-02  2.1623116336400447e-02  -3.8743594671360307e-02  4.2553995890723536e-04  -2.4149431677497047e-02  -1.5458822349752569e-02  -2.1602541416782198e-02  -2.3409575571757286e-02  -1.5618415553070948e-02  -2.2564769873772671e-02  4.7352279799065767e-03  3.6853825632158243e-03  4.5600620456627820e-02  2.0219869683899654e-02  8.9602480006202828e-02  4.7909766561874253e-03  2.2329182435894562e-01  4.2988727561487955e-01  6.4188902214486543e-01  7.7871544276129212e-01  8.6202971235384995e-01  9.1353623459762456e-01  9.4565405224106769e-01  9.6578213001258817e-01  9.7843277674272966e-01  9.8639755625024239e-01  9.9141748015053788e-01  9.9458347444626183e-01  9.9658105889019344e-01  9.9784176333736396e-01  9.9863753715773806e-01  9.9913988523577379e-01  9.9945701659709396e-01  9.9965722408979552e-01  9.9978361621039913e-01  9.9986340706212395e-01  9.9991377759672018e-01  9.9994557478212687e-01  9.9996564669061794e-01  9.9997831668236259e-01  9.9998631413825956e-01  9.9999136209528827e-01  9.9999454826032064e-01  9.9999655925221242e-01  9.9999782848838414e-01  9.9999862954876573e-01  9.9999913511650806e-01  9.9999945418601632e-01  9.9999965555084214e-01  9.9999978263012068e-01  9.9999986282730591e-01  9.9999991343739492e-01  9.9999994537549286e-01  9.9999996553013859e-01  9.9999997824863440e-01  9.9999998627448350e-01  9.9999999133903217e-01  9.9999999453487809e-01  9.9999999655149840e-01  9.9999999782400573e-01  9.9999999862694278e-01  9.9999999913359428e-01  9.9999999945326223e-01  9.9999999965495778e-01  9.9999999978222076e-01  9.9999999986239652e-01  9.9999999991310862e-01  9.9999999994531197e-01  0.0000000000000000e+00  6.0033588131117900e-04  -1.5846862766363039e-02  1.7261833597193005e-01  5.8490508760142591e-02  6.2635363450115097e-02  5.3121981531570335e-02  7.2325874050458761e-02  2.1969120870495112e-02  -4.0534439591458096e-02  -3.6835204832559761e-02  -2.7512298512751877e-02  -1.4498029286762708e-02  -1.4645474518230941e-02  -2.1176042046333774e-03  -1.4046668142483534e-02  1.1821699737036090e-02  -2.0915777494173914e-02  6.8639161606488873e-04  2.4273490295676645e-02  -2.6345115689204928e-02  2.2570581445199911e-02  -1.4956004213854662e-02  1.7459614882791821e-02  -3.1846575776572926e-02  2.4250457139931611e-02  -2.9793584183881701e-03  6.5523797363870560e-03  -1.3589413368175873e-02  2.1662871900450371e-02  -2.4545444107494548e-02  3.1066185317640736e-02  -3.7655697330426799e-02  4.8887970408550273e-02  -4.7518122027074366e-02  5.4936635260984572e-02  -1.2195341760463808e-02  2.8171921317081114e-02  -1.6068801564155345e-02  3.5655987558549804e-02  -8.4312165168075812e-02  -1.3222977595786908e-02  -7.3647137768964990e-02  -3.2662641765880129e-03  -6.5884308513316378e-02  2.4572159130482017e-03  -6.0515054005664919e-02  5.8199276990322495e-03  -5.4587689164245133e-02  9.6767016345829602e-03  -4.5917472256636963e-02  1.7883572909312171e-02  -3.0626027438340076e-02  4.4797762519601721e-02  5.1190888694159142e-03  3.4861813536341511e-02  -5.0021242109225553e-02  -1.0400590526065422e-02  -6.9991883345805084e-02  -5.5446860798650174e-02  -4.8703415974627726e-02  8.0317881204196948e-03  4.7831247869345563e-03  7.0934947824531511e-02  -1.5030687126085793e-01  -6.0991182052144183e-02  -5.3327160438186520e-02  5.7524300398886135e-03  -1.3373081016275748e-01  4.1016181371117871e-02  -8.9819576689492017e-02  -9.3451484403741167e-03  -1.3380146690539291e-01  3.9848334482427826e-02  -1.8863265375635616e-01  1.8697944088164395e-01  -2.5364332990477406e-01  1.9275162867697013e-01  -2.2532921089777846e-01  2.1583508015602523e-01  -2.4402909127286995e-01  2.0869808267521761e-01  -2.3995690218590318e-01  1.7443244696766338e-01  -1.9518672949682336e-01  1.6847128807627096e-01  -1.7909237207038348e-01  1.7845200667882269e-01  -1.6978572121647684e-01  1.8305962495693590e-01  -1.6347869238415946e-01  1.8479821220922230e-01  -1.5687345180701318e-01  1.8462249192924807e-01  -1.4679274195146338e-01  1.8178978958642991e-01  -1.2873511072238125e-01  1.7316384653103015e-01  -9.4743633744048317e-02  1.5097527241982667e-01  -3.1470803245160682e-02  9.6617154032362804e-02  -1.6074504776218294e-02  4.4818381007934512e-02  -2.6115105741450111e-03  2.0412064813345610e-02  5.9505365788051342e-03  7.9216404266851375e-03  4.1472446347391194e-03  -8.1162863727221105e-03  -4.6842000034149232e-03  -3.3114640553397787e-02  -2.7538670942116185e-02  -5.9917614754787143e-02  -2.1904188564382660e-02  -7.3410495545265159e-02  3.1219907873216775e-02  -7.2738562296307763e-02  1.2227023337870717e-01  4.4270715787804832e-01  6.5433936313948227e-01  7.8527259875380240e-01  8.6627097976683753e-01  9.1646544873854241e-01  9.4767474109342376e-01  9.6714630989226613e-01  9.7933208495207302e-01  9.8697793013948809e-01  9.9178527730127586e-01  9.9481293695163353e-01  9.9672224774431228e-01  9.9792753745218910e-01  9.9868901151220990e-01  9.9917039658257667e-01  9.9947486750029624e-01  9.9966751778086538e-01  9.9978945298068778e-01  9.9986664934633329e-01  9.9991553163422497e-01  9.9994648987262680e-01  9.9996609897171884e-01  9.9997852078749905e-01  9.9998639034021808e-01  9.9999137626453216e-01  9.9999453538687866e-01  9.9999653712772463e-01  9.9999780555696727e-01  9.9999860933965612e-01  9.9999911869705904e-01  9.9999944148415565e-01  9.9999964604270752e-01  9.9999977567872567e-01  9.9999985783470824e-01  9.9999990990106913e-01  9.9999994289841765e-01  9.9999996381082279e-01  9.9999997706434951e-01  9.9999998546399971e-01  9.9999999078743651e-01  9.9999999416128127e-01  9.9999999629952019e-01  9.9999999765468384e-01  9.9999999851352994e-01  9.9999999905784398e-01  9.9999999940278317e-01  9.9999999962138209e-01  9.9999999975986065e-01  9.9999999984779220e-01  9.9999999990281763e-01  0.0000000000000000e+00  -4.9000575535216705e-03  3.6126402169570859e-02  -8.7539619744376643e-02  -5.6109906788148391e-03  -9.8580848979064797e-03  -7.2490119818947240e-03  -3.8767859722503441e-02  -4.0687048381230669e-02  -1.1055051608889786e-02  1.1606397550018958e-03  5.9977273229701788e-03  1.8694184981037844e-03  6.8083999916952785e-03  -1.9368825498112911e-03  9.1809051101521787e-03  -1.3283151898420243e-02  2.4522281589129103e-02  -1.9086899351916615e-02  -2.5443763025590611e-02  3.0606432508953115e-02  -2.9742277723315280e-02  1.8326811022489044e-02  -1.2062201608397537e-02  3.3286860110840442e-02  -4.0807919975789975e-02  3.8470397324448535e-03  -3.3599976704534076e-03  1.1916960472749104e-02  -2.2089769360806883e-02  2.5049350871557879e-02  -3.0572287465199750e-02  3.6486434426727318e-02  -4.8322985061413554e-02  5.4024400308027853e-02  -5.0377560529910874e-02  2.7743269644007876e-02  -2.4091181738174004e-02  1.4759900412545587e-02  -4.1175299929489678e-02  4.5586486717372095e-02  -1.4534940081884011e-02  3.5759083917583562e-02  -2.1884724404201104e-02  3.0481059311516564e-02  -2.5819042208527310e-02  2.6731415129879869e-02  -2.7987279816857655e-02  2.2696745891098290e-02  -3.0015838979955706e-02  1.7363820477833768e-02  -3.3754192195316925e-02  1.0067898239933964e-02  -4.4961438507832421e-02  4.1685767878846773e-04  3.7791080968680710e-02  1.4369856629438255e-01  1.6012855976800217e-01  1.8102853990091028e-01  1.0621745413702512e-01  8.4679646909923439e-02  8.3659920707973064e-03  8.0850171411607861e-03  -4.4718731623738683e-02  1.6755883481820194e-01  -6.5047763123748841e-03  -2.1293179172966942e-02  -7.7055042308707744e-02  5.3862907193806514e-02  -1.4064224747769000e-01  9.3785874625744413e-03  -7.7608095028640398e-02  4.0728472355924791e-02  -1.3607929531572799e-01  1.1467393952827777e-01  -2.2584834390737471e-01  2.4081121700529620e-01  -2.9132058007509948e-01  1.5015191213241544e-01  -2.8506179492623562e-01  2.0639698479456298e-01  -3.3699621996506862e-01  1.1817336324706980e-01  -3.8412767158181393e-01  1.2813143610181607e-03  -3.5736879049029002e-01  4.4139146268062660e-02  -3.2259259697270831e-01  7.0628427490575588e-02  -2.9908628369283147e-01  8.7809336790182643e-02  -2.8132203952536811e-01  9.8954156273513699e-02  -2.6506192996704392e-01  1.0554035852116869e-01  -2.4530554064693880e-01  1.0787611841947291e-01  -2.1358862457804251e-01  1.0548496663555064e-01  -1.5249487602967154e-01  9.9798452059403325e-02  -2.1919015410283984e-02  1.3496439439213367e-01  8.3798327892662616e-02  1.5852791210228598e-01  1.4855805705038541e-01  1.8510856277273605e-01  2.0193229270113927e-01  2.2805868732219731e-01  2.6094994043444009e-01  2.7730003811248982e-01  3.2124717922683932e-01  2.7248264624072099e-01  2.5807800799457109e-01  2.0351051984424565e-01  2.0321981540358722e-01  6.3886150499214464e-02  1.9245991946122412e-01  3.5415556775107920e-01  5.6648907203738530e-01  7.2664154557180938e-01  8.3018496142449005e-01  8.9479371224504589e-01  9.3471337948845989e-01  9.5936388190753163e-01  9.7462743466165369e-01  9.8411316546385019e-01  9.9002921172823355e-01  9.9373037030966882e-01  9.9605177919479027e-01  9.9751076341920852e-01  9.9842919070565028e-01  9.9900805979741769e-01  9.9937326423967121e-01  9.9960384213430442e-01  9.9974950627978265e-01  9.9984156932142820e-01  9.9989977600057434e-01  9.9993658738919200e-01  9.9995987301704836e-01  9.9997460530699078e-01  9.9998392740418329e-01  9.9998982677759685e-01  9.9999356046039900e-01  9.9999592366097367e-01  9.9999741951522447e-01  9.9999836640323636e-01  9.9999896581417025e-01  9.9999934527261791e-01  9.9999958549570245e-01  9.9999973757640126e-01  9.9999983385740532e-01  9.9999989481289953e-01  9.9999993340422810e-01  9.9999995783685969e-01  9.9999997330555324e-01  9.9999998309908555e-01  9.9999998929958167e-01  9.9999999322526489e-01  9.9999999571070508e-01  9.9999999728430466e-01  9.9999999828057362e-01  9.9999999891134028e-01  9.9999999931066552e-01  9.9999999956348939e-01  9.9999999972350717e-01  9.9999999982486243e-01  9.9999999988870869e-01  9.9999999992952182e-01  0.0000000000000000e+00  9.2732546335448501e-03  -3.4169812096243486e-02  4.8375013609064717e-02  -7.6753580453044574e-03  -5.7638452656135148e-03  -1.5360623591513248e-02  1.3059275171459087e-03  1.5225219326103151e-02  8.7943313228137625e-03  4.2047356842495080e-03  -1.0874447511031477e-03  1.5901452211579113e-03  -3.0228817382909022e-03  5.2610466092537873e-03  -1.8113043721287702e-03  1.6912769068526439e-02  -2.3506448002567241e-02  5.0777047635735088e-02  2.3241945355923329e-02  -3.7203657663669586e-02  4.0529579873049275e-02  -2.4855824645239378e-02  6.5603184815031584e-03  -2.7620025055051491e-02  6.8296836309956921e-02  -9.5400744464259023e-03  -3.9582423482746694e-03  -1.1488982076822434e-02  1.9097350754309107e-02  -3.0096959533273085e-02  2.5097803687753710e-02  -3.9846128347529423e-02  4.2178015599405122e-02  -6.4811098910528303e-02  5.2516926037279442e-02  -4.3695355525603802e-02  2.3699077357383920e-02  -1.9289333715687234e-02  3.0875344171652344e-02  -3.4008389769341930e-02  1.3932502785328923e-02  -2.9725939501791421e-02  1.5045343220154536e-02  -3.0327169445195677e-02  1.2860192402131303e-02  -3.3383126083913556e-02  7.0527860108326613e-03  -3.9708525493774481e-02  -4.1607326679666927e-03  -5.2633082388899598e-02  -2.5651169885917879e-02  -8.1741568901865000e-02  -7.0946433080410903e-02  -1.7815101271164566e-01  -1.5635834928976353e-01  -1.2658993979465061e-01  -1.3050281534932778e-01  -1.7946669287339387e-02  -3.2957781614338766e-02  -5.0507674763341330e-02  1.5559224690733378e-03  -3.9638343673362351e-02  -7.0770040597220737e-02  -5.2305051335819308e-02  9.8802100068734189e-02  3.1990861055183131e-02  5.7953598292772157e-01  7.8061695370644324e-01  1.2720390628662179e+00  7.4029090223303939e-01  1.1683686689418193e+00  5.4222293981320124e-01  1.1104902249987876e+00  3.1006585062467240e-01  1.0322630196488618e+00  7.8935468792301455e-02  9.3674134015647414e-01  -1.2529824605508938e-01  1.1047721602187062e+00  3.2388045729509042e-03  8.8957408258258974e-01  -1.0853374571366479e-02  8.4590598789982885e-01  -1.4178313597490344e-01  1.0740088390758076e+00  -1.2464752592450565e-01  1.0737113201152850e+00  -1.2851102587294053e-01  1.0679592003951890e+00  -1.3132819317163630e-01  1.0625799626218937e+00  -1.3146257397533850e-01  1.0571689225140599e+00  -1.2738731133033632e-01  1.0501026774180380e+00  -1.1625810638938702e-01  1.0375674830596588e+00  -9.3373037808756554e-02  1.0085748130493828e+00  -5.5559505323771977e-02  9.3966030485136176e-01  4.2548088646853138e-01  1.0652144406554604e+00  8.1841750440005590e-01  1.0679906937894323e+00  9.4263358878673764e-01  1.0100161102522092e+00  9.5605713404880244e-01  9.6681497761324264e-01  9.6509518229164937e-01  9.5658382116161789e-01  1.1457045042813756e+00  1.0994427687821655e+00  1.1619499609272361e+00  1.0233393063953236e+00  6.2969759750867915e-01  5.2876771812790568e-01  6.3042906277748134e-01  7.4761558978769127e-01  8.4134398799711141e-01  9.0266282993361902e-01  9.4059087064225844e-01  9.6365933258964709e-01  9.7766209721338926e-01  9.8619615806372818e-01  9.9142821885623134e-01  9.9465521388990619e-01  9.9665619621712753e-01  9.9790249969035061e-01  9.9868154759921646e-01  9.9916990393026028e-01  9.9947671610447653e-01  9.9966980502525560e-01  9.9979148636478377e-01  9.9986824783992390e-01  9.9991671147601358e-01  9.9994732868973712e-01  9.9996668103126107e-01  9.9997891800731320e-01  9.9998665820671362e-01  9.9999155531929662e-01  9.9999465428167056e-01  9.9999661567060372e-01  9.