<?xml version="1.0"?>
<VTKFile type="UnstructuredGrid"  version="0.1"  >
<UnstructuredGrid>
<Piece  NumberOfPoints="21400" NumberOfCells="42336">
<Points>
<DataArray  type="Float64"  NumberOfComponents="3"  format="ascii">0 0 0  0.004583333333333333 0 0  0.009166666666666667 0 0  0.01375 0 0  0.01833333333333333 0 0  0.02291666666666667 0 0  0.0275 0 0  0.03208333333333334 0 0  0.03666666666666667 0 0  0.04125 0 0  0.04583333333333334 0 0  0.05041666666666667 0 0  0.055 0 0  0.05958333333333334 0 0  0.06416666666666668 0 0  0.06875000000000001 0 0  0.07333333333333333 0 0  0.07791666666666666 0 0  0.08249999999999999 0 0  0.08708333333333333 0 0  0.09166666666666667 0 0  0.09625000000000002 0 0  0.1008333333333333 0 0  0.1054166666666667 0 0  0.11 0 0  0.1145833333333333 0 0  0.1191666666666667 0 0  0.12375 0 0  0.1283333333333334 0 0  0.1329166666666667 0 0  0.1375 0 0  0.1420833333333333 0 0  0.1466666666666667 0 0  0.15125 0 0  0.1558333333333333 0 0  0.1604166666666667 0 0  0.165 0 0  0.1695833333333333 0 0  0.1741666666666667 0 0  0.17875 0 0  0.1833333333333333 0 0  0.1879166666666667 0 0  0.1925 0 0  0.1970833333333333 0 0  0.2016666666666667 0 0  0.20625 0 0  0.2108333333333333 0 0  0.2154166666666666 0 0  0.22 0 0  0.2245833333333334 0 0  0.2291666666666667 0 0  0.23375 0 0  0.2383333333333333 0 0  0.2429166666666667 0 0  0.2475 0 0  0.2520833333333333 0 0  0.2566666666666667 0 0  0.26125 0 0  0.2658333333333334 0 0  0.2704166666666666 0 0  0.275 0 0  0.2795833333333334 0 0  0.2841666666666667 0 0  0.28875 0 0  0.2933333333333333 0 0  0.2979166666666667 0 0  0.3025 0 0  0.3070833333333334 0 0  0.3116666666666666 0 0  0.31625 0 0  0.3208333333333333 0 0  0.3254166666666667 0 0  0.33 0 0  0.3345833333333333 0 0  0.3391666666666667 0 0  0.34375 0 0  0.3483333333333333 0 0  0.3529166666666667 0 0  0.3575 0 0  0.3620833333333333 0 0  0.3666666666666667 0 0  0.37125 0 0  0.3758333333333334 0 0  0.3804166666666667 0 0  0.3850000000000001 0 0  0.3895833333333333 0 0  0.3941666666666667 0 0  0.39875 0 0  0.4033333333333334 0 0  0.4079166666666666 0 0  0.4125 0 0  0.4170833333333334 0 0  0.4216666666666667 0 0  0.42625 0 0  0.4308333333333333 0 0  0.4354166666666667 0 0  0.44 0 0  0.4445833333333333 0 0  0.4491666666666667 0 0  0.45375 0 0  0.4583333333333333 0 0  0.4629166666666666 0 0  0.4675 0 0  0.4720833333333334 0 0  0.4766666666666667 0 0  0.4812500000000001 0 0  0.4858333333333333 0 0  0.4904166666666667 0 0  0.495 0 0  0.4995833333333334 0 0  0.5041666666666667 0 0  0.50875 0 0  0.5133333333333334 0 0  0.5179166666666667 0 0  0.5225 0 0  0.5270833333333333 0 0  0.5316666666666667 0 0  0.53625 0 0  0.5408333333333333 0 0  0.5454166666666667 0 0  0.55 0 0  0.5545833333333333 0 0  0.5591666666666667 0 0  0.5637500000000001 0 0  0.5683333333333334 0 0  0.5729166666666666 0 0  0.5775 0 0  0.5820833333333334 0 0  0.5866666666666667 0 0  0.5912499999999999 0 0  0.5958333333333334 0 0  0.6004166666666667 0 0  0.605 0 0  0.6095833333333334 0 0  0.6141666666666667 0 0  0.61875 0 0  0.6233333333333333 0 0  0.6279166666666667 0 0  0.6325000000000001 0 0  0.6370833333333333 0 0  0.6416666666666666 0 0  0.64625 0 0  0.6508333333333334 0 0  0.6554166666666666 0 0  0.6599999999999999 0 0  0.6645833333333334 0 0  0.6691666666666667 0 0  0.67375 0 0  0.6783333333333333 0 0  0.6829166666666667 0 0  0.6875 0 0  0.6920833333333333 0 0  0.6966666666666667 0 0  0.70125 0 0  0.7058333333333333 0 0  0.7104166666666667 0 0  0.7150000000000001 0 0  0.7195833333333334 0 0  0.7241666666666666 0 0  0.72875 0 0  0.7333333333333334 0 0  0.7379166666666667 0 0  0.7425 0 0  0.7470833333333333 0 0  0.7516666666666667 0 0  0.75625 0 0  0.7608333333333334 0 0  0.7654166666666666 0 0  0.7700000000000001 0 0  0 0.002380952380952381 0  0.004583333333333333 0.002380952380952381 0  0.009166666666666667 0.002380952380952381 0  0.01375 0.002380952380952381 0  0.01833333333333333 0.002380952380952381 0  0.02291666666666667 0.002380952380952381 0  0.0275 0.002380952380952381 0  0.03208333333333334 0.002380952380952381 0  0.03666666666666667 0.002380952380952381 0  0.04125 0.002380952380952381 0  0.04583333333333334 0.002380952380952381 0  0.05041666666666667 0.002380952380952381 0  0.055 0.002380952380952381 0  0.05958333333333334 0.002380952380952381 0  0.06416666666666668 0.002380952380952381 0  0.06875000000000001 0.002380952380952381 0  0.07333333333333333 0.002380952380952381 0  0.07791666666666666 0.002380952380952381 0  0.08249999999999999 0.002380952380952381 0  0.08708333333333333 0.002380952380952381 0  0.09166666666666667 0.002380952380952381 0  0.09625000000000002 0.002380952380952381 0  0.1008333333333333 0.002380952380952381 0  0.1054166666666667 0.002380952380952381 0  0.11 0.002380952380952381 0  0.1145833333333333 0.002380952380952381 0  0.1191666666666667 0.002380952380952381 0  0.12375 0.002380952380952381 0  0.1283333333333334 0.002380952380952381 0  0.1329166666666667 0.002380952380952381 0  0.1375 0.002380952380952381 0  0.1420833333333333 0.002380952380952381 0  0.1466666666666667 0.002380952380952381 0  0.15125 0.002380952380952381 0  0.1558333333333333 0.002380952380952381 0  0.1604166666666667 0.002380952380952381 0  0.165 0.002380952380952381 0  0.1695833333333333 0.002380952380952381 0  0.1741666666666667 0.002380952380952381 0  0.17875 0.002380952380952381 0  0.1833333333333333 0.002380952380952381 0  0.1879166666666667 0.002380952380952381 0  0.1925 0.002380952380952381 0  0.1970833333333333 0.002380952380952381 0  0.2016666666666667 0.002380952380952381 0  0.20625 0.002380952380952381 0  0.2108333333333333 0.002380952380952381 0  0.2154166666666666 0.002380952380952381 0  0.22 0.002380952380952381 0  0.2245833333333334 0.002380952380952381 0  0.2291666666666667 0.002380952380952381 0  0.23375 0.002380952380952381 0  0.2383333333333333 0.002380952380952381 0  0.2429166666666667 0.002380952380952381 0  0.2475 0.002380952380952381 0  0.2520833333333333 0.002380952380952381 0  0.2566666666666667 0.002380952380952381 0  0.26125 0.002380952380952381 0  0.2658333333333334 0.002380952380952381 0  0.2704166666666666 0.002380952380952381 0  0.275 0.002380952380952381 0  0.2795833333333334 0.002380952380952381 0  0.2841666666666667 0.002380952380952381 0  0.28875 0.002380952380952381 0  0.2933333333333333 0.002380952380952381 0  0.2979166666666667 0.002380952380952381 0  0.3025 0.002380952380952381 0  0.3070833333333334 0.002380952380952381 0  0.3116666666666666 0.002380952380952381 0  0.31625 0.002380952380952381 0  0.3208333333333333 0.002380952380952381 0  0.3254166666666667 0.002380952380952381 0  0.33 0.002380952380952381 0  0.3345833333333333 0.002380952380952381 0  0.3391666666666667 0.002380952380952381 0  0.34375 0.002380952380952381 0  0.3483333333333333 0.002380952380952381 0  0.3529166666666667 0.002380952380952381 0  0.3575 0.002380952380952381 0  0.3620833333333333 0.002380952380952381 0  0.3666666666666667 0.002380952380952381 0  0.37125 0.002380952380952381 0  0.3758333333333334 0.002380952380952381 0  0.3804166666666667 0.002380952380952381 0  0.3850000000000001 0.002380952380952381 0  0.3895833333333333 0.002380952380952381 0  0.3941666666666667 0.002380952380952381 0  0.39875 0.002380952380952381 0  0.4033333333333334 0.002380952380952381 0  0.4079166666666666 0.002380952380952381 0  0.4125 0.002380952380952381 0  0.4170833333333334 0.002380952380952381 0  0.4216666666666667 0.002380952380952381 0  0.42625 0.002380952380952381 0  0.4308333333333333 0.002380952380952381 0  0.4354166666666667 0.002380952380952381 0  0.44 0.002380952380952381 0  0.4445833333333333 0.002380952380952381 0  0.4491666666666667 0.002380952380952381 0  0.45375 0.002380952380952381 0  0.4583333333333333 0.002380952380952381 0  0.4629166666666666 0.002380952380952381 0  0.4675 0.002380952380952381 0  0.4720833333333334 0.002380952380952381 0  0.4766666666666667 0.002380952380952381 0  0.4812500000000001 0.002380952380952381 0  0.4858333333333333 0.002380952380952381 0  0.4904166666666667 0.002380952380952381 0  0.495 0.002380952380952381 0  0.4995833333333334 0.002380952380952381 0  0.5041666666666667 0.002380952380952381 0  0.50875 0.002380952380952381 0  0.5133333333333334 0.002380952380952381 0  0.5179166666666667 0.002380952380952381 0  0.5225 0.002380952380952381 0  0.5270833333333333 0.002380952380952381 0  0.5316666666666667 0.002380952380952381 0  0.53625 0.002380952380952381 0  0.5408333333333333 0.002380952380952381 0  0.5454166666666667 0.002380952380952381 0  0.55 0.002380952380952381 0  0.5545833333333333 0.002380952380952381 0  0.5591666666666667 0.002380952380952381 0  0.5637500000000001 0.002380952380952381 0  0.5683333333333334 0.002380952380952381 0  0.5729166666666666 0.002380952380952381 0  0.5775 0.002380952380952381 0  0.5820833333333334 0.002380952380952381 0  0.5866666666666667 0.002380952380952381 0  0.5912499999999999 0.002380952380952381 0  0.5958333333333334 0.002380952380952381 0  0.6004166666666667 0.002380952380952381 0  0.605 0.002380952380952381 0  0.6095833333333334 0.002380952380952381 0  0.6141666666666667 0.002380952380952381 0  0.61875 0.002380952380952381 0  0.6233333333333333 0.002380952380952381 0  0.6279166666666667 0.002380952380952381 0  0.6325000000000001 0.002380952380952381 0  0.6370833333333333 0.002380952380952381 0  0.6416666666666666 0.002380952380952381 0  0.64625 0.002380952380952381 0  0.6508333333333334 0.002380952380952381 0  0.6554166666666666 0.002380952380952381 0  0.6599999999999999 0.002380952380952381 0  0.6645833333333334 0.002380952380952381 0  0.6691666666666667 0.002380952380952381 0  0.67375 0.002380952380952381 0  0.6783333333333333 0.002380952380952381 0  0.6829166666666667 0.002380952380952381 0  0.6875 0.002380952380952381 0  0.6920833333333333 0.002380952380952381 0  0.6966666666666667 0.002380952380952381 0  0.70125 0.002380952380952381 0  0.7058333333333333 0.002380952380952381 0  0.7104166666666667 0.002380952380952381 0  0.7150000000000001 0.002380952380952381 
[...]
<PointData  Scalars="concentration"> 
<DataArray  type="Float64"  Name="concentration"  format="ascii">0.0000000000000000e+00  8.0097005887425868e-02  2.3034449832478404e-01  1.7610598158259066e-01  -2.3237987670065418e-02  -1.3066798485277534e-01  -1.7180268831172665e-01  -1.8850580735163472e-01  -1.7735795938138638e-01  -7.9896621452020353e-02  1.1105359711535605e-02  6.9541846361914125e-03  7.4760599200962485e-03  -1.3498554153179452e-03  6.9921495468676809e-03  -9.9115355036456000e-03  1.6283626235805402e-02  -1.2975322748867058e-02  -8.1766133593360428e-03  2.3873452975288929e-02  -2.2842373344354183e-02  1.8347443650878602e-02  -1.2939379219572011e-02  2.2540183408221177e-02  -2.7141695960095229e-02  1.5263407881240407e-02  -1.6810948160181428e-03  9.1281047028141209e-03  -1.1833405816342568e-02  2.2488329000472214e-02  -1.8977450587203952e-02  3.2952919462059790e-02  -2.8038323955719306e-02  4.8113747733463989e-02  -2.7562280183951359e-02  4.8610686276855601e-02  -9.6036420873010422e-03  4.7129689484957871e-01  1.0300619079142457e+00  1.1597407474516868e+00  8.7812219697591110e-01  1.0916763657780844e+00  8.7723863677914993e-01  1.0813045258446592e+00  8.8049897447219105e-01  1.0797759651421766e+00  8.8169396509382170e-01  1.0795853504936768e+00  8.8210161760281913e-01  1.0806507799080136e+00  8.8195598849129964e-01  1.0829236232580377e+00  8.7612973091920643e-01  1.0543689366030169e+00  8.7351675444732657e-01  1.1045407863715169e+00  8.5421241102428191e-01  1.1522100582511319e+00  1.0040440958405994e+00  9.7077456974552601e-01  1.0065676476245107e+00  9.8105876268152670e-01  1.0082165523324658e+00  1.0305701833074368e+00  9.4471731026546923e-01  9.8422725058228600e-01  9.7342079504215329e-01  1.1051592021603700e+00  8.6130441670019553e-01  1.1327267018536460e+00  9.1472083252115377e-01  9.5087413343204330e-01  6.1212396670764657e-01  1.1669048166566611e+00  7.3933825809483456e-01  1.2914603093342303e+00  6.7371271991810211e-01  1.3099365454926237e+00  6.8320763156086572e-01  1.3080215289513553e+00  7.0824446679510444e-01  1.2956420536552224e+00  7.4100140627844058e-01  1.2335386550110059e+00  7.6164727299105339e-01  1.2215057766327924e+00  7.8027386229968343e-01  1.2177623951176035e+00  7.8653174062088460e-01  1.2133720639555439e+00  7.9046211478293027e-01  1.2100646134797377e+00  7.9309378375592765e-01  1.2075798884577409e+00  7.9505582528201668e-01  1.2055275736666544e+00  7.9689622950366634e-01  1.2033722648792717e+00  7.9924079952672056e-01  1.2002396494801186e+00  8.0304001313630058e-01  1.1944607668642844e+00  8.0999895184889736e-01  1.1825791339041993e+00  8.2344891258593822e-01  1.1574741006592275e+00  8.5082135324658326e-01  1.1081237055290272e+00  9.1692571465097206e-01  1.0627747319005569e+00  9.5292943395707974e-01  1.0245093594816421e+00  9.7748552329427363e-01  1.0035269148894141e+00  9.9100642652908533e-01  9.9638883081935059e-01  1.0007664870142867e+00  9.9372780273904648e-01  1.0140239120591199e+00  9.9739673895973646e-01  1.0327176729725625e+00  9.9178994686377564e-01  1.0563654196555785e+00  1.0193007456454910e+00  1.2638062054033521e+00  8.9004339160293300e-01  9.4234890660108817e-01  9.7023232506609935e-01  9.8877549076594773e-01  9.9673671271209296e-01  9.9992456029797905e-01  1.0009769030185516e+00  1.0011494434134089e+00  1.0010052116954824e+00  1.0007825231127636e+00  1.0005727778223852e+00  1.0004037183523882e+00  1.0002774536013930e+00  1.0001872846633073e+00  1.0001247494164069e+00  1.0000822559265368e+00  1.0000538090769076e+00  1.0000349793856986e+00  1.0000226240767696e+00  1.0000145727867731e+00  1.0000093551235534e+00  1.0000059889085002e+00  1.0000038251015986e+00  1.0000024383866102e+00  1.0000015518980505e+00  1.0000009863644113e+00  1.0000006262076324e+00  1.0000003971763900e+00  1.0000002517081106e+00  1.0000001594091943e+00  1.0000001008967654e+00  1.0000000638300675e+00  1.0000000403635827e+00  1.0000000255147268e+00  1.0000000161232456e+00  1.0000000101851680e+00  1.0000000064321684e+00  1.0000000040601862e+00  1.0000000025616560e+00  1.0000000016151871e+00  1.0000000010140064e+00  1.0000000006492620e+00  1.0000000003515817e+00  1.0000000004679550e+00  0.0000000000000000e+00  -1.8719666511148141e-02  -1.0170773410685766e-01  6.5387697094413610e-02  6.2680388087695993e-01  9.0464205783368978e-01  9.6999155384933722e-01  9.2654344920829568e-01  9.4139066735497279e-01  3.0983371504266483e-01  1.3932719559668538e-01  8.3848014830959910e-02  4.7691114996083347e-02  3.4941141075208945e-02  1.4034955283948158e-02  2.2464626913688741e-02  -7.6261429685965648e-03  1.9403488133034861e-02  9.6392382376431340e-03  -2.1440869557488938e-02  2.4775833286289014e-02  -1.7470205465780462e-02  1.4310814865384580e-02  -1.9610264245683573e-02  2.9494952583304156e-02  -1.4590348500735453e-02  4.0703034718807393e-03  -5.3650648126226845e-03  1.5469725993120700e-02  -1.7011996035800035e-02  2.5128237941324703e-02  -2.3991721053115100e-02  3.7886392292208713e-02  -3.4091387189561971e-02  4.5448260954353448e-02  -2.5835628646572056e-02  4.0802166008086005e-02  -3.9819707286509326e-02  5.4828944184007640e-02  6.1572100482646393e-02  7.4383295699966367e-01  3.0007931956354095e-01  8.1100625006818916e-01  3.0956890273721394e-01  8.0827813316758212e-01  3.0985368875558161e-01  8.0463492734252173e-01  3.1267846818842610e-01  8.0243281740809425e-01  3.1850617472581888e-01  8.0382250989383497e-01  3.2868119023054182e-01  8.1307638690927220e-01  3.4058459327020518e-01  7.2724607921805673e-01  3.0426605769002213e-01  7.5102366808011978e-01  3.2461315124778201e-01  8.2767101150580302e-01  1.0593326995319079e+00  9.8705004268797536e-01  1.0105258545780735e+00  9.5732583451882680e-01  9.6228586347774991e-01  1.0654653793011561e+00  9.4501335703957934e-01  9.1468217022203657e-01  7.9633828378225480e-01  1.0981600322744487e+00  7.5315574052575995e-01  1.0544190588512554e+00  9.2713636874690741e-01  1.0684829764837354e+00  1.8438007350424485e-01  3.1851061803833863e-01  -1.1893068027124962e-01  3.1339916424112557e-01  -1.8550550198068969e-01  2.7708164393655382e-01  -1.9944413279413914e-01  2.5776564533111840e-01  -1.9334051402182667e-01  2.4693760387266162e-01  -1.5144669313111098e-01  2.1071756052993110e-01  -1.4702643373945093e-01  1.9209444452026936e-01  -1.5570171779305911e-01  1.8190994265174532e-01  -1.6047485964237221e-01  1.7602103747783684e-01  -1.6278663704176205e-01  1.7273472246480298e-01  -1.6360733335648731e-01  1.7089972156762598e-01  -1.6339768372178007e-01  1.6974307224995566e-01  -1.6220150953819706e-01  1.6859100758800821e-01  -1.5968905511662965e-01  1.6647229428859955e-01  -1.5509177414325964e-01  1.6141896480014981e-01  -1.4701861294338786e-01  1.4897044487296662e-01  -1.3320480300553747e-01  1.1892700717266821e-01  -1.1054623911412453e-01  4.9738089399514886e-02  -7.5793456539815451e-02  2.1522316155311798e-02  -3.8774922952936816e-02  3.9772966581845607e-04  -2.4167278904878148e-02  -1.5470499489106598e-02  -2.1609066956534882e-02  -2.3412353607432383e-02  -1.5630480758872994e-02  -2.2577403271654424e-02  4.7000961258603065e-03  3.6583044893267261e-03  4.5580894490710670e-02  2.0193699612280069e-02  8.9579784880855121e-02  4.7769249448913536e-03  2.2327249122071433e-01  4.2989030909982856e-01  6.4189222535220236e-01  7.7871784092679763e-01  8.6203143428937823e-01  9.1353743448386981e-01  9.4565487042031615e-01  9.6578267846310639e-01  9.7843313952985822e-01  9.8639779378787140e-01  9.9141763447737474e-01  9.9458357412593579e-01  9.9658112299223256e-01  9.9784180442807124e-01  9.9863756343790078e-01  9.9913990201841563e-01  9.9945702730553454e-01  9.9965723092073555e-01  9.9978362056911996e-01  9.9986340984563427e-01  9.9991377937667891e-01  9.9994557592252287e-01  9.9996564742306304e-01  9.9997831715427010e-01  9.9998631444343533e-01  9.9999136229353780e-01  9.9999454838973612e-01  9.9999655933719278e-01  9.9999782854446251e-01  9.9999862958601149e-01  9.9999913514125760e-01  9.9999945420252345e-01  9.9999965556162584e-01  9.9999978263708045e-01  9.9999986283129016e-01  9.9999991343937866e-01  9.9999994537551018e-01  9.9999996552879356e-01  9.9999997824559417e-01  9.9999998626978348e-01  9.9999999133346162e-01  9.9999999452354804e-01  9.9999999654182181e-01  9.9999999782246385e-01  0.0000000000000000e+00  5.9954659111408960e-04  -1.5845517416697978e-02  1.7261840531074810e-01  5.8493841038208622e-02  6.2637462784269293e-02  5.3127606318928142e-02  7.2328614214877379e-02  2.1977577544711028e-02  -4.0532529525151004e-02  -3.6824932939320813e-02  -2.7516453214384021e-02  -1.4484589958287853e-02  -1.4654310837818799e-02  -2.0943787652607632e-03  -1.4059680860570196e-02  1.1861444516197910e-02  -2.0952123485766003e-02  7.9619889236404412e-04  2.4218106643053055e-02  -2.6221340799065348e-02  2.2511591712558329e-02  -1.4768569781972612e-02  1.7275502386301777e-02  -3.1459032446716072e-02  2.4062252514253174e-02  -2.2901188777496471e-03  5.9232308809956356e-03  -1.2230498162360489e-02  2.0423623633073477e-02  -2.2190861521446732e-02  2.8113004940004193e-02  -3.3009736938876613e-02  4.1833162256998520e-02  -4.2057275986599051e-02  3.9533219799347319e-02  -2.8865804169744321e-02  4.3711118974887754e-02  -1.8001168032602967e-02  2.8846990715247715e-02  -9.0621415533837776e-02  -1.9763364608589924e-02  -7.7442944199923494e-02  -7.8020918029599699e-03  -6.9114332203770307e-02  -2.4466551658275720e-03  -6.4526588791889342e-02  -1.0144889776730710e-03  -6.0329822864490582e-02  1.1589657186107031e-04  -5.4396719602040490e-02  6.5713928767930519e-03  -4.1631169560500149e-02  3.4299304471367670e-02  3.5097101142470403e-03  4.4693460187460544e-02  -2.8661453190206649e-02  1.1162056152140718e-02  -2.9893666379486965e-02  -4.3126027586616877e-02  1.4606523034428984e-03  -1.3547831267783672e-02  2.1612341605751581e-02  9.1633807258113056e-03  -4.3912716527909137e-02  5.8591156301016620e-02  6.3631605193985447e-02  7.0764116689307308e-02  -1.2661617960600413e-01  4.2790290847150143e-02  -1.4038205729371289e-01  -5.3402647336567147e-02  -1.6861199167563548e-01  2.5689181994065158e-02  -1.8524437682127573e-01  2.0765454640126593e-01  -2.7202151944400332e-01  2.2261538641478448e-01  -2.6919150328949554e-01  2.1669125212319743e-01  -2.6428991396807089e-01  2.0355289858610690e-01  -2.5637173726013579e-01  1.7159419524882785e-01  -2.0670413025672199e-01  1.6767792333792700e-01  -1.8463390987424463e-01  1.8018222023578273e-01  -1.7308147344165270e-01  1.8536550564785526e-01  -1.6803717459645620e-01  1.8670143900629330e-01  -1.6610639375738576e-01  1.8650437325829086e-01  -1.6517590766476414e-01  1.8595748118957958e-01  -1.6396167584403912e-01  1.8550831196489775e-01  -1.6148108047042181e-01  1.8509998048047815e-01  -1.5654049199949163e-01  1.8414208588185033e-01  -1.4710591815739862e-01  1.8111332772762118e-01  -1.2925097448613229e-01  1.7250858538300859e-01  -9.5298583190164599e-02  1.5039326223290322e-01  -3.2063451610561886e-02  9.6135673367398963e-02  -1.6434406628833127e-02  4.4461372602105712e-02  -2.9009200972875231e-03  2.0174889808142554e-02  5.7616058321981233e-03  7.7749952728804620e-03  4.0387401372051204e-03  -8.1804197768690270e-03  -4.7192959570142639e-03  -3.3107168767963643e-02  -2.7528979725148853e-02  -5.9906062733344721e-02  -2.1877421768808834e-02  -7.3382719477477931e-02  3.1240453645701449e-02  -7.2717518277269494e-02  1.2228672662165423e-01  4.4272071912568134e-01  6.5434936030240476e-01  7.8527962974993681e-01  8.6627577674071810e-01  9.1646865563752899e-01  9.4767685553619263e-01  9.6714769067195683e-01  9.7933298046040573e-01  9.8697850802514053e-01  9.9178564884175757e-01  9.9481317516623102e-01  9.9672240015982450e-01  9.9792763482050795e-01  9.9868907364400705e-01  9.9917043619800439e-01  9.9947489274628409e-01  9.9966753386533891e-01  9.9978946322794005e-01  9.9986665587600654e-01  9.9991553579672721e-01  9.9994649252784740e-01  9.9996610066696734e-01  9.9997852187112890e-01  9.9998639103388676e-01  9.9999137670938498e-01  9.9999453567272512e-01  9.9999653731186067e-01  9.9999780567580920e-01  9.9999860941656638e-01  9.9999911874677216e-01  9.9999944151629538e-01  9.9999964606312375e-01  9.9999977569149467e-01  9.9999985784193035e-01  9.9999990990458965e-01  9.9999994289864580e-01  9.9999996380863676e-01  9.9999997705941723e-01  9.9999998545635638e-01  9.9999999077607926e-01  9.9999999415321639e-01  9.9999999626745351e-01  0.0000000000000000e+00  -4.8987051762849742e-03  3.6126813627260591e-02  -8.7537824015827076e-02  -5.6118071253876932e-03  -9.8561315089323812e-03  -7.2495914971687078e-03  -3.8764285341626160e-02  -4.0689501361155608e-02  -1.1050727636697533e-02  1.1557135503502843e-03  6.0073770236768577e-03  1.8620921163278075e-03  6.8238785228395653e-03  -1.9524641709964242e-03  9.2046693386537096e-03  -1.3308284491161761e-02  2.4558720376080118e-02  -1.9181465636154717e-02  -2.5353730193760263e-02  3.0517052986328494e-02  -2.9615067152364106e-02  1.8234801063582422e-02  -1.1816486169793573e-02  3.2946628710717789e-02  -4.0519774699365615e-02  3.3908668232395115e-03  -2.5189853396332955e-03  1.0938004296039552e-02  -2.0432140960378861e-02  2.3571283011516314e-02  -2.7213497531508261e-02  3.3379953443793769e-02  -4.2835278126162654e-02  4.8735020330782614e-02  -4.6373868674886305e-02  3.5403736240555476e-02  -3.3184314631801930e-02  1.7971619792178317e-02  -3.5933866350780087e-02  4.8441233710040214e-02  -1.1458279276213356e-02  3.6111154503386166e-02  -2.0721977948444853e-02  2.9480631796293347e-02  -2.5447656252735464e-02  2.4434491590622977e-02  -2.8175025417048579e-02  1.8619666920146820e-02  -3.1507927423865156e-02  1.0775252945298124e-02  -4.0073037048171951e-02  -1.5337099910555127e-03  -6.4296523012991574e-02  -3.6634186311437528e-02  -1.5206938649295463e-02  8.3709773240583443e-02  1.0500294789977316e-01  1.3152019443313162e-01  1.0147893905733425e-01  4.5831749495803903e-02  5.3105025196905457e-02  5.1882683781272537e-03  1.7735525345517443e-02  5.5508185246150629e-02  -6.7071747373720278e-02  -6.7749694490419426e-02  -5.7697427344291730e-02  1.6146219846678159e-01  -1.2125129851502903e-02  1.8835437378818326e-01  5.8520098922328137e-02  1.6050093109277783e-01  -2.3494516748449473e-02  1.7533621896127732e-01  -1.9203176440648081e-01  2.9627863626672013e-01  -2.7715705543781194e-01  2.0480281483734505e-01  -3.5930970854998795e-01  1.2929326458223817e-01  -4.0946932457576046e-01  6.4922844973288429e-02  -4.3879248012190514e-01  -4.6516278534892222e-02  -4.0698836125127424e-01  3.5325087861324102e-03  -3.6409484125550889e-01  3.7139465550804315e-02  -3.3375246170665002e-01  6.1520176263576996e-02  -3.1149242409556915e-01  7.9522820792452223e-02  -2.9499936974658519e-01  9.2686571815476182e-02  -2.8261085831180138e-01  1.0212950513627414e-01  -2.7278413813008329e-01  1.0870243830081862e-01  -2.6380953091812404e-01  1.1293646344153262e-01  -2.5335498367441012e-01  1.1492770053025127e-01  -2.3747097442901258e-01  1.1419382825340896e-01  -2.0833012110709170e-01  1.0977079271783929e-01  -1.4892416574728135e-01  1.0280832229962199e-01  -1.9351924821950889e-02  1.3714416025238377e-01  8.5739940461822137e-02  1.6017053179014695e-01  1.4995008485680106e-01  1.8627803157258788e-01  2.0291287919366466e-01  2.2887570917991956e-01  2.6162076634958020e-01  2.7785957190174637e-01  3.2170214915227502e-01  2.7283393336961254e-01  2.5834291120041836e-01  2.0372185009618163e-01  2.0338379578117535e-01  6.4021426348905577e-02  1.9254643892694778e-01  3.5419421271191476e-01  5.6651545412147331e-01  7.2665996017168333e-01  8.3019751715003154e-01  8.9480211649983066e-01  9.3471892779836219e-01  9.5936750767884549e-01  9.7462978632874830e-01  9.8411468228298948e-01  9.9003018602544768e-01  9.9373099418672661e-01  9.9605217774817767e-01  9.9751101757380489e-01  9.9842935255682275e-01  9.9900816275976101e-01  9.9937332968700854e-01  9.9960388371003472e-01  9.9974953267884681e-01  9.9984158607828622e-01  9.9989978663458812e-01  9.9993659413669078e-01  9.9995987729822045e-01  9.9997460802337912e-01  9.9998392912784584e-01  9.9998982787150270e-01  9.9999356115473204e-01  9.9999592410178961e-01  9.9999741979507029e-01  9.9999836658090446e-01  9.9999896592680759e-01  9.9999934534394486e-01  9.9999958554052393e-01  9.9999973760436556e-01  9.9999983387422808e-01  9.9999989482262230e-01  9.9999993340875959e-01  9.9999995783803219e-01  9.9999997330355639e-01  9.9999998309486127e-01  9.9999998929224565e-01  9.9999999321715871e-01  9.9999999569028286e-01  9.9999999727039313e-01  0.0000000000000000e+00  9.2730989487838523e-03  -3.4168791413866931e-02  4.8375180705720403e-02  -7.6722359137723845e-03  -5.7635456488292925e-03  -1.5357558058925119e-02  1.3047003782642110e-03  1.5231251211218653e-02  8.7953869713250886e-03  4.2186068539569171e-03  -1.0844492672818125e-03  1.6129256998607773e-03  -3.0202172585975496e-03  5.2955900322837019e-03  -1.8168928970661591e-03  1.6955195618413299e-02  -2.3509150712554803e-02  5.0882681405984544e-02  2.3147047790056816e-02  -3.7121970432993506e-02  4.0358394535718413e-02  -2.4815319892849921e-02  6.3250552282622515e-03  -2.7274062652040292e-02  6.7955638140617100e-02  -9.2788218033956343e-03  -4.9382808489770846e-03  -1.0854007560793036e-02  1.7149636047515755e-02  -2.9305877765433794e-02  2.2039548708780533e-02  -3.7243453811490100e-02  3.9359093501136297e-02  -5.9615015927400518e-02  5.3578915144973920e-02  -4.8739032227751521e-02  2.9211566974203511e-02  -2.0237876175605816e-02  2.8281476993348077e-02  -3.4443708228989685e-02  1.3035775647748439e-02  -2.8260595505162724e-02  1.5254806060285005e-02  -2.7680777109632307e-02  1.3614488976158818e-02  -2.9170084401369960e-02  8.4306290601350170e-03  -3.3081718975052021e-02  -1.2753032952292056e-03  -4.2510173926485220e-02  -1.7427776259872935e-02  -6.6156078100230734e-02  -4.8033778953118701e-02  -1.3597678283218673e-01  -1.0208075441291073e-01  -6.0593195425477406e-02  -8.1022081402276999e-02  4.5055374994598447e-02  -2.6802565037410235e-03  1.2377908490171358e-02  -2.9774900294135299e-02  -3.3179536344258740e-03  -4.8742151842113411e-02  -1.0238755181857247e-01  2.0645409791013761e-02  -4.2932910252966451e-02  1.7791673471155570e-02  2.0249612343899021e-01  9.4418279843441866e-01  4.6586715948362362e-01  1.0748408247090262e+00  5.9396597567620468e-01  1.1802730941421173e+00  4.0393524734749509e-01  9.4553798874521233e-01  1.4347939012129007e-01  1.0143982301751939e+00  1.6835315986058943e-02  8.7035294827214804e-01  -2.1181360670547499e-02  8.4222572185612943e-01  -3.0880926571975512e-02  8.1317957509477901e-01  -1.3996314308804342e-01  1.0758128822545299e+00  -1.1636964350379676e-01  1.0812146296916536e+00  -1.2016180741925650e-01  1.0771206289140396e+00  -1.2583785099966827e-01  1.0718530106727835e+00  -1.3098934074948404e-01  1.0669992700002962e+00  -1.3485765142224310e-01  1.0629860252468903e+00  -1.3720097878092927e-01  1.0596836871408457e+00  -1.3779957337170509e-01  1.0566337747609786e+00  -1.3606395269206784e-01  1.0530154453474208e+00  -1.3057543112463812e-01  1.0472407725913344e+00  -1.1842956727488195e-01  1.0355977654587465e+00  -9.4821574642446074e-02  1.0072155123341673e+00  -5.6410152736019507e-02  9.3859638726782890e-01  4.2458647089930207e-01  1.0643968521597389e+00  8.1802694442415202e-01  1.0677204149916930e+00  9.4249881175165773e-01  1.0099051076888590e+00  9.5598718634897539e-01  9.6677553677022343e-01  9.6505728752569198e-01  9.5651667056434020e-01  1.1456136018835179e+00  1.0993955102873660e+00  1.1619195620725451e+00  1.0233640351199556e+00  6.2978617044301222e-01  5.2885307643410162e-01  6.3049771682402256e-01  7.4766085643871349e-01  8.4137397009360548e-01  9.0268253053999647e-01  9.4060368596261945e-01  9.6366760137987795e-01  9.7766740213707470e-01  9.8619954860673253e-01  9.9143038043929121e-01  9.9465658966070147e-01  9.9665707083577593e-01  9.9790305525468825e-01  9.9868190028392489e-01  9.9917012771875724e-01  9.9947685805273245e-01  9.9966989503569947e-01  9.9979154342674270e-01  9.99868