<?xml version="1.0"?>
<VTKFile type="UnstructuredGrid"  version="0.1"  >
<UnstructuredGrid>
<Piece  NumberOfPoints="21400" NumberOfCells="42336">
<Points>
<DataArray  type="Float64"  NumberOfComponents="3"  format="ascii">0 0 0  0.004583333333333333 0 0  0.009166666666666667 0 0  0.01375 0 0  0.01833333333333333 0 0  0.02291666666666667 0 0  0.0275 0 0  0.03208333333333334 0 0  0.03666666666666667 0 0  0.04125 0 0  0.04583333333333334 0 0  0.05041666666666667 0 0  0.055 0 0  0.05958333333333334 0 0  0.06416666666666668 0 0  0.06875000000000001 0 0  0.07333333333333333 0 0  0.07791666666666666 0 0  0.08249999999999999 0 0  0.08708333333333333 0 0  0.09166666666666667 0 0  0.09625000000000002 0 0  0.1008333333333333 0 0  0.1054166666666667 0 0  0.11 0 0  0.1145833333333333 0 0  0.1191666666666667 0 0  0.12375 0 0  0.1283333333333334 0 0  0.1329166666666667 0 0  0.1375 0 0  0.1420833333333333 0 0  0.1466666666666667 0 0  0.15125 0 0  0.1558333333333333 0 0  0.1604166666666667 0 0  0.165 0 0  0.1695833333333333 0 0  0.1741666666666667 0 0  0.17875 0 0  0.1833333333333333 0 0  0.1879166666666667 0 0  0.1925 0 0  0.1970833333333333 0 0  0.2016666666666667 0 0  0.20625 0 0  0.2108333333333333 0 0  0.2154166666666666 0 0  0.22 0 0  0.2245833333333334 0 0  0.2291666666666667 0 0  0.23375 0 0  0.2383333333333333 0 0  0.2429166666666667 0 0  0.2475 0 0  0.2520833333333333 0 0  0.2566666666666667 0 0  0.26125 0 0  0.2658333333333334 0 0  0.2704166666666666 0 0  0.275 0 0  0.2795833333333334 0 0  0.2841666666666667 0 0  0.28875 0 0  0.2933333333333333 0 0  0.2979166666666667 0 0  0.3025 0 0  0.3070833333333334 0 0  0.3116666666666666 0 0  0.31625 0 0  0.3208333333333333 0 0  0.3254166666666667 0 0  0.33 0 0  0.3345833333333333 0 0  0.3391666666666667 0 0  0.34375 0 0  0.3483333333333333 0 0  0.3529166666666667 0 0  0.3575 0 0  0.3620833333333333 0 0  0.3666666666666667 0 0  0.37125 0 0  0.3758333333333334 0 0  0.3804166666666667 0 0  0.3850000000000001 0 0  0.3895833333333333 0 0  0.3941666666666667 0 0  0.39875 0 0  0.4033333333333334 0 0  0.4079166666666666 0 0  0.4125 0 0  0.4170833333333334 0 0  0.4216666666666667 0 0  0.42625 0 0  0.4308333333333333 0 0  0.4354166666666667 0 0  0.44 0 0  0.4445833333333333 0 0  0.4491666666666667 0 0  0.45375 0 0  0.4583333333333333 0 0  0.4629166666666666 0 0  0.4675 0 0  0.4720833333333334 0 0  0.4766666666666667 0 0  0.4812500000000001 0 0  0.4858333333333333 0 0  0.4904166666666667 0 0  0.495 0 0  0.4995833333333334 0 0  0.5041666666666667 0 0  0.50875 0 0  0.5133333333333334 0 0  0.5179166666666667 0 0  0.5225 0 0  0.5270833333333333 0 0  0.5316666666666667 0 0  0.53625 0 0  0.5408333333333333 0 0  0.5454166666666667 0 0  0.55 0 0  0.5545833333333333 0 0  0.5591666666666667 0 0  0.5637500000000001 0 0  0.5683333333333334 0 0  0.5729166666666666 0 0  0.5775 0 0  0.5820833333333334 0 0  0.5866666666666667 0 0  0.5912499999999999 0 0  0.5958333333333334 0 0  0.6004166666666667 0 0  0.605 0 0  0.6095833333333334 0 0  0.6141666666666667 0 0  0.61875 0 0  0.6233333333333333 0 0  0.6279166666666667 0 0  0.6325000000000001 0 0  0.6370833333333333 0 0  0.6416666666666666 0 0  0.64625 0 0  0.6508333333333334 0 0  0.6554166666666666 0 0  0.6599999999999999 0 0  0.6645833333333334 0 0  0.6691666666666667 0 0  0.67375 0 0  0.6783333333333333 0 0  0.6829166666666667 0 0  0.6875 0 0  0.6920833333333333 0 0  0.6966666666666667 0 0  0.70125 0 0  0.7058333333333333 0 0  0.7104166666666667 0 0  0.7150000000000001 0 0  0.7195833333333334 0 0  0.7241666666666666 0 0  0.72875 0 0  0.7333333333333334 0 0  0.7379166666666667 0 0  0.7425 0 0  0.7470833333333333 0 0  0.7516666666666667 0 0  0.75625 0 0  0.7608333333333334 0 0  0.7654166666666666 0 0  0.7700000000000001 0 0  0 0.002380952380952381 0  0.004583333333333333 0.002380952380952381 0  0.009166666666666667 0.002380952380952381 0  0.01375 0.002380952380952381 0  0.01833333333333333 0.002380952380952381 0  0.02291666666666667 0.002380952380952381 0  0.0275 0.002380952380952381 0  0.03208333333333334 0.002380952380952381 0  0.03666666666666667 0.002380952380952381 0  0.04125 0.002380952380952381 0  0.04583333333333334 0.002380952380952381 0  0.05041666666666667 0.002380952380952381 0  0.055 0.002380952380952381 0  0.05958333333333334 0.002380952380952381 0  0.06416666666666668 0.002380952380952381 0  0.06875000000000001 0.002380952380952381 0  0.07333333333333333 0.002380952380952381 0  0.07791666666666666 0.002380952380952381 0  0.08249999999999999 0.002380952380952381 0  0.08708333333333333 0.002380952380952381 0  0.09166666666666667 0.002380952380952381 0  0.09625000000000002 0.002380952380952381 0  0.1008333333333333 0.002380952380952381 0  0.1054166666666667 0.002380952380952381 0  0.11 0.002380952380952381 0  0.1145833333333333 0.002380952380952381 0  0.1191666666666667 0.002380952380952381 0  0.12375 0.002380952380952381 0  0.1283333333333334 0.002380952380952381 0  0.1329166666666667 0.002380952380952381 0  0.1375 0.002380952380952381 0  0.1420833333333333 0.002380952380952381 0  0.1466666666666667 0.002380952380952381 0  0.15125 0.002380952380952381 0  0.1558333333333333 0.002380952380952381 0  0.1604166666666667 0.002380952380952381 0  0.165 0.002380952380952381 0  0.1695833333333333 0.002380952380952381 0  0.1741666666666667 0.002380952380952381 0  0.17875 0.002380952380952381 0  0.1833333333333333 0.002380952380952381 0  0.1879166666666667 0.002380952380952381 0  0.1925 0.002380952380952381 0  0.1970833333333333 0.002380952380952381 0  0.2016666666666667 0.002380952380952381 0  0.20625 0.002380952380952381 0  0.2108333333333333 0.002380952380952381 0  0.2154166666666666 0.002380952380952381 0  0.22 0.002380952380952381 0  0.2245833333333334 0.002380952380952381 0  0.2291666666666667 0.002380952380952381 0  0.23375 0.002380952380952381 0  0.2383333333333333 0.002380952380952381 0  0.2429166666666667 0.002380952380952381 0  0.2475 0.002380952380952381 0  0.2520833333333333 0.002380952380952381 0  0.2566666666666667 0.002380952380952381 0  0.26125 0.002380952380952381 0  0.2658333333333334 0.002380952380952381 0  0.2704166666666666 0.002380952380952381 0  0.275 0.002380952380952381 0  0.2795833333333334 0.002380952380952381 0  0.2841666666666667 0.002380952380952381 0  0.28875 0.002380952380952381 0  0.2933333333333333 0.002380952380952381 0  0.2979166666666667 0.002380952380952381 0  0.3025 0.002380952380952381 0  0.3070833333333334 0.002380952380952381 0  0.3116666666666666 0.002380952380952381 0  0.31625 0.002380952380952381 0  0.3208333333333333 0.002380952380952381 0  0.3254166666666667 0.002380952380952381 0  0.33 0.002380952380952381 0  0.3345833333333333 0.002380952380952381 0  0.3391666666666667 0.002380952380952381 0  0.34375 0.002380952380952381 0  0.3483333333333333 0.002380952380952381 0  0.3529166666666667 0.002380952380952381 0  0.3575 0.002380952380952381 0  0.3620833333333333 0.002380952380952381 0  0.3666666666666667 0.002380952380952381 0  0.37125 0.002380952380952381 0  0.3758333333333334 0.002380952380952381 0  0.3804166666666667 0.002380952380952381 0  0.3850000000000001 0.002380952380952381 0  0.3895833333333333 0.002380952380952381 0  0.3941666666666667 0.002380952380952381 0  0.39875 0.002380952380952381 0  0.4033333333333334 0.002380952380952381 0  0.4079166666666666 0.002380952380952381 0  0.4125 0.002380952380952381 0  0.4170833333333334 0.002380952380952381 0  0.4216666666666667 0.002380952380952381 0  0.42625 0.002380952380952381 0  0.4308333333333333 0.002380952380952381 0  0.4354166666666667 0.002380952380952381 0  0.44 0.002380952380952381 0  0.4445833333333333 0.002380952380952381 0  0.4491666666666667 0.002380952380952381 0  0.45375 0.002380952380952381 0  0.4583333333333333 0.002380952380952381 0  0.4629166666666666 0.002380952380952381 0  0.4675 0.002380952380952381 0  0.4720833333333334 0.002380952380952381 0  0.4766666666666667 0.002380952380952381 0  0.4812500000000001 0.002380952380952381 0  0.4858333333333333 0.002380952380952381 0  0.4904166666666667 0.002380952380952381 0  0.495 0.002380952380952381 0  0.4995833333333334 0.002380952380952381 0  0.5041666666666667 0.002380952380952381 0  0.50875 0.002380952380952381 0  0.5133333333333334 0.002380952380952381 0  0.5179166666666667 0.002380952380952381 0  0.5225 0.002380952380952381 0  0.5270833333333333 0.002380952380952381 0  0.5316666666666667 0.002380952380952381 0  0.53625 0.002380952380952381 0  0.5408333333333333 0.002380952380952381 0  0.5454166666666667 0.002380952380952381 0  0.55 0.002380952380952381 0  0.5545833333333333 0.002380952380952381 0  0.5591666666666667 0.002380952380952381 0  0.5637500000000001 0.002380952380952381 0  0.5683333333333334 0.002380952380952381 0  0.5729166666666666 0.002380952380952381 0  0.5775 0.002380952380952381 0  0.5820833333333334 0.002380952380952381 0  0.5866666666666667 0.002380952380952381 0  0.5912499999999999 0.002380952380952381 0  0.5958333333333334 0.002380952380952381 0  0.6004166666666667 0.002380952380952381 0  0.605 0.002380952380952381 0  0.6095833333333334 0.002380952380952381 0  0.6141666666666667 0.002380952380952381 0  0.61875 0.002380952380952381 0  0.6233333333333333 0.002380952380952381 0  0.6279166666666667 0.002380952380952381 0  0.6325000000000001 0.002380952380952381 0  0.6370833333333333 0.002380952380952381 0  0.6416666666666666 0.002380952380952381 0  0.64625 0.002380952380952381 0  0.6508333333333334 0.002380952380952381 0  0.6554166666666666 0.002380952380952381 0  0.6599999999999999 0.002380952380952381 0  0.6645833333333334 0.002380952380952381 0  0.6691666666666667 0.002380952380952381 0  0.67375 0.002380952380952381 0  0.6783333333333333 0.002380952380952381 0  0.6829166666666667 0.002380952380952381 0  0.6875 0.002380952380952381 0  0.6920833333333333 0.002380952380952381 0  0.6966666666666667 0.002380952380952381 0  0.70125 0.002380952380952381 0  0.7058333333333333 0.002380952380952381 0  0.7104166666666667 0.002380952380952381 0  0.7150000000000001 0.002380952380952381 
[...]
<PointData  Scalars="concentration"> 
<DataArray  type="Float64"  Name="concentration"  format="ascii">0.0000000000000000e+00  7.8976255845329774e-02  2.2687591852584030e-01  1.7003698696787845e-01  -3.0162129994273999e-02  -1.4172248175266583e-01  -1.8762959995382028e-01  -2.0716034505071926e-01  -2.0321763879285071e-01  -1.2826320202087541e-01  -4.6789451528674711e-02  -6.5475883055705869e-02  -2.6648075842093255e-01  7.1065401927714400e-01  9.9355731427371541e-01  9.6824694691991464e-01  1.0105488171887251e+00  9.4150030978251498e-01  1.0440525847146380e+00  9.0416404432004660e-01  1.0196018923688845e+00  1.0037630422565618e+00  1.0008495692561590e+00  1.0358232871097299e+00  1.0584836856076700e+00  1.0883949559703725e+00  1.2321586130254736e+00  9.7364839499367961e-01  8.7813032439600991e-01  9.6791056193220593e-01  9.8517692741715435e-01  9.9501871821598820e-01  9.9947386487914436e-01  1.0012559124944040e+00  1.0017188124685785e+00  1.0016110843777157e+00  1.0013095964293943e+00  1.0009867964563697e+00  1.0007094334250128e+00  1.0004941220597443e+00  1.0003364911765067e+00  1.0002253762804536e+00  1.0001490744636261e+00  1.0000976600104037e+00  1.0000634997485733e+00  1.0000410451665771e+00  1.0000264068238294e+00  1.0000169256083902e+00  1.0000108160110295e+00  1.0000068950563463e+00  1.0000043868982145e+00  1.0000027866799095e+00  1.0000017678907565e+00  1.0000011203829737e+00  1.0000007094213803e+00  1.0000004488867000e+00  1.0000002838697226e+00  1.0000001794304409e+00  1.0000001133716310e+00  1.0000000716099924e+00  1.0000000452197442e+00  1.0000000285487836e+00  1.0000000180205630e+00  1.0000000113732228e+00  1.0000000071770183e+00  1.0000000045285449e+00  1.0000000028571618e+00  1.0000000018025128e+00  1.0000000011370873e+00  1.0000000007172747e+00  1.0000000004524370e+00  1.0000000002853726e+00  1.0000000001799914e+00  1.0000000001135214e+00  1.0000000000715967e+00  1.0000000000451548e+00  1.0000000000284770e+00  1.0000000000179603e+00  1.0000000000113263e+00  1.0000000000071436e+00  1.0000000000045055e+00  1.0000000000028419e+00  1.0000000000017930e+00  1.0000000000011309e+00  1.0000000000007148e+00  1.0000000000004516e+00  1.0000000000002873e+00  1.0000000000001812e+00  1.0000000000001157e+00  1.0000000000000733e+00  1.0000000000000462e+00  1.0000000000000300e+00  1.0000000000000198e+00  1.0000000000000120e+00  1.0000000000000080e+00  1.0000000000000051e+00  1.0000000000000044e+00  1.0000000000000040e+00  1.0000000000000029e+00  1.0000000000000031e+00  1.0000000000000022e+00  1.0000000000000029e+00  1.0000000000000024e+00  1.0000000000000027e+00  1.0000000000000020e+00  1.0000000000000016e+00  1.0000000000000011e+00  1.0000000000000009e+00  1.0000000000000000e+00  1.0000000000000011e+00  1.0000000000000022e+00  1.0000000000000016e+00  1.0000000000000020e+00  1.0000000000000016e+00  1.0000000000000016e+00  1.0000000000000011e+00  1.0000000000000020e+00  1.0000000000000029e+00  1.0000000000000033e+00  1.0000000000000016e+00  1.0000000000000018e+00  1.0000000000000018e+00  1.0000000000000013e+00  1.0000000000000018e+00  1.0000000000000016e+00  1.0000000000000022e+00  1.0000000000000020e+00  1.0000000000000016e+00  1.0000000000000024e+00  1.0000000000000013e+00  1.0000000000000022e+00  1.0000000000000020e+00  1.0000000000000029e+00  1.0000000000000013e+00  1.0000000000000038e+00  1.0000000000000031e+00  1.0000000000000020e+00  1.0000000000000009e+00  1.0000000000000007e+00  1.0000000000000004e+00  1.0000000000000004e+00  1.0000000000000011e+00  1.0000000000000013e+00  1.0000000000000016e+00  1.0000000000000018e+00  1.0000000000000011e+00  1.0000000000000020e+00  1.0000000000000013e+00  1.0000000000000027e+00  1.0000000000000007e+00  1.0000000000000016e+00  1.0000000000000016e+00  1.0000000000000011e+00  1.0000000000000020e+00  1.0000000000000002e+00  1.0000000000000009e+00  1.0000000000000016e+00  1.0000000000000029e+00  1.0000000000000033e+00  1.0000000000000031e+00  1.0000000000000020e+00  1.0000000000000013e+00  1.0000000000000013e+00  1.0000000000000016e+00  1.0000000000000013e+00  1.0000000000000013e+00  1.0000000000000013e+00  1.0000000000000011e+00  1.0000000000000016e+00  0.0000000000000000e+00  -1.9213267729099221e-02  -1.0207632052342122e-01  6.4220685814084938e-02  6.2146818320896180e-01  8.9588585047493219e-01  9.5800086487345226e-01  9.0534396267536343e-01  9.1838022328230129e-01  2.8936139270366629e-01  1.1515542157410841e-01  4.6969566258096590e-02  4.3877590112695014e-02  4.8486077908391940e-02  4.9100252252904696e-03  1.2676712992933832e-02  -3.4292628388143190e-02  7.0302335877042155e-03  -6.8743108567456634e-02  3.5819717243366529e-02  -4.5487457648532056e-02  -1.3374090125279547e-02  1.3478891631804791e-02  1.6718507773850168e-02  3.8906472895488688e-02  7.7890757113339620e-02  8.6152048139815265e-02  2.0858767770642359e-01  4.7999841102928303e-01  5.6332542352040826e-01  7.0377042442285065e-01  8.0344958578606707e-01  8.7108369164594346e-01  9.1607444315353370e-01  9.4567137122293055e-01  9.6498934167888117e-01  9.7752170886804235e-01  9.8561208137984913e-01  9.9081384492947133e-01  9.9414723830385843e-01  9.9627747912468201e-01  9.9763574795327059e-01  9.9850017930327972e-01  9.9904947476924177e-01  9.9939807715512763e-01  9.9961908156706203e-01  9.9975907189379420e-01  9.9984768289622583e-01  9.9990373915694208e-01  9.9993918392113790e-01  9.9996158702660087e-01  9.9997574244256437e-01  9.9998468414169506e-01  9.9999033118041725e-01  9.9999389685270468e-01  9.9999614795739222e-01  9.9999756895965464e-01  9.9999846586754848e-01  9.9999903192753370e-01  9.9999938915494346e-01  9.9999961457879161e-01  9.9999975682210629e-01  9.9999984657411500e-01  9.9999990320320642e-01  9.9999993893216554e-01  9.9999996147395465e-01  9.9999997569544574e-01  9.9999998466750073e-01  9.9999999032767439e-01  9.9999999389842387e-01  9.9999999615100899e-01  9.9999999757201752e-01  9.9999999846842424e-01  9.9999999903389192e-01  9.9999999939059314e-01  9.9999999961559960e-01  9.9999999975753273e-01  9.9999999984706001e-01  9.9999999990353339e-01  9.9999999993915389e-01  9.9999999996162248e-01  9.9999999997579492e-01  9.9999999998473377e-01  9.9999999999037270e-01  9.9999999999392775e-01  9.9999999999617106e-01  9.9999999999758460e-01  9.9999999999847788e-01  9.9999999999903988e-01  9.9999999999939548e-01  9.9999999999961975e-01  9.9999999999976052e-01  9.9999999999984945e-01  9.9999999999990608e-01  9.9999999999994160e-01  9.9999999999996403e-01  9.9999999999997713e-01  9.9999999999998523e-01  9.9999999999999123e-01  9.9999999999999378e-01  9.9999999999999711e-01  9.9999999999999789e-01  1.0000000000000002e+00  1.0000000000000000e+00  1.0000000000000004e+00  1.0000000000000009e+00  1.0000000000000009e+00  1.0000000000000009e+00  1.0000000000000018e+00  1.0000000000000011e+00  1.0000000000000004e+00  1.0000000000000011e+00  1.0000000000000007e+00  1.0000000000000016e+00  1.0000000000000013e+00  1.0000000000000020e+00  1.0000000000000016e+00  1.0000000000000016e+00  1.0000000000000013e+00  1.0000000000000020e+00  1.0000000000000011e+00  1.0000000000000013e+00  1.0000000000000020e+00  1.0000000000000011e+00  1.0000000000000013e+00  1.0000000000000013e+00  1.0000000000000013e+00  1.0000000000000013e+00  1.0000000000000007e+00  1.0000000000000016e+00  1.0000000000000009e+00  1.0000000000000009e+00  1.0000000000000000e+00  1.0000000000000018e+00  1.0000000000000002e+00  1.0000000000000007e+00  1.0000000000000013e+00  1.0000000000000018e+00  1.0000000000000020e+00  1.0000000000000020e+00  1.0000000000000022e+00  1.0000000000000018e+00  1.0000000000000018e+00  1.0000000000000020e+00  1.0000000000000013e+00  1.0000000000000018e+00  1.0000000000000009e+00  1.0000000000000018e+00  1.0000000000000004e+00  1.0000000000000018e+00  1.0000000000000013e+00  1.0000000000000013e+00  1.0000000000000022e+00  1.0000000000000013e+00  1.0000000000000027e+00  1.0000000000000020e+00  1.0000000000000020e+00  1.0000000000000007e+00  1.0000000000000007e+00  1.0000000000000002e+00  1.0000000000000007e+00  1.0000000000000009e+00  1.0000000000000009e+00  1.0000000000000009e+00  1.0000000000000013e+00  1.0000000000000009e+00  1.0000000000000007e+00  1.0000000000000009e+00  1.0000000000000004e+00  0.0000000000000000e+00  1.1857760812021110e-04  -1.6824222487618539e-02  1.7053740033616813e-01  5.6751180954397448e-02  5.9918801089717033e-02  4.8252443777351391e-02  6.6783100168992693e-02  1.2265942778341508e-02  -5.2119699829322415e-02  -4.4664088317782645e-02  -2.1031696122824860e-02  -8.9043592094677649e-03  -1.9497389324451286e-02  2.4616882152633311e-03  -2.1607741015939895e-02  1.7007892601939981e-02  -2.8767953855105437e-02  5.2285882004356854e-02  -4.6754174903989205e-02  5.1303757386161837e-02  2.8882785745773125e-02  1.4365913913464250e-02  2.4885862193889222e-02  1.5729677190576080e-02  -3.4940217746799590e-03  1.9129484426172502e-02  1.3544185490240107e-02  9.9032479902330280e-03  2.7598082749579256e-01  5.0652086127848694e-01  6.6859153429244744e-01  7.8022656336847096e-01  8.5561847068983576e-01  9.0583153844388375e-01  9.3892691347097312e-01  9.6056673276459847e-01  9.7462891606389479e-01  9.8372263051973841e-01  9.8958071867583874e-01  9.9334283929298828e-01  9.9575293375966534e-01  9.9729380649149724e-01  9.9827735376597371e-01  9.9890432994919842e-01  9.9930357545395299e-01  9.9955758365862135e-01  9.9971907287676431e-01  9.9982168148637951e-01  9.9988684650762349e-01  9.9992821534416920e-01  9.9995446906297381e-01  9.9997112589024251e-01  9.9998169159111150e-01  9.9998839237888226e-01  9.9999264139970812e-01  9.9999533540685903e-01  9.9999704331664341e-01  9.9999812598426585e-01  9.9999881225547982e-01  9.9999924723827016e-01  9.9999952293292216e-01  9.9999969766319041e-01  9.9999980840061098e-01  9.9999987857999428e-01  9.9999992305495300e-01  9.9999995123969454e-01  9.9999996910072064e-01  9.9999998041934690e-01  9.9999998759195230e-01  9.9999999213719271e-01  9.9999999501746728e-01  9.9999999684266061e-01  9.9999999799925643e-01  9.9999999873217060e-01  9.9999999919660498e-01  9.9999999949090623e-01  9.9999999967739983e-01  9.9999999979557552e-01  9.9999999987046195e-01  9.9999999991791499e-01  9.9999999994798461e-01  9.9999999996703948e-01  9.9999999997911349e-01  9.9999999998676592e-01  9.9999999999161315e-01  9.9999999999468592e-01  9.9999999999663269e-01  9.9999999999786693e-01  9.9999999999864830e-01  9.9999999999914346e-01  9.9999999999945755e-01  9.9999999999965683e-01  9.9999999999978295e-01  9.9999999999986300e-01  9.9999999999991340e-01  9.9999999999994638e-01  9.9999999999996669e-01  9.9999999999997891e-01  9.9999999999998801e-01  9.9999999999999201e-01  9.9999999999999567e-01  9.9999999999999678e-01  9.9999999999999845e-01  9.9999999999999900e-01  9.9999999999999933e-01  1.0000000000000000e+00  1.0000000000000004e+00  1.0000000000000002e+00  1.0000000000000011e+00  1.0000000000000016e+00  1.0000000000000011e+00  1.0000000000000009e+00  1.0000000000000007e+00  1.0000000000000011e+00  1.0000000000000002e+00  1.0000000000000007e+00  1.0000000000000007e+00  1.0000000000000011e+00  1.0000000000000007e+00  1.0000000000000013e+00  1.0000000000000016e+00  1.0000000000000013e+00  1.0000000000000016e+00  1.0000000000000013e+00  1.0000000000000016e+00  1.0000000000000011e+00  1.0000000000000009e+00  1.0000000000000009e+00  9.9999999999999944e-01  1.0000000000000004e+00  9.9999999999999944e-01  9.9999999999999967e-01  9.9999999999999800e-01  9.9999999999999878e-01  9.9999999999999967e-01  9.9999999999999989e-01  1.0000000000000004e+00  1.0000000000000011e+00  1.0000000000000009e+00  1.0000000000000007e+00  1.0000000000000009e+00  1.0000000000000009e+00  1.0000000000000011e+00  1.0000000000000020e+00  1.0000000000000013e+00  1.0000000000000016e+00  1.0000000000000009e+00  1.0000000000000018e+00  1.0000000000000004e+00  1.0000000000000011e+00  1.0000000000000009e+00  9.9999999999999978e-01  1.0000000000000009e+00  1.0000000000000002e+00  1.0000000000000004e+00  1.0000000000000004e+00  1.0000000000000011e+00  1.0000000000000013e+00  1.0000000000000016e+00  1.0000000000000011e+00  1.0000000000000018e+00  1.0000000000000016e+00  1.0000000000000009e+00  1.0000000000000004e+00  1.0000000000000009e+00  1.0000000000000004e+00  1.0000000000000000e+00  1.0000000000000004e+00  0.0000000000000000e+00  -4.9391251165995798e-03  3.6079092773593863e-02  -8.8153904020197807e-02  -7.7290830175885360e-03  -1.2601171022331490e-02  -9.7884420572052992e-03  -4.2940317079690829e-02  -4.3234021876295381e-02  -8.2384131780948947e-03  8.9506686115418763e-03  6.5581056305021573e-03  -3.3081500398635822e-03  1.0229642859892123e-02  -8.9387323055101220e-03  1.9505858303511120e-02  -1.5767997406592339e-02  3.8052957289628292e-02  -4.2124480611359635e-02  6.2208208335123701e-02  -5.3514410763876787e-02  -3.6298496335019352e-02  -2.8288288817447708e-02  -4.2052860665148017e-02  -2.8714054628170241e-02  -1.3685746710041573e-02  -2.8314006665416305e-02  4.8407920603380964e-04  1.2392268250688826e-01  3.7719656843129362e-01  5.6137291129294264e-01  6.9620552446281248e-01  7.9322377068134631e-01  8.6132970318014446e-01  9.0809433836219000e-01  9.3964856630526350e-01  9.6065475623045438e-01  9.7449484165778144e-01  9.8354070703592034e-01  9.8941622921269923e-01  9.9321380929568615e-01  9.9565878355590831e-01  9.9722802787864828e-01  9.9823269593800135e-01  9.9887461512223052e-01  9.9928409290276132e-01  9.9954495166673485e-01  9.9971095326508397e-01  9.9981649806355932e-01  9.9988355577465149e-01  9.9992613565733801e-01  9.9995315968429899e-01  9.9997030411641752e-01  9.9998117723924174e-01  9.9998807119974309e-01  9.9999244125798448e-01  9.9999521091845334e-01  9.9999696601345245e-01  9.9999807805485430e-01  9.9999878258070185e-01  9.9999922889037496e-01  9.9999951160315959e-01  9.9999969067596217e-01  9.9999980409688771e-01  9.9999987593247952e-01  9.9999992142835692e-01  9.9999995024163923e-01  9.9999996848915418e-01  9.9999998004513158e-01  9.9999998736330964e-01  9.9999999199771128e-01  9.9999999493252067e-01  9.9999999679101770e-01  9.9999999796792227e-01  9.9999999871319911e-01  9.9999999918514360e-01  9.9999999948400087e-01  9.9999999967324937e-01  9.9999999979309018e-01  9.9999999986897703e-01  9.9999999991703237e-01  9.9999999994746314e-01  9.9999999996673228e-01  9.9999999997893463e-01  9.9999999998666111e-01  9.9999999999155553e-01  9.9999999999465317e-01  9.9999999999661482e-01  9.9999999999785660e-01  9.9999999999864342e-01  9.9999999999914180e-01  9.9999999999945732e-01  9.9999999999965683e-01  9.9999999999978317e-01  9.9999999999986267e-01  9.9999999999991329e-01  9.9999999999994449e-01  9.9999999999996514e-01  9.9999999999997857e-01  9.9999999999998579e-01  9.9999999999999245e-01  9.9999999999999523e-01  9.9999999999999778e-01  9.9999999999999856e-01  9.9999999999999944e-01  9.9999999999999978e-01  1.0000000000000002e+00  1.0000000000000007e+00  1.0000000000000009e+00  1.0000000000000009e+00  1.0000000000000004e+00  1.0000000000000011e+00  1.0000000000000011e+00  1.0000000000000013e+00  1.0000000000000007e+00  1.0000000000000016e+00  1.0000000000000011e+00  1.0000000000000009e+00  1.0000000000000009e+00  1.0000000000000009e+00  1.0000000000000000e+00  1.0000000000000000e+00  1.0000000000000007e+00  1.0000000000000004e+00  1.0000000000000004e+00  9.9999999999999944e-01  9.9999999999999978e-01  1.0000000000000002e+00  1.0000000000000000e+00  1.0000000000000011e+00  9.9999999999999989e-01  1.0000000000000002e+00  9.9999999999999978e-01  1.0000000000000000e+00  1.0000000000000002e+00  9.9999999999999967e-01  9.9999999999999989e-01  9.9999999999999989e-01  9.9999999999999944e-01  1.0000000000000002e+00  1.0000000000000004e+00  1.0000000000000004e+00  1.0000000000000000e+00  1.0000000000000007e+00  1.0000000000000002e+00  1.0000000000000009e+00  1.0000000000000004e+00  1.0000000000000011e+00  1.0000000000000000e+00  1.0000000000000013e+00  1.0000000000000007e+00  1.0000000000000002e+00  1.0000000000000016e+00  1.0000000000000007e+00  1.0000000000000011e+00  1.0000000000000009e+00  1.0000000000000011e+00  1.0000000000000004e+00  1.0000000000000004e+00  1.0000000000000007e+00  1.0000000000000009e+00  1.0000000000000002e+00  1.0000000000000011e+00  1.0000000000000011e+00  1.0000000000000013e+00  1.0000000000000009e+00  1.0000000000000013e+00  1.0000000000000013e+00  1.0000000000000007e+00  0.0000000000000000e+00  9.5562106749251148e-03  -3.4396250504048854e-02  4.8521663040581565e-02  -6.5860704093932817e-03  -4.7488655185166451e-03  -1.4903341279974697e-02  3.5277682562259278e-03  1.9621650342928197e-02  1.2258371580068686e-02  2.9465657203742797e-03  -1.3329759393187212e-03  8.1180271077601496e-03  -5.8428907986492491e-03  1.4470597470028960e-02  -1.3118971501667817e-02  2.4182933908883025e-02  -3.5330250411397222e-02  4.1128142922198886e-02  -8.7210998057648079e-02  4.2681488929972360e-02  2.7654137425253536e-02  1.6905874683549527e-02  1.9938411641274238e-02  -1.0687825831588381e-02  -2.4448360687155151e-02  -1.7068886225395548e-02  -7.8715019451003482e-02  2.5782317476072975e-01  4.5211607382809904e-01  6.1877806300318761e-01  7.3939091441112426e-01  8.2406337422021159e-01  8.8248338252873293e-01  9.2222904852741461e-01  9.4893593204454796e-01  9.6669079346451170e-01  9.7838933497816549e-01  9.8604101233252894e-01  9.9101588665864027e-01  9.9423470727270913e-01  9.9630913794139508e-01  9.9764177188619696e-01  9.9849564390157131e-01  9.9904159616140031e-01  9.9939006688527776e-01  9.9961217537539415e-01  9.9975357975010226e-01  9.9984351917688230e-01  9.9990068032341195e-01  9.9993698609521398e-01  9.9996003358923324e-01  9.9997465823861276e-01  9.9998393495031512e-01  9.9998981765010109e-01  9.9999354719345923e-01  9.9999591120355646e-01  9.9999740941381354e-01  9.9999835879010668e-01  9.9999896031885127e-01  9.9999934141554381e-01  9.9999958284023338e-01  9.9999973577337042e-01  9.9999983264567027e-01  9.9999989400485811e-01  9.9999993286861300e-01  9.9999995748349091e-01  9.9999997307329180e-01  9.9999998294688519e-01  9.9999998920009525e-01  9.9999999316036958e-01  9.9999999566845776e-01  9.9999999725684741e-01  9.9999999826277741e-01  9.9999999889983082e-01  9.9999999930327432e-01  9.9999999955877128e-01  9.9999999972057629e-01  9.9999999982304466e-01  9.9999999988793720e-01  9.9999999992903221e-01  9.9999999995505762e-01  9.9999999997153921e-01  9.9999999998197642e-01  9.9999999998858669e-01  9.9999999999277145e-01  9.9999999999542299e-01  9.9999999999710221e-01  9.9999999999816569e-01  9.9999999999883848e-01  9.9999999999926459e-01  9.9999999999953437e-01  9.9999999999970535e-01  9.9999999999981337e-01  9.9999999999988221e-01  9.9999999999992606e-01  9.9999999999995381e-01  9.9999999999997036e-01  9.9999999999998090e-01  9.9999999999998967e-01  9.9999999999999289e-01  9.9999999999999678e-01  9.9999999999999722e-01  9.9999999999999878e-01  9.9999999999999944e-01  9.9999999999999978e-01  9.9999999999999956e-01  1.0000000000000000e+00  1.0000000000000004e+00  1.0000000000000009e+00  1.0000000000000011e+00  1.0000000000000007e+00  1.0000000000000004e+00  1.0000000000000004e+00  1.0000000000000016e+00  1.0000000000000011e+00  1.0000000000000013e+00  1.0000000000000018e+00  1.0000000000000020e+00  1.0000000000000016e+00  1.0000000000000013e+00  1.0000000000000009e+00  1.0000000000000004e+00  1.0000000000000007e+00  1.0000000000000004e+00  1.0000000000000018e+00  1.0000000000000004e+00  1.0000000000000007e+00  1.0000000000000009e+00  9.9999999999999967e-01  1.0000000000000007e+00  1.0000000000000004e+00  1.0000000000000009e+00  1.0000000000000004e+00  1.0000000000000002e+00  1.0000000000000009e+00  1.0000000000000007e+00  1.0000000000000009e+00  1.0000000000000013e+00  1.0000000000000002e+00  1.0000000000000002e+00  1.0000000000000007e+00  1.0000000000000013e+00  1.0000000000000000e+00  1.0000000000000007e+00  9.9999999999999978e-01  1.0000000000000004e+00  1.0000000000000002e+00  1.0000000000000018e+00  1.0000000000000011e+00  1.00000000000000