<?xml version="1.0"?>
<VTKFile type="UnstructuredGrid"  version="0.1"  >
<UnstructuredGrid>
<Piece  NumberOfPoints="21400" NumberOfCells="42336">
<Points>
<DataArray  type="Float64"  NumberOfComponents="3"  format="ascii">0 0 0  0.004583333333333333 0 0  0.009166666666666667 0 0  0.01375 0 0  0.01833333333333333 0 0  0.02291666666666667 0 0  0.0275 0 0  0.03208333333333334 0 0  0.03666666666666667 0 0  0.04125 0 0  0.04583333333333334 0 0  0.05041666666666667 0 0  0.055 0 0  0.05958333333333334 0 0  0.06416666666666668 0 0  0.06875000000000001 0 0  0.07333333333333333 0 0  0.07791666666666666 0 0  0.08249999999999999 0 0  0.08708333333333333 0 0  0.09166666666666667 0 0  0.09625000000000002 0 0  0.1008333333333333 0 0  0.1054166666666667 0 0  0.11 0 0  0.1145833333333333 0 0  0.1191666666666667 0 0  0.12375 0 0  0.1283333333333334 0 0  0.1329166666666667 0 0  0.1375 0 0  0.1420833333333333 0 0  0.1466666666666667 0 0  0.15125 0 0  0.1558333333333333 0 0  0.1604166666666667 0 0  0.165 0 0  0.1695833333333333 0 0  0.1741666666666667 0 0  0.17875 0 0  0.1833333333333333 0 0  0.1879166666666667 0 0  0.1925 0 0  0.1970833333333333 0 0  0.2016666666666667 0 0  0.20625 0 0  0.2108333333333333 0 0  0.2154166666666666 0 0  0.22 0 0  0.2245833333333334 0 0  0.2291666666666667 0 0  0.23375 0 0  0.2383333333333333 0 0  0.2429166666666667 0 0  0.2475 0 0  0.2520833333333333 0 0  0.2566666666666667 0 0  0.26125 0 0  0.2658333333333334 0 0  0.2704166666666666 0 0  0.275 0 0  0.2795833333333334 0 0  0.2841666666666667 0 0  0.28875 0 0  0.2933333333333333 0 0  0.2979166666666667 0 0  0.3025 0 0  0.3070833333333334 0 0  0.3116666666666666 0 0  0.31625 0 0  0.3208333333333333 0 0  0.3254166666666667 0 0  0.33 0 0  0.3345833333333333 0 0  0.3391666666666667 0 0  0.34375 0 0  0.3483333333333333 0 0  0.3529166666666667 0 0  0.3575 0 0  0.3620833333333333 0 0  0.3666666666666667 0 0  0.37125 0 0  0.3758333333333334 0 0  0.3804166666666667 0 0  0.3850000000000001 0 0  0.3895833333333333 0 0  0.3941666666666667 0 0  0.39875 0 0  0.4033333333333334 0 0  0.4079166666666666 0 0  0.4125 0 0  0.4170833333333334 0 0  0.4216666666666667 0 0  0.42625 0 0  0.4308333333333333 0 0  0.4354166666666667 0 0  0.44 0 0  0.4445833333333333 0 0  0.4491666666666667 0 0  0.45375 0 0  0.4583333333333333 0 0  0.4629166666666666 0 0  0.4675 0 0  0.4720833333333334 0 0  0.4766666666666667 0 0  0.4812500000000001 0 0  0.4858333333333333 0 0  0.4904166666666667 0 0  0.495 0 0  0.4995833333333334 0 0  0.5041666666666667 0 0  0.50875 0 0  0.5133333333333334 0 0  0.5179166666666667 0 0  0.5225 0 0  0.5270833333333333 0 0  0.5316666666666667 0 0  0.53625 0 0  0.5408333333333333 0 0  0.5454166666666667 0 0  0.55 0 0  0.5545833333333333 0 0  0.5591666666666667 0 0  0.5637500000000001 0 0  0.5683333333333334 0 0  0.5729166666666666 0 0  0.5775 0 0  0.5820833333333334 0 0  0.5866666666666667 0 0  0.5912499999999999 0 0  0.5958333333333334 0 0  0.6004166666666667 0 0  0.605 0 0  0.6095833333333334 0 0  0.6141666666666667 0 0  0.61875 0 0  0.6233333333333333 0 0  0.6279166666666667 0 0  0.6325000000000001 0 0  0.6370833333333333 0 0  0.6416666666666666 0 0  0.64625 0 0  0.6508333333333334 0 0  0.6554166666666666 0 0  0.6599999999999999 0 0  0.6645833333333334 0 0  0.6691666666666667 0 0  0.67375 0 0  0.6783333333333333 0 0  0.6829166666666667 0 0  0.6875 0 0  0.6920833333333333 0 0  0.6966666666666667 0 0  0.70125 0 0  0.7058333333333333 0 0  0.7104166666666667 0 0  0.7150000000000001 0 0  0.7195833333333334 0 0  0.7241666666666666 0 0  0.72875 0 0  0.7333333333333334 0 0  0.7379166666666667 0 0  0.7425 0 0  0.7470833333333333 0 0  0.7516666666666667 0 0  0.75625 0 0  0.7608333333333334 0 0  0.7654166666666666 0 0  0.7700000000000001 0 0  0 0.002380952380952381 0  0.004583333333333333 0.002380952380952381 0  0.009166666666666667 0.002380952380952381 0  0.01375 0.002380952380952381 0  0.01833333333333333 0.002380952380952381 0  0.02291666666666667 0.002380952380952381 0  0.0275 0.002380952380952381 0  0.03208333333333334 0.002380952380952381 0  0.03666666666666667 0.002380952380952381 0  0.04125 0.002380952380952381 0  0.04583333333333334 0.002380952380952381 0  0.05041666666666667 0.002380952380952381 0  0.055 0.002380952380952381 0  0.05958333333333334 0.002380952380952381 0  0.06416666666666668 0.002380952380952381 0  0.06875000000000001 0.002380952380952381 0  0.07333333333333333 0.002380952380952381 0  0.07791666666666666 0.002380952380952381 0  0.08249999999999999 0.002380952380952381 0  0.08708333333333333 0.002380952380952381 0  0.09166666666666667 0.002380952380952381 0  0.09625000000000002 0.002380952380952381 0  0.1008333333333333 0.002380952380952381 0  0.1054166666666667 0.002380952380952381 0  0.11 0.002380952380952381 0  0.1145833333333333 0.002380952380952381 0  0.1191666666666667 0.002380952380952381 0  0.12375 0.002380952380952381 0  0.1283333333333334 0.002380952380952381 0  0.1329166666666667 0.002380952380952381 0  0.1375 0.002380952380952381 0  0.1420833333333333 0.002380952380952381 0  0.1466666666666667 0.002380952380952381 0  0.15125 0.002380952380952381 0  0.1558333333333333 0.002380952380952381 0  0.1604166666666667 0.002380952380952381 0  0.165 0.002380952380952381 0  0.1695833333333333 0.002380952380952381 0  0.1741666666666667 0.002380952380952381 0  0.17875 0.002380952380952381 0  0.1833333333333333 0.002380952380952381 0  0.1879166666666667 0.002380952380952381 0  0.1925 0.002380952380952381 0  0.1970833333333333 0.002380952380952381 0  0.2016666666666667 0.002380952380952381 0  0.20625 0.002380952380952381 0  0.2108333333333333 0.002380952380952381 0  0.2154166666666666 0.002380952380952381 0  0.22 0.002380952380952381 0  0.2245833333333334 0.002380952380952381 0  0.2291666666666667 0.002380952380952381 0  0.23375 0.002380952380952381 0  0.2383333333333333 0.002380952380952381 0  0.2429166666666667 0.002380952380952381 0  0.2475 0.002380952380952381 0  0.2520833333333333 0.002380952380952381 0  0.2566666666666667 0.002380952380952381 0  0.26125 0.002380952380952381 0  0.2658333333333334 0.002380952380952381 0  0.2704166666666666 0.002380952380952381 0  0.275 0.002380952380952381 0  0.2795833333333334 0.002380952380952381 0  0.2841666666666667 0.002380952380952381 0  0.28875 0.002380952380952381 0  0.2933333333333333 0.002380952380952381 0  0.2979166666666667 0.002380952380952381 0  0.3025 0.002380952380952381 0  0.3070833333333334 0.002380952380952381 0  0.3116666666666666 0.002380952380952381 0  0.31625 0.002380952380952381 0  0.3208333333333333 0.002380952380952381 0  0.3254166666666667 0.002380952380952381 0  0.33 0.002380952380952381 0  0.3345833333333333 0.002380952380952381 0  0.3391666666666667 0.002380952380952381 0  0.34375 0.002380952380952381 0  0.3483333333333333 0.002380952380952381 0  0.3529166666666667 0.002380952380952381 0  0.3575 0.002380952380952381 0  0.3620833333333333 0.002380952380952381 0  0.3666666666666667 0.002380952380952381 0  0.37125 0.002380952380952381 0  0.3758333333333334 0.002380952380952381 0  0.3804166666666667 0.002380952380952381 0  0.3850000000000001 0.002380952380952381 0  0.3895833333333333 0.002380952380952381 0  0.3941666666666667 0.002380952380952381 0  0.39875 0.002380952380952381 0  0.4033333333333334 0.002380952380952381 0  0.4079166666666666 0.002380952380952381 0  0.4125 0.002380952380952381 0  0.4170833333333334 0.002380952380952381 0  0.4216666666666667 0.002380952380952381 0  0.42625 0.002380952380952381 0  0.4308333333333333 0.002380952380952381 0  0.4354166666666667 0.002380952380952381 0  0.44 0.002380952380952381 0  0.4445833333333333 0.002380952380952381 0  0.4491666666666667 0.002380952380952381 0  0.45375 0.002380952380952381 0  0.4583333333333333 0.002380952380952381 0  0.4629166666666666 0.002380952380952381 0  0.4675 0.002380952380952381 0  0.4720833333333334 0.002380952380952381 0  0.4766666666666667 0.002380952380952381 0  0.4812500000000001 0.002380952380952381 0  0.4858333333333333 0.002380952380952381 0  0.4904166666666667 0.002380952380952381 0  0.495 0.002380952380952381 0  0.4995833333333334 0.002380952380952381 0  0.5041666666666667 0.002380952380952381 0  0.50875 0.002380952380952381 0  0.5133333333333334 0.002380952380952381 0  0.5179166666666667 0.002380952380952381 0  0.5225 0.002380952380952381 0  0.5270833333333333 0.002380952380952381 0  0.5316666666666667 0.002380952380952381 0  0.53625 0.002380952380952381 0  0.5408333333333333 0.002380952380952381 0  0.5454166666666667 0.002380952380952381 0  0.55 0.002380952380952381 0  0.5545833333333333 0.002380952380952381 0  0.5591666666666667 0.002380952380952381 0  0.5637500000000001 0.002380952380952381 0  0.5683333333333334 0.002380952380952381 0  0.5729166666666666 0.002380952380952381 0  0.5775 0.002380952380952381 0  0.5820833333333334 0.002380952380952381 0  0.5866666666666667 0.002380952380952381 0  0.5912499999999999 0.002380952380952381 0  0.5958333333333334 0.002380952380952381 0  0.6004166666666667 0.002380952380952381 0  0.605 0.002380952380952381 0  0.6095833333333334 0.002380952380952381 0  0.6141666666666667 0.002380952380952381 0  0.61875 0.002380952380952381 0  0.6233333333333333 0.002380952380952381 0  0.6279166666666667 0.002380952380952381 0  0.6325000000000001 0.002380952380952381 0  0.6370833333333333 0.002380952380952381 0  0.6416666666666666 0.002380952380952381 0  0.64625 0.002380952380952381 0  0.6508333333333334 0.002380952380952381 0  0.6554166666666666 0.002380952380952381 0  0.6599999999999999 0.002380952380952381 0  0.6645833333333334 0.002380952380952381 0  0.6691666666666667 0.002380952380952381 0  0.67375 0.002380952380952381 0  0.6783333333333333 0.002380952380952381 0  0.6829166666666667 0.002380952380952381 0  0.6875 0.002380952380952381 0  0.6920833333333333 0.002380952380952381 0  0.6966666666666667 0.002380952380952381 0  0.70125 0.002380952380952381 0  0.7058333333333333 0.002380952380952381 0  0.7104166666666667 0.002380952380952381 0  0.7150000000000001 0.002380952380952381 
[...]
<PointData  Scalars="concentration"> 
<DataArray  type="Float64"  Name="concentration"  format="ascii">0.0000000000000000e+00  8.0093010073159818e-02  2.3034658507622927e-01  1.7610658103426688e-01  -2.3230118807825807e-02  -1.3066558821116261e-01  -1.7179058376909667e-01  -1.8850868754228495e-01  -1.7735640469124242e-01  -7.9930407417034152e-02  1.1116855268336046e-02  6.9090736610431629e-03  7.5012230769154658e-03  -1.4190171369512171e-03  7.0377072203170144e-03  -1.0023275121855579e-02  1.6357055545377010e-02  -1.3124966174646932e-02  -8.0732177761499470e-03  2.3581344882553826e-02  -2.2595471099487181e-02  1.7796994493202496e-02  -1.2520738907011417e-02  2.1806707254196287e-02  -2.6385716276088027e-02  1.3797373769813463e-02  -6.2688217239017532e-04  7.1660323513722179e-03  -1.0170778546922566e-02  1.8667079263938156e-02  -1.5716825984383110e-02  2.6048519112244310e-02  -2.1469560701754372e-02  3.5917160539892530e-02  3.8649970689360386e-01  1.0347496093329231e+00  9.9581616640324155e-01  1.0438254947959795e+00  1.0240390728236604e+00  1.1510261945921387e+00  8.7705877473996463e-01  1.0932456814402014e+00  8.7296046863575083e-01  1.0857686354750788e+00  8.7247637795036725e-01  1.0869852141180962e+00  8.6921587200045991e-01  1.0902833516564872e+00  8.6386624853017169e-01  1.0952330323625192e+00  8.5666060438048530e-01  1.0991900713335794e+00  8.4075756609171759e-01  1.0725057878047803e+00  8.4174374606180258e-01  1.1442682533768735e+00  8.1055880455593432e-01  1.2312943988817415e+00  9.6690253361822776e-01  9.5399651453421153e-01  1.0125156790436394e+00  9.8160404830259040e-01  9.3461015456071028e-01  1.1512699137724554e+00  9.7706411107356861e-01  9.7554040725464419e-01  9.2574587752179904e-01  1.1025485498550753e+00  8.9896523880650392e-01  1.0560164534941672e+00  9.7080651616225244e-01  9.7712845801490811e-01  6.8067645864768156e-01  1.1187684473042416e+00  8.0257239812039494e-01  1.2405428231993871e+00  6.9552158044268841e-01  1.2306857482993632e+00  7.1374186375577042e-01  1.2789463720362870e+00  7.4505686005280314e-01  1.2657757790604527e+00  7.6480154855401483e-01  1.2131361843608113e+00  7.7991653888243218e-01  1.2067783349957184e+00  7.9410608206404310e-01  1.2040199746964577e+00  8.0004097351899717e-01  1.1971029453883866e+00  8.0820640753306716e-01  1.1842791808555708e+00  8.2240586766144830e-01  1.1584369670719390e+00  8.5025904192253798e-01  1.1084971990909314e+00  9.1693951972847687e-01  1.0630743163905663e+00  9.5285471099210250e-01  1.0246337793472902e+00  9.7752343825105570e-01  1.0035822866875566e+00  9.9104692421868434e-01  9.9643277005838682e-01  1.0008237682462564e+00  9.9376727480869997e-01  1.0140866077196276e+00  9.9739427695401028e-01  1.0327301059916481e+00  9.9181693009410143e-01  1.0563704582584057e+00  1.0192975832785809e+00  1.2638196957745251e+00  8.9002174390534483e-01  9.4236098038545602e-01  9.7023785276201246e-01  9.8877808940557244e-01  9.9673802303139492e-01  9.9992527330586067e-01  1.0009773151087289e+00  1.0011496906599748e+00  1.0010053630388835e+00  1.0007826166429419e+00  1.0005728358576731e+00  1.0004037544124160e+00  1.0002774760122750e+00  1.0001872985895222e+00  1.0001247580691468e+00  1.0000822613030247e+00  1.0000538124186473e+00  1.0000349814638989e+00  1.0000226253702098e+00  1.0000145735926262e+00  1.0000093556262450e+00  1.0000059892225581e+00  1.0000038252981409e+00  1.0000024385098838e+00  1.0000015519755641e+00  1.0000009864133461e+00  1.0000006262386649e+00  1.0000003971962601e+00  1.0000002517209641e+00  1.0000001594177494e+00  1.0000001009026080e+00  1.0000000638343887e+00  1.0000000403669318e+00  1.0000000255177646e+00  1.0000000161260585e+00  1.0000000101883053e+00  1.0000000064354677e+00  1.0000000040642141e+00  1.0000000025662741e+00  1.0000000016202024e+00  1.0000000010227856e+00  1.0000000006455849e+00  1.0000000004074610e+00  1.0000000002571452e+00  1.0000000001622746e+00  1.0000000001023943e+00  1.0000000000646074e+00  1.0000000000407594e+00  1.0000000000257125e+00  1.0000000000162153e+00  1.0000000000102232e+00  1.0000000000064406e+00  1.0000000000040425e+00  1.0000000000025868e+00  1.0000000000014027e+00  1.0000000000018596e+00  0.0000000000000000e+00  -1.8716589448744915e-02  -1.0171041817549636e-01  6.5387979829172160e-02  6.2679714676441112e-01  9.0465125997009976e-01  9.6998321501977247e-01  9.2656085656327003e-01  9.4138410416148954e-01  3.0985431854953188e-01  1.3929879914173718e-01  8.3870701622830029e-02  4.7640260396351421e-02  3.4977556635721267e-02  1.3952003736781595e-02  2.2527174664496566e-02  -7.7574525124609675e-03  1.9481039634039819e-02  9.4510467937900852e-03  -2.1267600641191795e-02  2.4397172321497081e-02  -1.7109386126931421e-02  1.3671400046644465e-02  -1.9160947086677791e-02  2.8445368755787969e-02  -1.3553583204316943e-02  2.5158359117289624e-03  -4.0790141626792517e-03  1.3042929022095995e-02  -1.4321099667059798e-02  2.0608609237807309e-02  -1.8966934931490726e-02  2.9339602338710503e-02  -2.3092542077449481e-02  -1.4437681178204761e-02  -4.0295817879356287e-02  3.0556164817100551e-02  9.9508966009669939e-03  7.8108435576600882e-02  7.2466612327513474e-02  7.4212636647133579e-01  3.0002161326020438e-01  8.0643665953048249e-01  3.1114532238669584e-01  8.0395871139563169e-01  3.1292959215959665e-01  7.9930760614829843e-01  3.1667386899502298e-01  7.9487887049191541e-01  3.2290120693461011e-01  7.9115171495819248e-01  3.3219279633324228e-01  7.8653632281105379e-01  3.3354845095741942e-01  6.8013824772305909e-01  2.9660896112737467e-01  7.2338218675192145e-01  3.1509748072168242e-01  8.1965468460464097e-01  1.0444899918869481e+00  9.6748996951785704e-01  1.0043864700169827e+00  9.9923945330147446e-01  7.7160086307200659e-01  1.1060478455996638e+00  1.0846281715734090e+00  1.0698731275631628e+00  8.4450637426380903e-01  1.1178257951487347e+00  8.7462856278356560e-01  1.0059573454505419e+00  9.5519890638071747e-01  1.0702197924369847e+00  1.7732610975204302e-01  2.7595867326389578e-01  -1.1284701723499486e-01  3.2495432562655230e-01  -1.5246329378948428e-01  2.3573524321612030e-01  -2.0543357244014812e-01  2.2503952873279717e-01  -2.0164222043769944e-01  2.2054835374800297e-01  -1.5901690138747376e-01  1.9038439438072569e-01  -1.5089129665405776e-01  1.7878527624374982e-01  -1.5387981120964772e-01  1.7207407567714050e-01  -1.5201213060225519e-01  1.6457272667759310e-01  -1.4529640871857485e-01  1.5077097276890683e-01  -1.3219586731124325e-01  1.1990527186635899e-01  -1.0998210568411232e-01  4.9992360970810279e-02  -7.5607584603723965e-02  2.1777672486719194e-02  -3.8688742365132749e-02  4.7020031731694008e-04  -2.4121283503174083e-02  -1.5440918418900799e-02  -2.1592792059866844e-02  -2.3405657689793958e-02  -1.5602931686260851e-02  -2.2548972557856112e-02  4.7802139052120617e-03  3.7201427230264990e-03  4.5626124853299671e-02  2.0253692148255023e-02  8.9631861003649865e-02  4.8091025153989249e-03  2.2331687856602181e-01  4.2988288812311187e-01  6.4188458325224929e-01  7.7871216176452873e-01  8.6202737332253376e-01  9.1353461222290477e-01  9.4565294971870328e-01  9.6578139298393428e-01  9.7843229039900337e-01  9.8639723855368044e-01  9.9141727423615156e-01  9.9458334178706931e-01  9.9658097382412592e-01  9.9784170898766489e-01  9.9863750253122652e-01  9.9913986322366433e-01  9.9945700262800918e-01  9.9965721523668827e-01  9.9978361060534404e-01  9.9986340351618430e-01  9.9991377535468440e-01  9.9994557336504619e-01  9.9996564579513525e-01  9.9997831611651966e-01  9.9998631378067482e-01  9.9999136186925908e-01  9.9999454811738919e-01  9.9999655916177754e-01  9.9999782843112073e-01  9.9999862951247098e-01  9.9999913509347393e-01  9.9999945417137603e-01  9.9999965554152026e-01  9.9999978262417233e-01  9.9999986282349973e-01  9.9999991343495342e-01  9.9999994537392178e-01  9.9999996552912640e-01  9.9999997824798215e-01  9.9999998627406528e-01  9.9999999133876860e-01  9.9999999453471866e-01  9.9999999655141281e-01  9.9999999782397031e-01  9.9999999862695355e-01  9.9999999913363680e-01  9.9999999945334495e-01  9.9999999965507602e-01  9.9999999978236065e-01  9.9999999986267374e-01  9.9999999991334443e-01  9.9999999994531519e-01  9.9999999996548539e-01  9.9999999997819333e-01  9.9999999998623013e-01  9.9999999999133582e-01  0.0000000000000000e+00  5.9581464119893050e-04  -1.5844286803867652e-02  1.7261298332020936e-01  5.8494671903071803e-02  6.2628149178686782e-02  5.3129389949791710e-02  7.2314249771788200e-02  2.1983456257894097e-02  -4.0557827884071078e-02  -3.6805989655392057e-02  -2.7551535409988507e-02  -1.4448561242952506e-02  -1.4710612886647561e-02  -2.0358053020825134e-03  -1.4154360547383071e-02  1.1956192485003739e-02  -2.1093244928453773e-02  9.1049595829327556e-04  2.3964848816443212e-02  -2.5957765765097958e-02  2.2025900432178665e-02  -1.4266967357404601e-02  1.6579571123026392e-02  -3.0782553970713455e-02  2.2622735129351288e-02  -1.1242381614177763e-03  4.0808255203500796e-03  -1.0424244322768759e-02  1.7162155545362462e-02  -1.8255938978091878e-02  2.2635911887520833e-02  -2.4813554092194830e-02  2.9330403976302453e-02  -8.0800368747948395e-03  4.4139335385479664e-02  -1.3139691100874469e-02  3.0866752563338460e-02  -1.3693922191537313e-02  3.7939982042509042e-02  -8.2214883191484220e-02  -1.1245671748759274e-02  -7.2060553704777291e-02  -1.6913597049651532e-03  -6.4270154308793667e-02  4.2900415226801358e-03  -5.8684622480580838e-02  8.2422668962584510e-03  -5.2680446148229886e-02  1.2774958780998392e-02  -4.4221404149872238e-02  2.1192257529310234e-02  -2.8967440272738204e-02  4.6003070983931207e-02  6.4616862583758644e-03  2.8946296309394649e-02  -4.8504543388617524e-02  -2.1468691642009988e-02  -6.2597645781861194e-02  -7.0823100286909663e-02  -2.1102004984483048e-02  -3.1140671675181836e-02  -8.3129775961398294e-03  7.1929819841636683e-02  -1.2318496179940454e-01  -4.9753871321838603e-02  -5.6046341882629420e-02  2.9970466949985321e-02  -1.2020007128507609e-01  2.8121383289031136e-02  -6.1896894992253121e-02  -2.9730832020393790e-02  -1.3769468036151231e-01  6.2900891858187036e-02  -1.5905571661267501e-01  1.5998983458517843e-01  -3.3043691477790144e-01  1.6613110352312599e-01  -2.4558949296793800e-01  2.0188624405016395e-01  -2.5012656434460967e-01  2.0210489375737345e-01  -2.3975321973574876e-01  1.7237288039970280e-01  -1.9230667908435184e-01  1.6776476203707405e-01  -1.7450508340804458e-01  1.7794020652671733e-01  -1.6173757254815330e-01  1.8191928402462457e-01  -1.4867674293028987e-01  1.8097201544610583e-01  -1.2923760980896981e-01  1.7315588912955948e-01  -9.4617913435835185e-02  1.5129930057138952e-01  -3.0999778064212107e-02  9.7027641967969647e-02  -1.5761440759216448e-02  4.5172016011150902e-02  -2.3146001251944113e-03  2.0663252568343914e-02  6.1548052183893814e-03  8.0822580082194461e-03  4.2663731800095901e-03  -8.0491766330136223e-03  -4.6507048682391553e-03  -3.3133685213694794e-02  -2.7558496133013623e-02  -5.9938321885165312e-02  -2.1943398070890671e-02  -7.3450152968204716e-02  3.1190614450548142e-02  -7.2767691736091294e-02  1.2224733999597212e-01  4.4268857714503929e-01  6.5432576464436221e-01  7.8526307712473686e-01  8.6626450258475429e-01  9.1646112761670129e-01  9.4767189652466644e-01  9.6714445472381483e-01  9.7933088312715610e-01  9.8697715538796438e-01  9.9178477969781409e-01  9.9481261824850986e-01  9.9672204406352338e-01  9.9792740750041586e-01  9.9868892871034431e-01  9.9917034387840209e-01  9.9947483398124215e-01  9.9966749647713393e-01  9.9978943944758236e-01  9.9986664075289400e-01  9.9991552617908752e-01  9.9994648641044837e-01  9.9996609677471993e-01  9.9997851939346161e-01  9.9998638945568918e-01  9.9999137570326746e-01  9.9999453503069791e-01  9.9999653690165191e-01  9.9999780541344052e-01  9.9999860924850636e-01  9.9999911863914737e-01  9.9999944144734265e-01  9.9999964601928992e-01  9.9999977566381848e-01  9.9999985782520995e-01  9.9999990989501231e-01  9.9999994289455207e-01  9.9999996380835499e-01  9.9999997706277666e-01  9.9999998546300028e-01  9.9999999078680957e-01  9.9999999416089658e-01  9.9999999629930247e-01  9.9999999765457637e-01  9.9999999851351384e-01  9.9999999905789094e-01  9.9999999940290341e-01  9.9999999962156616e-01  9.9999999976014620e-01  9.9999999984797516e-01  9.9999999990363375e-01  9.9999999993890765e-01  9.9999999996125144e-01  9.9999999997544098e-01  9.9999999998431832e-01  0.0000000000000000e+00  -4.8960709752693676e-03  3.6122827961316342e-02  -8.7534897431035888e-02  -5.6159958889061262e-03  -9.8509500935290133e-03  -7.2582135008668778e-03  -3.8756039329381625e-02  -4.0705348487561951e-02  -1.1033013382872370e-02  1.1303958374772392e-03  6.0355650440862378e-03  1.8181345891102689e-03  6.8716233393565215e-03  -2.0213641429316304e-03  9.2866500241518563e-03  -1.3421940655326552e-02  2.4699243684099381e-02  -1.9307177228206806e-02  -2.5142616901776896e-02  3.0220236905429299e-02  -2.9215267543006580e-02  1.7623258114891488e-02  -1.1159051643727271e-02  3.2281793675803465e-02  -3.9233971376162281e-02  1.8941583633950406e-03  -1.0245089799489808e-03  8.6190750048422849e-03  -1.8076115151944881e-02  1.8675974293891753e-02  -2.2992501205339088e-02  2.4569582241270448e-02  -3.0211678176471402e-02  3.0431499344417759e-02  -4.0708652582775673e-02  2.8611048729202327e-02  -2.6247219475894729e-02  1.3399035336032560e-02  -4.2469771916315541e-02  4.4996213255689699e-02  -1.5211418702011346e-02  3.5675338930427097e-02  -2.2217703301269123e-02  3.0630353692609767e-02  -2.6234056261529758e-02  2.7100609874572950e-02  -2.8749556827391463e-02  2.3419426307840736e-02  -3.1346626954820572e-02  1.8546453513454152e-02  -3.5502368553140679e-02  1.1207920809532715e-02  -4.5068341439114000e-02  3.5040865553168245e-04  4.0314129057091204e-02  1.3693659856021950e-01  1.6155510950740559e-01  1.6545881362445475e-01  1.1436077026820278e-01  5.2139166836213516e-02  5.0886487835987176e-02  1.2476148184066307e-02  -5.4849862862005973e-02  1.3742668843014016e-01  -7.4636039599310115e-03  -1.0094188339959700e-02  -9.5077768756141753e-02  5.5496910032903357e-02  -1.1549573356768840e-01  -5.7025003917095772e-03  -4.3433977153691183e-02  4.1735167187561491e-02  -1.5228801326732272e-01  1.3657720176009311e-01  -1.4758046494592686e-01  3.4612962661412466e-01  -2.5209718278036403e-01  1.8635021920226194e-01  -2.6136628789811156e-01  2.1630059727910625e-01  -3.2691171216872933e-01  1.2382611795435178e-01  -3.7510439538319368e-01  8.6611949777806990e-03  -3.4609335658697188e-01  5.1525294529462265e-02  -3.0973463257517803e-01  7.6814039596948741e-02  -2.8274583318190016e-01  9.1610817280771487e-02  -2.5656850038976259e-01  9.8906063443085446e-02  -2.2090206545681967e-01  9.9574456187863564e-02  -1.5735505537208061e-01  9.5728108135562179e-02  -2.5354836295541527e-02  1.3206419386009496e-01  8.1226722863644893e-02  1.5635832203482083e-01  1.4672321914755704e-01  1.8356937288150463e-01  2.0064316007145716e-01  2.2698554724320683e-01  2.6006952900093699e-01  2.7656631334668852e-01  3.2065118087147682e-01  2.7202216576453148e-01  2.5773061496646793e-01  2.0323352346575943e-01  2.0300491656291125e-01  6.3708887619102025e-02  1.9234600764437917e-01  3.5410419512324220e-01  5.6645395941768373e-01  7.2661706390350278e-01  8.3016828960009892e-01  8.9478256472589757e-01  9.3470602640900502e-01  9.5935907996707370e-01  9.7462432180029035e-01  9.8411115855188791e-01  9.9002792310513787e-01  9.9372954542762937e-01  9.9605125239281400e-01  9.9751042758166752e-01  9.9842897690285004e-01  9.9900792383088421e-01  9.9937317784528623e-01  9.9960378727493193e-01  9.9974947146307913e-01  9.9984154723412388e-01  9.9989976199332131e-01  9.9993657850847262e-01  9.9995986738777776e-01  9.9997460173932406e-01  9.9998392514338530e-01  9.9998982534508873e-01  9.9999355955278157e-01  9.9999592308594465e-01  9.9999741915091833e-01  9.9999836617243265e-01  9.9999896566794255e-01  9.9999934517997235e-01  9.9999958543700185e-01  9.9999973753920701e-01  9.9999983383383584e-01  9.9999989479796469e-01  9.9999993339476534e-01  9.9999995783086615e-01  9.9999997330176071e-01  9.9999998309668903e-01  9.9999998929807565e-01  9.9999999322432576e-01  9.9999999571013265e-01  9.9999999728396660e-01  9.9999999828039920e-01  9.9999999891127178e-01  9.9999999931069250e-01  9.9999999956357721e-01  9.9999999972368225e-01  9.9999999982504939e-01  9.9999999988922239e-01  9.9999999992985245e-01  9.9999999995556732e-01  9.9999999997185618e-01  9.9999999998211475e-01  9.9999999998867539e-01  0.0000000000000000e+00  9.2689714952326405e-03  -3.4166590772150444e-02  4.8369656044261772e-02  -7.6707122420609378e-03  -5.7722588694988416e-03  -1.5351665096749493e-02  1.2915559321381178e-03  1.5242577394311544e-02  8.7696282836395561e-03  4.2312348218198374e-03  -1.1301679100520817e-03  1.6348303108367648e-03  -3.0934598564311584e-03  5.3367023491257244e-03  -1.9272163580280137e-03  1.7041270472606080e-02  -2.3699078765588796e-02  5.0975586536475659e-02  2.2948467674338942e-02  -3.6815045755102326e-02  4.0031673337716740e-02  -2.4141039729883258e-02  5.6527031174478338e-03  -2.6612912474943150e-02  6.6898793848176416e-02  -7.4595712062772556e-03  -6.1252883840204166e-03  -8.0534296943195697e-03  1.5601965605956419e-02  -2.4024284859956620e-02  1.8012419468807109e-02  -3.0022673178425115e-02  2.6406823963153442e-02  -4.8960756074762586e-02  4.5558029020368859e-02  -4.4330728323418840e-02  2.5257433694050466e-02  -1.9002194177398554e-02  3.1535673665585739e-02  -3.4033820363864292e-02  1.4138522585839291e-02  -3.0235485657957119e-02  1.5004756735551681e-02  -3.1221751964208053e-02  1.2822083005147233e-02  -3.4840736156815336e-02  7.0760402262126281e-03  -4.2163919282032600e-02  -4.1830208837946191e-03  -5.6700779831450311e-02  -2.6188950504033040e-02  -8.7230085568963098e-02  -7.3684625382932925e-02  -1.8249089151108541e-01  -1.6198057559051685e-01  -1.3285783865183928e-01  -1.3849540874454896e-01  -2.4828871949955766e-02  -6.0834433496545708e-02  -4.5320580047658994e-02  -7.7268050268607766e-02  -5.5209195065041149e-02  -6.1920857688240766e-02  -2.6470902909206531e-02  9.4622588101560740e-02  2.5478082434306520e-02  6.8913794454284916e-01  7.5971756801286960e-01  1.3169801302393125e+00  8.1043051187308435e-01  1.2181710043524709e+00  5.6796503779813701e-01  1.0074868326538793e+00  2.2731374613893524e-01  8.1232303027181363e-01  -2.0233089755152183e-02  9.1936148764798886e-01  -1.4738498808192413e-01  1.0940369398606122e+00  4.4274308540175446e-03  8.8392276352401999e-01  -8.6511061246605740e-03  8.4719532895671079e-01  -1.4250684571122973e-01  1.0715608308153912e+00  -1.2471403683830561e-01  1.0699620254146505e+00  -1.2595416381922922e-01  1.0626130852036724e+00  -1.2341021801718219e-01  1.0538745167305263e+00  -1.1349137948470041e-01  1.0401628399592640e+00  -9.1504333265615551e-02  1.0103661804542188e+00  -5.4451781127020413e-02  9.4106216331801817e-01  4.2665711109721205e-01  1.0662879884006489e+00  8.1893032845671454e-01  1.0683457422068476e+00  9.4281072647865904e-01  1.0101622270161550e+00  9.5614954132693153e-01  9.6686741506941887e-01  9.6514561994409620e-01  9.5667200003550679e-01  1.1458239399931043e+00  1.0995049873086471e+00  1.1619897348675921e+00  1.0233066495218615e+00  6.2958131988672750e-01  5.2865580603922424e-01  6.3033899603836052e-01  7.4755616301480454e-01  8.4130462440780662e-01  9.0263696713586694e-01  9.4057404858388927e-01  9.6364847949684174e-01  9.7765513472333765e-01  9.8619170826538760e-01  9.9142538198799912e-01  9.9465340830037741e-01  9.9665504831090646e-01  9.9790177049177353e-01  9.9868108465204286e-01  9.9916961014735473e-01  9.9947652973492307e-01  9.9966968682777102e-01  9.9979141141859229e-01  9.9986820032647528e-01  9.9991668135825096e-01  9.9994730960094058e-01  9.9996666893385622e-01  9.9997891034129083e-01  9.9998665334916526e-01  9.9999155224152325e-01  9.9999465233168361e-01  9.9999661443521626e-01  9.9999785645106454e-01  9.9999864273458550e-01  9.9999914055117944e-01  9.9999945575448212e-01  9.999