<?xml version="1.0"?>
<VTKFile type="UnstructuredGrid"  version="0.1"  >
<UnstructuredGrid>
<Piece  NumberOfPoints="21400" NumberOfCells="42336">
<Points>
<DataArray  type="Float64"  NumberOfComponents="3"  format="ascii">0 0 0  0.004583333333333333 0 0  0.009166666666666667 0 0  0.01375 0 0  0.01833333333333333 0 0  0.02291666666666667 0 0  0.0275 0 0  0.03208333333333334 0 0  0.03666666666666667 0 0  0.04125 0 0  0.04583333333333334 0 0  0.05041666666666667 0 0  0.055 0 0  0.05958333333333334 0 0  0.06416666666666668 0 0  0.06875000000000001 0 0  0.07333333333333333 0 0  0.07791666666666666 0 0  0.08249999999999999 0 0  0.08708333333333333 0 0  0.09166666666666667 0 0  0.09625000000000002 0 0  0.1008333333333333 0 0  0.1054166666666667 0 0  0.11 0 0  0.1145833333333333 0 0  0.1191666666666667 0 0  0.12375 0 0  0.1283333333333334 0 0  0.1329166666666667 0 0  0.1375 0 0  0.1420833333333333 0 0  0.1466666666666667 0 0  0.15125 0 0  0.1558333333333333 0 0  0.1604166666666667 0 0  0.165 0 0  0.1695833333333333 0 0  0.1741666666666667 0 0  0.17875 0 0  0.1833333333333333 0 0  0.1879166666666667 0 0  0.1925 0 0  0.1970833333333333 0 0  0.2016666666666667 0 0  0.20625 0 0  0.2108333333333333 0 0  0.2154166666666666 0 0  0.22 0 0  0.2245833333333334 0 0  0.2291666666666667 0 0  0.23375 0 0  0.2383333333333333 0 0  0.2429166666666667 0 0  0.2475 0 0  0.2520833333333333 0 0  0.2566666666666667 0 0  0.26125 0 0  0.2658333333333334 0 0  0.2704166666666666 0 0  0.275 0 0  0.2795833333333334 0 0  0.2841666666666667 0 0  0.28875 0 0  0.2933333333333333 0 0  0.2979166666666667 0 0  0.3025 0 0  0.3070833333333334 0 0  0.3116666666666666 0 0  0.31625 0 0  0.3208333333333333 0 0  0.3254166666666667 0 0  0.33 0 0  0.3345833333333333 0 0  0.3391666666666667 0 0  0.34375 0 0  0.3483333333333333 0 0  0.3529166666666667 0 0  0.3575 0 0  0.3620833333333333 0 0  0.3666666666666667 0 0  0.37125 0 0  0.3758333333333334 0 0  0.3804166666666667 0 0  0.3850000000000001 0 0  0.3895833333333333 0 0  0.3941666666666667 0 0  0.39875 0 0  0.4033333333333334 0 0  0.4079166666666666 0 0  0.4125 0 0  0.4170833333333334 0 0  0.4216666666666667 0 0  0.42625 0 0  0.4308333333333333 0 0  0.4354166666666667 0 0  0.44 0 0  0.4445833333333333 0 0  0.4491666666666667 0 0  0.45375 0 0  0.4583333333333333 0 0  0.4629166666666666 0 0  0.4675 0 0  0.4720833333333334 0 0  0.4766666666666667 0 0  0.4812500000000001 0 0  0.4858333333333333 0 0  0.4904166666666667 0 0  0.495 0 0  0.4995833333333334 0 0  0.5041666666666667 0 0  0.50875 0 0  0.5133333333333334 0 0  0.5179166666666667 0 0  0.5225 0 0  0.5270833333333333 0 0  0.5316666666666667 0 0  0.53625 0 0  0.5408333333333333 0 0  0.5454166666666667 0 0  0.55 0 0  0.5545833333333333 0 0  0.5591666666666667 0 0  0.5637500000000001 0 0  0.5683333333333334 0 0  0.5729166666666666 0 0  0.5775 0 0  0.5820833333333334 0 0  0.5866666666666667 0 0  0.5912499999999999 0 0  0.5958333333333334 0 0  0.6004166666666667 0 0  0.605 0 0  0.6095833333333334 0 0  0.6141666666666667 0 0  0.61875 0 0  0.6233333333333333 0 0  0.6279166666666667 0 0  0.6325000000000001 0 0  0.6370833333333333 0 0  0.6416666666666666 0 0  0.64625 0 0  0.6508333333333334 0 0  0.6554166666666666 0 0  0.6599999999999999 0 0  0.6645833333333334 0 0  0.6691666666666667 0 0  0.67375 0 0  0.6783333333333333 0 0  0.6829166666666667 0 0  0.6875 0 0  0.6920833333333333 0 0  0.6966666666666667 0 0  0.70125 0 0  0.7058333333333333 0 0  0.7104166666666667 0 0  0.7150000000000001 0 0  0.7195833333333334 0 0  0.7241666666666666 0 0  0.72875 0 0  0.7333333333333334 0 0  0.7379166666666667 0 0  0.7425 0 0  0.7470833333333333 0 0  0.7516666666666667 0 0  0.75625 0 0  0.7608333333333334 0 0  0.7654166666666666 0 0  0.7700000000000001 0 0  0 0.002380952380952381 0  0.004583333333333333 0.002380952380952381 0  0.009166666666666667 0.002380952380952381 0  0.01375 0.002380952380952381 0  0.01833333333333333 0.002380952380952381 0  0.02291666666666667 0.002380952380952381 0  0.0275 0.002380952380952381 0  0.03208333333333334 0.002380952380952381 0  0.03666666666666667 0.002380952380952381 0  0.04125 0.002380952380952381 0  0.04583333333333334 0.002380952380952381 0  0.05041666666666667 0.002380952380952381 0  0.055 0.002380952380952381 0  0.05958333333333334 0.002380952380952381 0  0.06416666666666668 0.002380952380952381 0  0.06875000000000001 0.002380952380952381 0  0.07333333333333333 0.002380952380952381 0  0.07791666666666666 0.002380952380952381 0  0.08249999999999999 0.002380952380952381 0  0.08708333333333333 0.002380952380952381 0  0.09166666666666667 0.002380952380952381 0  0.09625000000000002 0.002380952380952381 0  0.1008333333333333 0.002380952380952381 0  0.1054166666666667 0.002380952380952381 0  0.11 0.002380952380952381 0  0.1145833333333333 0.002380952380952381 0  0.1191666666666667 0.002380952380952381 0  0.12375 0.002380952380952381 0  0.1283333333333334 0.002380952380952381 0  0.1329166666666667 0.002380952380952381 0  0.1375 0.002380952380952381 0  0.1420833333333333 0.002380952380952381 0  0.1466666666666667 0.002380952380952381 0  0.15125 0.002380952380952381 0  0.1558333333333333 0.002380952380952381 0  0.1604166666666667 0.002380952380952381 0  0.165 0.002380952380952381 0  0.1695833333333333 0.002380952380952381 0  0.1741666666666667 0.002380952380952381 0  0.17875 0.002380952380952381 0  0.1833333333333333 0.002380952380952381 0  0.1879166666666667 0.002380952380952381 0  0.1925 0.002380952380952381 0  0.1970833333333333 0.002380952380952381 0  0.2016666666666667 0.002380952380952381 0  0.20625 0.002380952380952381 0  0.2108333333333333 0.002380952380952381 0  0.2154166666666666 0.002380952380952381 0  0.22 0.002380952380952381 0  0.2245833333333334 0.002380952380952381 0  0.2291666666666667 0.002380952380952381 0  0.23375 0.002380952380952381 0  0.2383333333333333 0.002380952380952381 0  0.2429166666666667 0.002380952380952381 0  0.2475 0.002380952380952381 0  0.2520833333333333 0.002380952380952381 0  0.2566666666666667 0.002380952380952381 0  0.26125 0.002380952380952381 0  0.2658333333333334 0.002380952380952381 0  0.2704166666666666 0.002380952380952381 0  0.275 0.002380952380952381 0  0.2795833333333334 0.002380952380952381 0  0.2841666666666667 0.002380952380952381 0  0.28875 0.002380952380952381 0  0.2933333333333333 0.002380952380952381 0  0.2979166666666667 0.002380952380952381 0  0.3025 0.002380952380952381 0  0.3070833333333334 0.002380952380952381 0  0.3116666666666666 0.002380952380952381 0  0.31625 0.002380952380952381 0  0.3208333333333333 0.002380952380952381 0  0.3254166666666667 0.002380952380952381 0  0.33 0.002380952380952381 0  0.3345833333333333 0.002380952380952381 0  0.3391666666666667 0.002380952380952381 0  0.34375 0.002380952380952381 0  0.3483333333333333 0.002380952380952381 0  0.3529166666666667 0.002380952380952381 0  0.3575 0.002380952380952381 0  0.3620833333333333 0.002380952380952381 0  0.3666666666666667 0.002380952380952381 0  0.37125 0.002380952380952381 0  0.3758333333333334 0.002380952380952381 0  0.3804166666666667 0.002380952380952381 0  0.3850000000000001 0.002380952380952381 0  0.3895833333333333 0.002380952380952381 0  0.3941666666666667 0.002380952380952381 0  0.39875 0.002380952380952381 0  0.4033333333333334 0.002380952380952381 0  0.4079166666666666 0.002380952380952381 0  0.4125 0.002380952380952381 0  0.4170833333333334 0.002380952380952381 0  0.4216666666666667 0.002380952380952381 0  0.42625 0.002380952380952381 0  0.4308333333333333 0.002380952380952381 0  0.4354166666666667 0.002380952380952381 0  0.44 0.002380952380952381 0  0.4445833333333333 0.002380952380952381 0  0.4491666666666667 0.002380952380952381 0  0.45375 0.002380952380952381 0  0.4583333333333333 0.002380952380952381 0  0.4629166666666666 0.002380952380952381 0  0.4675 0.002380952380952381 0  0.4720833333333334 0.002380952380952381 0  0.4766666666666667 0.002380952380952381 0  0.4812500000000001 0.002380952380952381 0  0.4858333333333333 0.002380952380952381 0  0.4904166666666667 0.002380952380952381 0  0.495 0.002380952380952381 0  0.4995833333333334 0.002380952380952381 0  0.5041666666666667 0.002380952380952381 0  0.50875 0.002380952380952381 0  0.5133333333333334 0.002380952380952381 0  0.5179166666666667 0.002380952380952381 0  0.5225 0.002380952380952381 0  0.5270833333333333 0.002380952380952381 0  0.5316666666666667 0.002380952380952381 0  0.53625 0.002380952380952381 0  0.5408333333333333 0.002380952380952381 0  0.5454166666666667 0.002380952380952381 0  0.55 0.002380952380952381 0  0.5545833333333333 0.002380952380952381 0  0.5591666666666667 0.002380952380952381 0  0.5637500000000001 0.002380952380952381 0  0.5683333333333334 0.002380952380952381 0  0.5729166666666666 0.002380952380952381 0  0.5775 0.002380952380952381 0  0.5820833333333334 0.002380952380952381 0  0.5866666666666667 0.002380952380952381 0  0.5912499999999999 0.002380952380952381 0  0.5958333333333334 0.002380952380952381 0  0.6004166666666667 0.002380952380952381 0  0.605 0.002380952380952381 0  0.6095833333333334 0.002380952380952381 0  0.6141666666666667 0.002380952380952381 0  0.61875 0.002380952380952381 0  0.6233333333333333 0.002380952380952381 0  0.6279166666666667 0.002380952380952381 0  0.6325000000000001 0.002380952380952381 0  0.6370833333333333 0.002380952380952381 0  0.6416666666666666 0.002380952380952381 0  0.64625 0.002380952380952381 0  0.6508333333333334 0.002380952380952381 0  0.6554166666666666 0.002380952380952381 0  0.6599999999999999 0.002380952380952381 0  0.6645833333333334 0.002380952380952381 0  0.6691666666666667 0.002380952380952381 0  0.67375 0.002380952380952381 0  0.6783333333333333 0.002380952380952381 0  0.6829166666666667 0.002380952380952381 0  0.6875 0.002380952380952381 0  0.6920833333333333 0.002380952380952381 0  0.6966666666666667 0.002380952380952381 0  0.70125 0.002380952380952381 0  0.7058333333333333 0.002380952380952381 0  0.7104166666666667 0.002380952380952381 0  0.7150000000000001 0.002380952380952381 
[...]
<PointData  Scalars="concentration"> 
<DataArray  type="Float64"  Name="concentration"  format="ascii">0.0000000000000000e+00  8.0096254278270509e-02  2.3034544223060413e-01  1.7610331715327593e-01  -2.3238904445934173e-02  -1.3067081970475411e-01  -1.7180291362781819e-01  -1.8850724198407692e-01  -1.7735171997272070e-01  -7.9891860485658106e-02  1.1119824267238886e-02  6.9571397536645685e-03  7.4971643631721796e-03  -1.3475220289717509e-03  7.0254878881762248e-03  -9.9081070711757729e-03  1.6339472864894761e-02  -1.2986213354634383e-02  -8.0697484816208212e-03  2.3870663398287049e-02  -2.2694450205351453e-02  1.8357352154333380e-02  -1.2679965879635513e-02  2.2505303479023672e-02  -2.6721192590601388e-02  1.5221340130387246e-02  -8.9738848368137300e-04  8.9259946593737791e-03  -1.0430977867673552e-02  2.2083836700517570e-02  -1.6368548859420864e-02  3.2071586413099394e-02  -2.3030261968937336e-02  4.6688784918533913e-02  -1.9942953858117056e-02  4.7717980379166934e-02  6.0517122124658426e-03  6.6921344263071808e-02  2.5198991278328167e-02  6.6072370264472902e-01  8.8315700209860626e-01  1.0961995896397163e+00  8.7639447548960436e-01  1.0803085148163356e+00  8.8263752228589853e-01  1.0771952430851979e+00  8.8576912586053980e-01  1.0756198932681926e+00  8.8792757743268114e-01  1.0754746363854772e+00  8.9018675927078061e-01  1.0763323528483217e+00  8.9190719566099852e-01  1.0460239873875110e+00  8.8877072351130681e-01  1.0884164670509962e+00  8.7569920077988250e-01  1.1100094107149920e+00  1.0263679939836003e+00  9.7629744455880862e-01  1.0129742855476678e+00  9.8326995773208592e-01  1.0045660081315273e+00  1.0174789356305083e+00  9.8815870257517302e-01  9.6893613853703653e-01  1.0097799974481729e+00  9.9079747892503622e-01  1.0469455324297139e+00  9.8787902520185700e-01  9.6581904971923982e-01  9.3078553922076701e-01  8.4004296515657251e-01  9.3052924913453261e-01  1.0206914702496799e+00  1.0130879747817356e+00  9.0630746554358899e-01  1.1223608061515509e+00  7.5265042102396229e-01  1.2122913623355407e+00  7.6759530330381576e-01  1.2620866049461548e+00  7.0655445750238288e-01  1.3248118539640135e+00  6.6425850247703444e-01  1.3331514868462235e+00  6.7041707354931546e-01  1.3290227588403167e+00  6.8260937557198798e-01  1.3195117893623187e+00  6.9818916743325743e-01  1.3077222666268646e+00  7.1911226295223973e-01  1.2889867954545930e+00  7.5049481997884693e-01  1.2272486483852103e+00  7.6911243670033325e-01  1.2161032248944501e+00  7.8508870446446855e-01  1.2137579971957748e+00  7.8948636297015085e-01  1.2105919996104213e+00  7.9212630852090271e-01  1.2082609171164653e+00  7.9379488534980502e-01  1.2066244542548470e+00  7.9486377464792268e-01  1.2055041015066470e+00  7.9556863133444500e-01  1.2047433331048187e+00  7.9606484489734775e-01  1.2042128898401048e+00  7.9646765358097338e-01  1.2037981089422052e+00  7.9688619414603479e-01  1.2033713235618508e+00  7.9746206017912724e-01  1.2027405822191617e+00  7.9842822532897462e-01  1.2015486259371075e+00  8.0021522155374536e-01  1.1990619505313935e+00  8.0365464266347597e-01  1.1937153107134373e+00  8.1037921070029406e-01  1.1821258328016515e+00  8.2367573309447806e-01  1.1572255300660890e+00  8.5094512184864690e-01  1.1080271034966322e+00  9.1691430736100410e-01  1.0627000229490864e+00  9.5294553408245508e-01  1.0244785387818709e+00  9.7747594150801842e-01  1.0035134022074290e+00  9.9099649075135376e-01  9.9637822469157600e-01  1.0007525506500765e+00  9.9371847689871429e-01  1.0140089291892507e+00  9.9739828505482164e-01  1.0327149287917037e+00  9.9178282654845562e-01  1.0563645470697303e+00  1.0192974025413151e+00  1.2638008671195293e+00  8.9005094857169409e-01  9.4235107162250820e-01  9.7023462141848438e-01  9.8877720318049311e-01  9.9673782447111314e-01  9.9992521290654524e-01  1.0009772517450171e+00  1.0011496040739074e+00  1.0010052617166987e+00  1.0007825085820992e+00  1.0005727273971816e+00  1.0004036456814722e+00  1.0002773676453063e+00  1.0001871864089507e+00  1.0001246396578662e+00  1.0000821328715510e+00  1.0000536629178431e+00  1.0000348315804943e+00  1.0000223682124272e+00  1.0000146271017922e+00  1.0000079120353917e+00  1.0000111876188607e+00  0.0000000000000000e+00  -1.8718460572598045e-02  -1.0170789959101820e-01  6.5390341152974485e-02  6.2680355046775593e-01  9.0464432183938703e-01  9.6998956596480745e-01  9.2654659036700870e-01  9.4138518797752024e-01  3.0983956742631341e-01  1.3932601232457906e-01  8.3861431382068669e-02  4.7690686137969673e-02  3.4964102546121034e-02  1.4033843277619555e-02  2.2501220265695739e-02  -7.6301546849725710e-03  1.9476494375280713e-02  9.6140075496262550e-03  -2.1335547808707781e-02  2.4760189047710251e-02  -1.7313299388665042e-02  1.4270772658234341e-02  -1.9306908037123267e-02  2.9420085323198310e-02  -1.4121435141300813e-02  3.8541533610948388e-03  -4.4720296738476866e-03  1.4986652824718748e-02  -1.5486434145669506e-02  2.4048375851253290e-02  -2.1252895476654949e-02  3.5524107065302568e-02  -2.9359413184953932e-02  4.2351562860690306e-02  -1.9139692058997397e-02  3.3315827414834187e-02  -1.1592395700072254e-02  5.3695097535274010e-02  -2.8529258611804564e-02  7.2939234616579673e-01  2.9996576396348840e-01  8.1573133623184679e-01  3.1066304416611773e-01  8.1073759703660686e-01  3.0935922041822089e-01  8.0586685084429366e-01  3.1106639173821626e-01  8.0314928140827646e-01  3.1553266259768475e-01  8.0483104861037091e-01  3.2561763496730067e-01  8.1545295615157554e-01  3.4764975328603348e-01  7.4375308702645027e-01  3.1107938776418009e-01  7.6539378495114296e-01  3.3331579512602888e-01  8.1468858898009455e-01  1.0627776254277415e+00  9.8909826888301777e-01  1.0340227091532503e+00  9.7983532940250329e-01  9.8703160895904563e-01  1.0470149060105334e+00  1.0221230597307278e+00  9.2085711871198661e-01  9.5142727597335008e-01  9.0939782106551836e-01  1.0472704826933581e+00  1.0302953362976712e+00  9.5610912157218619e-01  8.3088627113964164e-01  2.7985075004925247e-01  4.9055543388292405e-02  7.9958184828836459e-02  1.4051162986326915e-01  -5.7107037217057260e-02  1.8221561276132750e-01  -2.2402603612245311e-01  1.3303996789281322e-01  -2.3221134838678431e-01  1.9363205900033814e-01  -2.6221193888245542e-01  2.4051445135183017e-01  -2.5082270408908564e-01  2.4511040685979618e-01  -2.3867021508188921e-01  2.4545509764505385e-01  -2.2714988730852514e-01  2.4372176447883906e-01  -2.1749449106476365e-01  2.4014009792714033e-01  -1.9993562224917205e-01  2.3473854523278426e-01  -1.5562246505669131e-01  2.0142917318414966e-01  -1.4988741053077276e-01  1.8561020203937914e-01  -1.5792811153774139e-01  1.7768797819446575e-01  -1.6214497641921691e-01  1.7327524462432869e-01  -1.6428262261878265e-01  1.7081161542863957e-01  -1.6536012197393490e-01  1.6942084009638783e-01  -1.6589062645212438e-01  1.6863519134833055e-01  -1.6611009006074484e-01  1.6821000322554314e-01  -1.6610944133471436e-01  1.6801355308510671e-01  -1.6589570904686374e-01  1.6796256713296653e-01  -1.6540884317543036e-01  1.6797332501250220e-01  -1.6450759348387700e-01  1.6789827498423407e-01  -1.6292471955808416e-01  1.6740379826518809e-01  -1.6018062470494879e-01  1.6569960654364158e-01  -1.5543544489372196e-01  1.6091612616970030e-01  -1.4726202949191308e-01  1.4865007648566331e-01  -1.3337421459380863e-01  1.1874241207243599e-01  -1.1064917982841209e-01  4.9701393589597243e-02  -7.5826035448847140e-02  2.1468254143923757e-02  -3.8791482171152983e-02  3.8282478649360541e-04  -2.4176867212343026e-02  -1.5476660803998642e-02  -2.1612618886544796e-02  -2.3413930498298707e-02  -1.5637655163778044e-02  -2.2584998100961637e-02  4.6796159195853244e-03  3.6429263662893247e-03  4.5570103530631144e-02  2.0178233737199146e-02  8.9568660319680457e-02  4.7670491607864612e-03  2.2326796246147321e-01  4.2990099977803675e-01  6.4190511983496223e-01  7.7873011300444683e-01  8.6204218943044830e-01  9.1354644547829178e-01  9.4566221144037632e-01  9.6578855022487486e-01  9.7843777631830442e-01  9.8640142274174825e-01  9.9142045334665885e-01  9.9458575079125966e-01  9.9658279093261348e-01  9.9784307249848936e-01  9.9863851397383951e-01  9.9914059918663756e-01  9.9945752316104886e-01  9.9965754601151391e-01  9.9978382444641301e-01  9.9986338289280785e-01  9.9991374415948830e-01  9.9994564660194296e-01  0.0000000000000000e+00  5.9881683828714105e-04  -1.5844442445894735e-02  1.7261828335581336e-01  5.8496266539443953e-02  6.2638470882329253e-02  5.3131804367446772e-02  7.2329909956522817e-02  2.1984249952610245e-02  -4.0531766848249412e-02  -3.6815690412516096e-02  -2.7519996069879770e-02  -1.4471744200284709e-02  -1.4661718183588733e-02  -2.0731419979556072e-03  -1.4071601822919163e-02  1.1896374280889696e-02  -2.0980528376227454e-02  8.7453751867061827e-04  2.4172962033576939e-02  -2.6124350272103643e-02  2.2449200389268842e-02  -1.4616664536318626e-02  1.7122243200775541e-02  -3.1182769198437935e-02  2.3837988754193382e-02  -1.7981742985969914e-03  5.3883456321326823e-03  -1.1335695687061916e-02  1.9380365550811806e-02  -2.0671705556785047e-02  2.5905492742769144e-02  -3.0406657261597751e-02  3.7288769213440626e-02  -3.8817433332992389e-02  3.2541706921327095e-02  -2.7250358912657091e-02  1.8944358063617463e-02  -3.6141366663863882e-02  4.6205741199822126e-02  -1.0322739684256928e-01  -3.4064509510085397e-02  -8.4795965729910439e-02  -1.5057821968408325e-02  -7.2908033465677466e-02  -7.5028023605624517e-03  -6.7637386045267672e-02  -6.8615849022994960e-03  -6.4479415545039442e-02  -8.4151990096289625e-03  -6.1273443234325875e-02  -7.3252138173032170e-03  -5.1529294370730644e-02  7.4644886747487881e-03  -6.2720620737148841e-03  3.1008271207996856e-02  -2.7830618642371931e-02  1.1267523265834854e-02  -9.3440279931401513e-03  -3.9376265436902681e-02  5.9446894067591450e-03  -2.5530550821107955e-02  1.8179681690643355e-02  2.8296393334482786e-03  -3.4980692336527494e-02  2.0730947814795245e-02  7.8363629241968547e-02  2.6157326916750222e-02  2.1696624329564904e-02  -6.9289445968322816e-02  -5.8267070799947827e-02  -4.1756497142539227e-02  -3.3559422954986609e-02  -9.4917207727024264e-02  9.1571015523194584e-03  -7.3548487810814189e-02  -1.2306631067607757e-01  6.4772503891983815e-02  -1.9723062462581084e-01  2.2180325188785163e-01  -1.5379335860438598e-01  2.1287106399949135e-01  -2.3281185614542341e-01  2.3218569600273989e-01  -2.8594540694420273e-01  2.2459448915538560e-01  -2.8376775317986991e-01  2.2102709440478727e-01  -2.7510563874567018e-01  2.1874428767516083e-01  -2.6613173569523263e-01  2.1610513923460156e-01  -2.5889998411313486e-01  2.0344710999785939e-01  -2.4889225564598708e-01  1.7301982692721332e-01  -2.0003790746998901e-01  1.6808883978319120e-01  -1.8129450539484071e-01  1.7911119615290627e-01  -1.7268434718295941e-01  1.8319121228820856e-01  -1.6946604002896457e-01  1.8403279698077674e-01  -1.6865151374133500e-01  1.8366276485099864e-01  -1.6874030202732557e-01  1.8300519003536514e-01  -1.6903987540924406e-01  1.8243513374867265e-01  -1.6924628833035060e-01  1.8208142054041898e-01  -1.6921426973008707e-01  1.8197469474706851e-01  -1.6883187891888071e-01  1.8210935991595037e-01  -1.6793920027068626e-01  1.8245457457786080e-01  -1.6624686867540980e-01  1.8292178119336977e-01  -1.6321060907093532e-01  1.8326802283618721e-01  -1.5779577097815239e-01  1.8287180742244891e-01  -1.4800428585091183e-01  1.8023679407664081e-01  -1.2990028662964789e-01  1.7189518468042594e-01  -9.5788446998409937e-02  1.4994571125544795e-01  -3.2483802833584312e-02  9.5807880586110894e-02  -1.6677079663397772e-02  4.4233411136002036e-02  -3.0824008535613326e-03  2.0028934759898365e-02  5.6469884666440770e-03  7.6874026536197220e-03  3.9747186247688264e-03  -8.2178260187607127e-03  -4.7395611012005573e-03  -3.3102936322185937e-02  -2.7523914137648195e-02  -5.9900116129486376e-02  -2.1861680393119410e-02  -7.3368378883931051e-02  3.1254502946450116e-02  -7.2708532844762655e-02  1.2229906360566038e-01  4.4273764215599742e-01  6.5436622715810289e-01  7.8529440154748120e-01  8.6628793868364207e-01  9.1647834728502775e-01  9.4768443772725564e-01  9.6715355993027063e-01  9.7933749319385011e-01  9.8698196323377774e-01  9.9178828315116818e-01  9.9481517607661851e-01  9.9672390862521831e-01  9.9792876070998138e-01  9.9868989707599665e-01  9.9917101462361613e-01  9.9947527554873961e-01  9.9966772958611760e-01  9.9978951019738338e-01  9.9986668443835003e-01  9.9991500603985262e-01  0.0000000000000000e+00  -4.8976282301090709e-03  3.6126832805590377e-02  -8.7536370832770036e-02  -5.6124213941246672e-03  -9.8542157701757803e-03  -7.2502096585666150e-03  -3.8760873574961177e-02  -4.0691557986831058e-02  -1.1046363862713777e-02  1.1509232986226725e-03  6.0154261007166754e-03  1.8541208918344987e-03  6.8365599919053130e-03  -1.9678791193412722e-03  9.2241317678067401e-03  -1.3334140779283970e-02  2.4588280350068790e-02  -1.9252689763507445e-02  -2.5292995276602729e-02  3.0433826956253116e-02  -2.9527021914382716e-02  1.8116360074536847e-02  -1.1653909682447946e-02  3.2660794562552824e-02  -4.0314852972144807e-02  2.9185966955490960e-03  -2.0132959290328654e-03  1.0031735643859035e-02  -1.9477743856874154e-02  2.2083331903765293e-02  -2.5229994053820908e-02  3.0846131294351747e-02  -3.8874534133709587e-02  4.4251051596063504e-02  -4.2209050369589149e-02  3.1067558399630359e-02  -2.2379086012601995e-02  2.4521427926311016e-02  -4.5634638913924420e-02  5.9376610912754688e-02  -2.0202739133498918e-03  3.9477160310550700e-02  -1.7029637647154081e-02  2.9740549559632037e-02  -2.3983033476579967e-02  2.2822093919616242e-02  -2.7690649197612702e-02  1.5104291537489257e-02  -3.2199426183923595e-02  4.5744781089745220e-03  -4.3582720042975073e-02  -1.5065961807670725e-02  -7.2401962282497456e-02  -7.7269105172613151e-02  -6.4682373024116419e-02  1.7850954317368724e-02  3.3093825780136990e-02  6.3398902834366597e-02  6.8390108969036523e-02  6.8630625928220472e-03  3.2792985772727372e-02  -2.5676700812365477e-02  -8.9819561673159620e-04  2.5097198340020083e-02  -5.6747904740198106e-02  -1.1707764597602999e-01  -3.5889934635896424e-02  1.0681590532899514e-02  1.0974310151892820e-01  5.9719073979358481e-02  2.1765647000107882e-02  -1.5296233645479782e-02  6.6461152497539006e-02  4.5668332237283046e-02  1.6540222585886541e-01  1.1755559525976055e-01  -6.3152055323725337e-02  2.3291375659134095e-01  -2.0683324372867770e-01  1.9265281012538957e-01  -1.9740110747025802e-01  2.6695044860453954e-01  -2.3915833644558185e-01  2.8509253566125103e-01  -2.9103582974755698e-01  2.2409882428321798e-01  -3.4531680529814179e-01  1.6345682242515525e-01  -3.8824142330180961e-01  1.1762712260814150e-01  -4.1829743389129814e-01  8.3655245206236573e-02  -4.3530474930435392e-01  4.3857814769359238e-02  -4.4581821179327341e-01  -5.2564002120903605e-02  -4.0331580244750975e-01  7.4386221374051287e-03  -3.5519310302700047e-01  4.5289458915847070e-02  -3.2380628304464121e-01  7.0193151526488015e-02  -3.0287646207952218e-01  8.6894381487277322e-02  -2.8877396130677008e-01  9.8173653814551037e-02  -2.7923688481085668e-01  1.0580641368595833e-01  -2.7276329203008204e-01  1.1098315786496375e-01  -2.6831527390868343e-01  1.1451881271769936e-01  -2.6514770207518812e-01  1.1697096688951612e-01  -2.6268550969100835e-01  1.1871031543760430e-01  -2.6040998486329542e-01  1.1995649876530377e-01  -2.5771624100172746e-01  1.2077876866146647e-01  -2.5367827439226487e-01  1.2105218150894043e-01  -2.4658813689403625e-01  1.2035558525863649e-01  -2.3296767922003253e-01  1.1782084266357727e-01  -2.0532984246957886e-01  1.1221081016499145e-01  -1.4690367077975541e-01  1.0450656123683517e-01  -1.7910455138638773e-02  1.3836506893444897e-01  8.6822563707573103e-02  1.6108276269901334e-01  1.5071927404675506e-01  1.8692064110150089e-01  2.0344781711653118e-01  2.2931778708956888e-01  2.6197969217724404e-01  2.7815553711732249e-01  3.2193883822106273e-01  2.7301506826035715e-01  2.5847702383936327e-01  2.0382433137999745e-01  2.0346247862836861e-01  6.4080882189989419e-02  1.9258947464817985e-01  3.5421849626366042e-01  5.6653582880786058e-01  7.2667651786445719e-01  8.3021030067931223e-01  8.9481164055509566e-01  9.3472586714392158e-01  9.5937250010309572e-01  9.7463335387590178e-01  9.8411722504915367e-01  9.9003199520067631e-01  9.9373228050768203e-01  9.9605308688445682e-01  9.9751165440127443e-01  9.9842978588389841e-01  9.9900844240052644e-01  9.9937348651323354e-01  9.9960393492532895e-01  9.9974949044101102e-01  9.9984147861862516e-01  9.9989939927162108e-01  9.9993630640638431e-01  0.0000000000000000e+00  9.2726837393198695e-03  -3.4167980661068680e-02  4.8374879801616255e-02  -7.6701742574523486e-03  -5.7640089350518625e-03  -1.5355179228818789e-02  1.3028982489099372e-03  1.5235579919154607e-02  8.7937726424730783e-03  4.2276833451268241e-03  -1.0866100816003331e-03  1.6278147354933103e-03  -3.0251178857544320e-03  5.3184430729541956e-03  -1.8304492160938605e-03  1.6985149566571156e-02  -2.3528666323849243e-02  5.0950069991220828e-02  2.3071180352345972e-02  -3.7060859954374172e-02  4.0224420652552495e-02  -2.4758284956730606e-02  6.1183281772318084e-03  -2.7050926113339153e-02  6.7658020017310333e-02  -9.0142591840922260e-03  -5.6700255125469844e-03  -1.0320455148088751e-02  1.5799201795787997e-02  -2.8513274363101717e-02  1.9658610913074706e-02  -3.5476657888341707e-02  3.5649292759960295e-02  -5.4801785571414081e-02  5.0805433063611849e-02  -4.4253756151945531e-02  2.4349049060475778e-02  -2.1907949299139983e-02  3.4880151462891994e-02  -4.0948699620415793e-02  8.6502710481850195e-03  -2.8459345527698767e-02  1.3828907758063443e-02  -2.6353627285902688e-02  1.3001898055433720e-02  -2.6547123826389563e-02  8.1659489890486183e-03  -2.8566749613359747e-02  -6.8830320709119903e-04  -3.5102862456919910e-02  -1.3530320759429554e-02  -5.1772239778516867e-02  -3.8250394038422598e-02  -9.2755360293891406e-02  -5.7138889769710190e-02  8.1077056476399952e-03  -1.8815520845450774e-02  1.0352285029505892e-01  7.4772408653237142e-03  3.0332642071922301e-02  -3.4413130973981687e-02  3.2504380619947232e-03  -6.9564441017153616e-02  -1.1541821109083999e-01  -2.7675097019174168e-02  -5.5944435483325540e-02  -4.1833854392062796e-02  -3.7998988269957915e-02  4.4884177158303153e-02  1.0912382722600001e-02  3.6789222212352318e-03  2.3013690595803323e-02  -9.3416868103138165e-02  -1.6594351444741071e-01  -5.4501899006266327e-02  1.0306704718403352e-02  1.2369800239324404e-01  -2.1447818477602931e-01  5.7248298049617641e-01  8.1137702737714271e-02  7.2474379068735473e-01  1.3438895077045440e-01  1.0335329617251507e+00  1.4664748463799523e-02  9.4122965787569468e-01  -1.4270678740825875e-02  9.0163768544852330e-01  -1.5382786067954863e-02  8.5527867939640212e-01  -2.3995145994179935e-02  8.3104648444406193e-01  -2.9908726371985415e-02  8.2425101389140576e-01  -3.2927346454379024e-02  8.0843852976973407e-01  -1.4408484406847766e-01  1.0764429250938714e+00  -1.1974143719736492e-01  1.0799219857998594e+00  -1.2425176704575644e-01  1.0743893321360138e+00  -1.2991922848720289e-01  1.0689192042410127e+00  -1.3463794201900253e-01  1.0645813717631782e+00  -1.3815380352840578e-01  1.0614010314788405e+00  -1.4062575181165377e-01  1.0591582905439521e+00  -1.4228739480785682e-01  1.0576027724472614e+00  -1.4333516205287050e-01  1.0565141529270683e+00  -1.4389063763767007e-01  1.0557050633917562e+00  -1.4397781722736380e-01  1.0549973256418939e+00  -1.4348180581671419e-01  1.0541749174484636e+00  -1.4205513748453608e-01  1.0528952285998723e+00  -1.3891912237415963e-01  1.0505010972613957e+00  -1.3248030885513179e-01  1.0455541383132594e+00  -1.1969467157941077e-01  1.0344597968600771e+00  -9.5651062913712628e-02  1.0064430407988088e+00  -5.6890835983638449e-02  9.3800214815410399e-01  4.2408588854460694e-01  1.0639445084551562e+00  8.1781037442585980e-01  1.0675727027931288e+00  9.4242509540773933e-01  1.0098458569276056e+00  9.5595037325257404e-01  9.6675645424625178e-01  9.6503936385505107e-01  9.56486