<?xml version="1.0"?>
<VTKFile type="UnstructuredGrid"  version="0.1"  >
<UnstructuredGrid>
<Piece  NumberOfPoints="21400" NumberOfCells="42336">
<Points>
<DataArray  type="Float64"  NumberOfComponents="3"  format="ascii">0 0 0  0.004583333333333333 0 0  0.009166666666666667 0 0  0.01375 0 0  0.01833333333333333 0 0  0.02291666666666667 0 0  0.0275 0 0  0.03208333333333334 0 0  0.03666666666666667 0 0  0.04125 0 0  0.04583333333333334 0 0  0.05041666666666667 0 0  0.055 0 0  0.05958333333333334 0 0  0.06416666666666668 0 0  0.06875000000000001 0 0  0.07333333333333333 0 0  0.07791666666666666 0 0  0.08249999999999999 0 0  0.08708333333333333 0 0  0.09166666666666667 0 0  0.09625000000000002 0 0  0.1008333333333333 0 0  0.1054166666666667 0 0  0.11 0 0  0.1145833333333333 0 0  0.1191666666666667 0 0  0.12375 0 0  0.1283333333333334 0 0  0.1329166666666667 0 0  0.1375 0 0  0.1420833333333333 0 0  0.1466666666666667 0 0  0.15125 0 0  0.1558333333333333 0 0  0.1604166666666667 0 0  0.165 0 0  0.1695833333333333 0 0  0.1741666666666667 0 0  0.17875 0 0  0.1833333333333333 0 0  0.1879166666666667 0 0  0.1925 0 0  0.1970833333333333 0 0  0.2016666666666667 0 0  0.20625 0 0  0.2108333333333333 0 0  0.2154166666666666 0 0  0.22 0 0  0.2245833333333334 0 0  0.2291666666666667 0 0  0.23375 0 0  0.2383333333333333 0 0  0.2429166666666667 0 0  0.2475 0 0  0.2520833333333333 0 0  0.2566666666666667 0 0  0.26125 0 0  0.2658333333333334 0 0  0.2704166666666666 0 0  0.275 0 0  0.2795833333333334 0 0  0.2841666666666667 0 0  0.28875 0 0  0.2933333333333333 0 0  0.2979166666666667 0 0  0.3025 0 0  0.3070833333333334 0 0  0.3116666666666666 0 0  0.31625 0 0  0.3208333333333333 0 0  0.3254166666666667 0 0  0.33 0 0  0.3345833333333333 0 0  0.3391666666666667 0 0  0.34375 0 0  0.3483333333333333 0 0  0.3529166666666667 0 0  0.3575 0 0  0.3620833333333333 0 0  0.3666666666666667 0 0  0.37125 0 0  0.3758333333333334 0 0  0.3804166666666667 0 0  0.3850000000000001 0 0  0.3895833333333333 0 0  0.3941666666666667 0 0  0.39875 0 0  0.4033333333333334 0 0  0.4079166666666666 0 0  0.4125 0 0  0.4170833333333334 0 0  0.4216666666666667 0 0  0.42625 0 0  0.4308333333333333 0 0  0.4354166666666667 0 0  0.44 0 0  0.4445833333333333 0 0  0.4491666666666667 0 0  0.45375 0 0  0.4583333333333333 0 0  0.4629166666666666 0 0  0.4675 0 0  0.4720833333333334 0 0  0.4766666666666667 0 0  0.4812500000000001 0 0  0.4858333333333333 0 0  0.4904166666666667 0 0  0.495 0 0  0.4995833333333334 0 0  0.5041666666666667 0 0  0.50875 0 0  0.5133333333333334 0 0  0.5179166666666667 0 0  0.5225 0 0  0.5270833333333333 0 0  0.5316666666666667 0 0  0.53625 0 0  0.5408333333333333 0 0  0.5454166666666667 0 0  0.55 0 0  0.5545833333333333 0 0  0.5591666666666667 0 0  0.5637500000000001 0 0  0.5683333333333334 0 0  0.5729166666666666 0 0  0.5775 0 0  0.5820833333333334 0 0  0.5866666666666667 0 0  0.5912499999999999 0 0  0.5958333333333334 0 0  0.6004166666666667 0 0  0.605 0 0  0.6095833333333334 0 0  0.6141666666666667 0 0  0.61875 0 0  0.6233333333333333 0 0  0.6279166666666667 0 0  0.6325000000000001 0 0  0.6370833333333333 0 0  0.6416666666666666 0 0  0.64625 0 0  0.6508333333333334 0 0  0.6554166666666666 0 0  0.6599999999999999 0 0  0.6645833333333334 0 0  0.6691666666666667 0 0  0.67375 0 0  0.6783333333333333 0 0  0.6829166666666667 0 0  0.6875 0 0  0.6920833333333333 0 0  0.6966666666666667 0 0  0.70125 0 0  0.7058333333333333 0 0  0.7104166666666667 0 0  0.7150000000000001 0 0  0.7195833333333334 0 0  0.7241666666666666 0 0  0.72875 0 0  0.7333333333333334 0 0  0.7379166666666667 0 0  0.7425 0 0  0.7470833333333333 0 0  0.7516666666666667 0 0  0.75625 0 0  0.7608333333333334 0 0  0.7654166666666666 0 0  0.7700000000000001 0 0  0 0.002380952380952381 0  0.004583333333333333 0.002380952380952381 0  0.009166666666666667 0.002380952380952381 0  0.01375 0.002380952380952381 0  0.01833333333333333 0.002380952380952381 0  0.02291666666666667 0.002380952380952381 0  0.0275 0.002380952380952381 0  0.03208333333333334 0.002380952380952381 0  0.03666666666666667 0.002380952380952381 0  0.04125 0.002380952380952381 0  0.04583333333333334 0.002380952380952381 0  0.05041666666666667 0.002380952380952381 0  0.055 0.002380952380952381 0  0.05958333333333334 0.002380952380952381 0  0.06416666666666668 0.002380952380952381 0  0.06875000000000001 0.002380952380952381 0  0.07333333333333333 0.002380952380952381 0  0.07791666666666666 0.002380952380952381 0  0.08249999999999999 0.002380952380952381 0  0.08708333333333333 0.002380952380952381 0  0.09166666666666667 0.002380952380952381 0  0.09625000000000002 0.002380952380952381 0  0.1008333333333333 0.002380952380952381 0  0.1054166666666667 0.002380952380952381 0  0.11 0.002380952380952381 0  0.1145833333333333 0.002380952380952381 0  0.1191666666666667 0.002380952380952381 0  0.12375 0.002380952380952381 0  0.1283333333333334 0.002380952380952381 0  0.1329166666666667 0.002380952380952381 0  0.1375 0.002380952380952381 0  0.1420833333333333 0.002380952380952381 0  0.1466666666666667 0.002380952380952381 0  0.15125 0.002380952380952381 0  0.1558333333333333 0.002380952380952381 0  0.1604166666666667 0.002380952380952381 0  0.165 0.002380952380952381 0  0.1695833333333333 0.002380952380952381 0  0.1741666666666667 0.002380952380952381 0  0.17875 0.002380952380952381 0  0.1833333333333333 0.002380952380952381 0  0.1879166666666667 0.002380952380952381 0  0.1925 0.002380952380952381 0  0.1970833333333333 0.002380952380952381 0  0.2016666666666667 0.002380952380952381 0  0.20625 0.002380952380952381 0  0.2108333333333333 0.002380952380952381 0  0.2154166666666666 0.002380952380952381 0  0.22 0.002380952380952381 0  0.2245833333333334 0.002380952380952381 0  0.2291666666666667 0.002380952380952381 0  0.23375 0.002380952380952381 0  0.2383333333333333 0.002380952380952381 0  0.2429166666666667 0.002380952380952381 0  0.2475 0.002380952380952381 0  0.2520833333333333 0.002380952380952381 0  0.2566666666666667 0.002380952380952381 0  0.26125 0.002380952380952381 0  0.2658333333333334 0.002380952380952381 0  0.2704166666666666 0.002380952380952381 0  0.275 0.002380952380952381 0  0.2795833333333334 0.002380952380952381 0  0.2841666666666667 0.002380952380952381 0  0.28875 0.002380952380952381 0  0.2933333333333333 0.002380952380952381 0  0.2979166666666667 0.002380952380952381 0  0.3025 0.002380952380952381 0  0.3070833333333334 0.002380952380952381 0  0.3116666666666666 0.002380952380952381 0  0.31625 0.002380952380952381 0  0.3208333333333333 0.002380952380952381 0  0.3254166666666667 0.002380952380952381 0  0.33 0.002380952380952381 0  0.3345833333333333 0.002380952380952381 0  0.3391666666666667 0.002380952380952381 0  0.34375 0.002380952380952381 0  0.3483333333333333 0.002380952380952381 0  0.3529166666666667 0.002380952380952381 0  0.3575 0.002380952380952381 0  0.3620833333333333 0.002380952380952381 0  0.3666666666666667 0.002380952380952381 0  0.37125 0.002380952380952381 0  0.3758333333333334 0.002380952380952381 0  0.3804166666666667 0.002380952380952381 0  0.3850000000000001 0.002380952380952381 0  0.3895833333333333 0.002380952380952381 0  0.3941666666666667 0.002380952380952381 0  0.39875 0.002380952380952381 0  0.4033333333333334 0.002380952380952381 0  0.4079166666666666 0.002380952380952381 0  0.4125 0.002380952380952381 0  0.4170833333333334 0.002380952380952381 0  0.4216666666666667 0.002380952380952381 0  0.42625 0.002380952380952381 0  0.4308333333333333 0.002380952380952381 0  0.4354166666666667 0.002380952380952381 0  0.44 0.002380952380952381 0  0.4445833333333333 0.002380952380952381 0  0.4491666666666667 0.002380952380952381 0  0.45375 0.002380952380952381 0  0.4583333333333333 0.002380952380952381 0  0.4629166666666666 0.002380952380952381 0  0.4675 0.002380952380952381 0  0.4720833333333334 0.002380952380952381 0  0.4766666666666667 0.002380952380952381 0  0.4812500000000001 0.002380952380952381 0  0.4858333333333333 0.002380952380952381 0  0.4904166666666667 0.002380952380952381 0  0.495 0.002380952380952381 0  0.4995833333333334 0.002380952380952381 0  0.5041666666666667 0.002380952380952381 0  0.50875 0.002380952380952381 0  0.5133333333333334 0.002380952380952381 0  0.5179166666666667 0.002380952380952381 0  0.5225 0.002380952380952381 0  0.5270833333333333 0.002380952380952381 0  0.5316666666666667 0.002380952380952381 0  0.53625 0.002380952380952381 0  0.5408333333333333 0.002380952380952381 0  0.5454166666666667 0.002380952380952381 0  0.55 0.002380952380952381 0  0.5545833333333333 0.002380952380952381 0  0.5591666666666667 0.002380952380952381 0  0.5637500000000001 0.002380952380952381 0  0.5683333333333334 0.002380952380952381 0  0.5729166666666666 0.002380952380952381 0  0.5775 0.002380952380952381 0  0.5820833333333334 0.002380952380952381 0  0.5866666666666667 0.002380952380952381 0  0.5912499999999999 0.002380952380952381 0  0.5958333333333334 0.002380952380952381 0  0.6004166666666667 0.002380952380952381 0  0.605 0.002380952380952381 0  0.6095833333333334 0.002380952380952381 0  0.6141666666666667 0.002380952380952381 0  0.61875 0.002380952380952381 0  0.6233333333333333 0.002380952380952381 0  0.6279166666666667 0.002380952380952381 0  0.6325000000000001 0.002380952380952381 0  0.6370833333333333 0.002380952380952381 0  0.6416666666666666 0.002380952380952381 0  0.64625 0.002380952380952381 0  0.6508333333333334 0.002380952380952381 0  0.6554166666666666 0.002380952380952381 0  0.6599999999999999 0.002380952380952381 0  0.6645833333333334 0.002380952380952381 0  0.6691666666666667 0.002380952380952381 0  0.67375 0.002380952380952381 0  0.6783333333333333 0.002380952380952381 0  0.6829166666666667 0.002380952380952381 0  0.6875 0.002380952380952381 0  0.6920833333333333 0.002380952380952381 0  0.6966666666666667 0.002380952380952381 0  0.70125 0.002380952380952381 0  0.7058333333333333 0.002380952380952381 0  0.7104166666666667 0.002380952380952381 0  0.7150000000000001 0.002380952380952381 
[...]
<PointData  Scalars="concentration"> 
<DataArray  type="Float64"  Name="concentration"  format="ascii">0.0000000000000000e+00  8.0096372252797005e-02  2.3034531890310106e-01  1.7610213474828970e-01  -2.3240328091811372e-02  -1.3067252965503726e-01  -1.7180500231640539e-01  -1.8850836850388031e-01  -1.7735114748294242e-01  -7.9889236981316364e-02  1.1120911578010708e-02  6.9595757459432802e-03  7.4975593256853875e-03  -1.3448327072961032e-03  7.0252303619440975e-03  -9.9039538529462276e-03  1.6339512566360136e-02  -1.2988016931577112e-02  -8.0619904860221026e-03  2.3875955951817018e-02  -2.2696480578987897e-02  1.8376707617357855e-02  -1.2679842954364990e-02  2.2512095391227529e-02  -2.6725360009784364e-02  1.5256757907659176e-02  -8.7969685081413054e-04  8.9394785759886082e-03  -1.0393629874077250e-02  2.2116857469997805e-02  -1.6315944907007031e-02  3.2109674777238494e-02  -2.2920500383074575e-02  4.6787995332485108e-02  -1.9893171592482304e-02  4.7969191263403377e-02  6.1486028517954931e-03  6.7107644139292363e-02  2.5393406467447328e-02  6.5995182166782274e-01  8.8232464938788602e-01  1.0967098714276162e+00  8.7565959421254658e-01  1.0809235928895935e+00  8.8169954717021881e-01  1.0779852850659497e+00  8.8461761395786898e-01  1.0766201801589821e+00  8.8655888966753227e-01  1.0767034415315244e+00  8.8840494916712121e-01  1.0777069738158025e+00  8.8865554730505891e-01  1.0470983541012611e+00  8.8656561580683546e-01  1.0905646334672043e+00  8.7238269317014527e-01  1.1180835365558928e+00  1.0243266027771694e+00  9.7182453339025843e-01  1.0126026787065623e+00  9.8274954250689150e-01  1.0056677652181008e+00  1.0198006141247027e+00  9.6107535240863440e-01  9.8227219213231987e-01  1.0000788188911478e+00  1.0170900673999763e+00  1.0382322096455634e+00  9.9680837254651666e-01  8.9832702682734311e-01  9.0027978031589195e-01  7.7661168778142664e-01  1.1122664013014070e+00  7.8933539280207332e-01  1.2436491760301243e+00  6.8737015401237866e-01  1.3095566534495089e+00  6.7058328814866353e-01  1.3303333338802175e+00  6.6754348929274121e-01  1.3287085016876632e+00  6.7927217422029296e-01  1.3214070981428860e+00  6.9511231857124012e-01  1.3092124241790781e+00  7.1718697881515203e-01  1.2898862253750927e+00  7.4975854615120752e-01  1.2274637467163358e+00  7.6905180512591897e-01  1.2159252401885898e+00  7.8524490315137152e-01  1.2136061724694778e+00  7.8969652799636503e-01  1.2104627222026487e+00  7.9237181046708882e-01  1.2081288843552895e+00  7.9412433638687074e-01  1.2064293477114498e+00  7.9538828317070565e-01  1.2051165649414242e+00  7.9650006273914620e-01  1.2038871343972433e+00  7.9780983794408655e-01  1.2022953606113842e+00  7.9981929216395753e-01  1.1995429793152670e+00  8.0340388202752588e-01  1.1940193916068289e+00  8.1022370984814296e-01  1.1823105544924870e+00  8.2358285650945040e-01  1.1573266140554188e+00  8.5089440596661103e-01  1.1080661056322865e+00  9.1691918803647376e-01  1.0627304353931637e+00  9.5293872651468003e-01  1.0244910479866083e+00  9.7747968155761333e-01  1.0035188434011919e+00  9.9100052182103093e-01  9.9638252599529997e-01  1.0007583241395979e+00  9.9372220003169021e-01  1.0140150658760221e+00  9.9739724843289157e-01  1.0327160119003971e+00  9.9178612860068860e-01  1.0563647620264143e+00  1.0193012158528576e+00  1.2638043323199062e+00  8.9004644846428782e-01  9.4234725198102720e-01  9.7023157476834121e-01  9.8877514215968476e-01  9.9673653879870017e-01  9.9992446621861586e-01  1.0009768486402106e+00  1.0011494106119032e+00  1.0010051914198994e+00  1.0007825104076757e+00  1.0005727697947555e+00  1.0004037132481092e+00  1.0002774503362553e+00  1.0001872825599027e+00  1.0001247480501814e+00  1.0000822550294195e+00  1.0000538084804564e+00  1.0000349789818161e+00  1.0000226237979484e+00  1.0000145725875222e+00  1.0000093549766733e+00  1.0000059887925978e+00  1.0000038250061727e+00  1.0000024382987236e+00  1.0000015518148553e+00  1.0000009862745565e+00  1.0000006261126337e+00  1.0000003970631992e+00  1.0000002515808573e+00  1.0000001592539558e+00  1.0000001007107582e+00  1.0000000636331694e+00  1.0000000400072944e+00  1.0000000256574924e+00  1.0000000138858720e+00  1.0000000185870022e+00  0.0000000000000000e+00  -1.8718438087687868e-02  -1.0170769424289891e-01  6.5391033577159002e-02  6.2680383538678308e-01  9.0464369134834000e-01  9.6998914677437309e-01  9.2654477555155068e-01  9.4138285546383582e-01  3.0983813940247407e-01  1.3932679558260733e-01  8.3861232286622983e-02  4.7692700044978664e-02  3.4964043459924897e-02  1.4036904965392267e-02  2.2500378479170708e-02  -7.6262672596066469e-03  1.9481889114978234e-02  9.6111391574376700e-03  -2.1334014066035967e-02  2.4769800342150452e-02  -1.7321553513367352e-02  1.4285193568314307e-02  -1.9297197764724380e-02  2.9441892371547731e-02  -1.4132526943670886e-02  3.8690767500876651e-03  -4.4462482011075220e-03  1.4998754909601243e-02  -1.5457176959066900e-02  2.4073526040204463e-02  -2.1196283899575348e-02  3.5535473439173813e-02  -2.9300481880638607e-02  4.2485912221509402e-02  -1.9151912736970624e-02  3.3512284585905855e-02  -1.1450632894518540e-02  5.3887059573950978e-02  -2.8143563857805788e-02  7.2885908310975123e-01  3.0021837319847822e-01  8.1527869252463359e-01  3.1125568661602265e-01  8.1016031413848699e-01  3.1029830793213425e-01  8.0515645967538740e-01  3.1248371614701276e-01  8.0242160581394950e-01  3.1759161282836607e-01  8.0427333668785306e-01  3.2809059928136547e-01  8.1463400861763935e-01  3.4829254150489469e-01  7.3839147804858685e-01  3.1281259420692176e-01  7.5956511382164538e-01  3.3513210768449170e-01  8.1412545288832672e-01  1.0689078837327002e+00  9.8566571413077986e-01  1.0277491550180904e+00  9.7467753075151231e-01  9.8219393252682163e-01  1.0551413214346250e+00  9.5653061748974011e-01  9.0391479955481568e-01  8.9633306227542187e-01  9.2227815466881147e-01  1.0181785452323735e+00  1.0650333153982201e+00  8.7460816181795398e-01  7.7177135203447023e-01  1.7972899369176573e-01  2.5678887756742025e-01  -6.7193218968142676e-02  3.0136476364407366e-01  -1.5670421660206477e-01  2.8261660332026284e-01  -2.0140574358029431e-01  2.7228198067359966e-01  -2.1343121054037401e-01  2.6101677780995469e-01  -2.1654781978556401e-01  2.5234568347983816e-01  -2.1287113987191278e-01  2.4464720441275534e-01  -1.9760938386354740e-01  2.3698512762640772e-01  -1.5420141542277074e-01  2.0247247216029768e-01  -1.4892661769320351e-01  1.8603710773508494e-01  -1.5736713685547390e-01  1.7792383182703014e-01  -1.6168157350767803e-01  1.7352321025043604e-01  -1.6372401193935637e-01  1.7115537451354920e-01  -1.6454032515863751e-01  1.6988411353917035e-01  -1.6459454650571814e-01  1.6918150417686897e-01  -1.6399450144541897e-01  1.6867285113795316e-01  -1.6258940581740747e-01  1.6790624117560835e-01  -1.5995539330654054e-01  1.6602704753538330e-01  -1.5528095349496399e-01  1.6112866782362287e-01  -1.4715479976325230e-01  1.4878488771161019e-01  -1.3330091062123581e-01  1.1881966301796573e-01  -1.1060524280701178e-01  4.9716744722704313e-02  -7.5812089936461283e-02  2.1490610755661825e-02  -3.8784706950403709e-02  3.8875100756185582e-04  -2.4173258523500964e-02  -1.5474538972406927e-02  -2.1611494227702283e-02  -2.3413572301453193e-02  -1.5634754488079678e-02  -2.2581858734781499e-02  4.6882779237998277e-03  3.6492257240648310e-03  4.5574304124415516e-02  2.0185017563715595e-02  8.9572284427259910e-02  4.7722520540214152e-03  2.2326615104158448e-01  4.2989128677095828e-01  6.4189329460258326e-01  7.7871866200543693e-01  8.6203203735860723e-01  9.1353786451825447e-01  9.4565517107278163e-01  9.6578288575342730e-01  9.7843328115117001e-01  9.8639789004692235e-01  9.9141769978060312e-01  9.9458361846301857e-01  9.9658115318327245e-01  9.9784182508362607e-01  9.9863757765572425e-01  9.9913991187540607e-01  9.9945703419255894e-01  9.9965723577286336e-01  9.9978362401492082e-01  9.9986341231273412e-01  9.9991378115384877e-01  9.9994557721094912e-01  9.9996564835741619e-01  9.9997831783319724e-01  9.9998631492892887e-01  9.9999136263701893e-01  9.9999454861629233e-01  9.9999655947613519e-01  9.9999782860016651e-01  9.9999862957536667e-01  9.9999913506061400e-01  9.9999945404259594e-01  9.9999965536925572e-01  9.9999978220432706e-01  9.9999986246906047e-01  9.9999991336251770e-01  0.0000000000000000e+00  5.9890195584589526e-04  -1.5844363850242564e-02  1.7261856667614606e-01  5.8496758501083511e-02  6.2639460879720693e-02  5.3132591018937005e-02  7.2331315256189063e-02  2.1985112192063009e-02  -4.0530116563258486e-02  -3.6815904727391831e-02  -2.7519166035140791e-02  -1.4473067695978458e-02  -1.4660714282968819e-02  -2.0749220268701987e-03  -1.4069273292967527e-02  1.1893906027623339e-02  -2.0980464972742516e-02  8.8236075448785934e-04  2.4174443445051541e-02  -2.6127361795251353e-02  2.2461657526130815e-02  -1.4628787087382579e-02  1.7123386674733072e-02  -3.1182932214963575e-02  2.3869232973952513e-02  -1.7980198706236906e-03  5.3873251664144891e-03  -1.1317991413330218e-02  1.9383250804658136e-02  -2.0658615159585159e-02  2.5899185016363385e-02  -3.0364657662144981e-02  3.7268496793847826e-02  -3.8860199435124615e-02  3.2631702714133640e-02  -2.7356029049702864e-02  1.8981921489200464e-02  -3.6153047260646720e-02  4.6107823197762202e-02  -1.0307821690698539e-01  -3.4042371785164463e-02  -8.4509243020026159e-02  -1.4931276690478489e-02  -7.2342571509065076e-02  -7.1655344193631730e-03  -6.6668986843059552e-02  -6.1409447119892008e-03  -6.2886031168514281e-02  -6.9162655014726746e-03  -5.8688908439545606e-02  -4.0481544427523964e-03  -4.7474666679233966e-02  1.4468857228650668e-02  -9.1888239180712048e-04  3.4478707997297769e-02  -2.4209378075995925e-02  1.1163840982636295e-02  -1.0229956086911390e-02  -4.2351388221956179e-02  1.1001088015258372e-02  -1.7918965200505805e-02  2.1318957274496449e-02  6.4683745690233777e-03  -3.3104439253293337e-02  5.6811800609431376e-02  6.7323429800391382e-02  3.0874844035996916e-02  -1.2941390518049418e-02  -6.8173016162162703e-02  -1.0149025403885251e-01  -3.4929500139861923e-02  -3.8396659635568951e-02  1.5104772020371237e-03  -1.8648401326790542e-01  9.8548795199919811e-02  -2.7692320953103861e-01  1.8727184494508820e-01  -2.7109465647175279e-01  2.2072756311157554e-01  -2.7145527334212000e-01  2.2744972966121899e-01  -2.6417106101908350e-01  2.2913352018120720e-01  -2.5835727669048608e-01  2.2406567169557148e-01  -2.5368515865739488e-01  2.0858709441657208e-01  -2.4536624486134678e-01  1.7614372871663211e-01  -1.9747137326332176e-01  1.7003235029208535e-01  -1.7936147977150885e-01  1.8050058191216004e-01  -1.7124552360661224e-01  1.8423796853428717e-01  -1.6826366973642595e-01  1.8495872909337524e-01  -1.6738511585353216e-01  1.8466637766731930e-01  -1.6706951336253789e-01  1.8424818507822074e-01  -1.6651897009290315e-01  1.8402887866637654e-01  -1.6518976302494437e-01  1.8403369094295799e-01  -1.6245432731586248e-01  1.8403576109271302e-01  -1.5726393326289734e-01  1.8339660774129066e-01  -1.4763029168827210e-01  1.8059625687524888e-01  -1.2963239133541801e-01  1.7214599468541172e-01  -9.5587038153562176e-02  1.5012867664744706e-01  -3.2311107478647356e-02  9.5941765070421334e-02  -1.6577966409988303e-02  4.4326434976340368e-02  -3.0084508523062379e-03  2.0088259788807142e-02  5.6933863567030464e-03  7.7225118242428420e-03  4.0000569038704378e-03  -8.2036406063453436e-03  -4.7323658799140007e-03  -3.3105846190367230e-02  -2.7526677697003819e-02  -5.9902956430736946e-02  -2.1869164906236711e-02  -7.3374035017679126e-02  3.1246899943354937e-02  -7.2710847268672024e-02  1.2229197554998794e-01  4.4272510076836280e-01  6.5435262657361715e-01  7.8528194829174491e-01  8.6627737265801452e-01  9.1646973250587704e-01  9.4767757291136367e-01  9.6714816468463116e-01  9.7933329212231368e-01  9.8697871240346058e-01  9.9178578275327389e-01  9.9481326296103945e-01  9.9672245782763769e-01  9.9792767281414396e-01  9.9868909877726830e-01  9.9917045290853146e-01  9.9947490392232397e-01  9.9966754139091552e-01  9.9978946833142213e-01  9.9986665936424968e-01  9.9991553819665957e-01  9.9994649419109616e-01  9.9996610182111845e-01  9.9997852267391985e-01  9.9998639158178926e-01  9.9999137707654995e-01  9.9999453589470411e-01  9.9999653742558248e-01  9.9999780568578533e-01  9.9999860933802065e-01  9.9999911857268375e-01  9.9999944122871731e-01  9.9999964564629640e-01  9.9999977538039608e-01  9.9999985663191526e-01  0.0000000000000000e+00  -4.8976174908128417e-03  3.6127132358787471e-02  -8.7536373072290341e-02  -5.6124914961510142e-03  -9.8544995343982054e-03  -7.2499967639879908e-03  -3.8761237679418824e-02  -4.0691404922456667e-02  -1.1047461829886373e-02  1.1511896979150391e-03  6.0144172931318185e-03  1.8550843851708456e-03  6.8348936814199776e-03  -1.9670093228583855e-03  9.2210580915727588e-03  -1.3332002954239986e-02  2.4582823761111754e-02  -1.9262818888258492e-02  -2.5292635556281390e-02  3.0435641905496108e-02  -2.9533981497739056e-02  1.8136447894949698e-02  -1.1659376889570101e-02  3.2647182548706431e-02  -4.0349534549034075e-02  2.9275022891143325e-03  -2.0112911205724332e-03  1.0017217780382282e-02  -1.9473332772398742e-02  2.2076310939661500e-02  -2.5226429644120300e-02  3.0811760171400252e-02  -3.8824644379961928e-02  4.4245038111793408e-02  -4.2308157435220504e-02  3.1139552332103693e-02  -2.2527318114351689e-02  2.4496608083408273e-02  -4.5638212159578265e-02  5.9337545488075648e-02  -1.9162333056861891e-03  3.9505736837266527e-02  -1.6822356051672333e-02  2.9775301587628027e-02  -2.3656631515923430e-02  2.2920647436945836e-02  -2.7136521796017762e-02  1.5431221020812692e-02  -3.1222886337780500e-02  5.5344182762333402e-03  -4.1885185221750686e-02  -1.2236510245178262e-02  -6.8770188130875126e-02  -6.7501024761168968e-02  -4.8573742885481316e-02  3.4766371724208253e-02  5.7442569632904242e-02  8.2485184165225059e-02  8.5906435571214926e-02  1.7122216456287608e-02  4.2929567915245395e-02  -9.1430004760562605e-03  9.7828280678937743e-03  3.3139062790009555e-02  -7.8333428396913207e-02  -8.7411720523109707e-02  -3.2883963811831556e-02  4.5362808228453358e-02  9.6666987791331704e-02  9.9808197348497052e-02  1.5489072319209493e-02  -8.7548603712193866e-03  -2.3057689204123800e-02  2.3135065919405812e-01  -2.3381116352664433e-02  2.9762241743871654e-01  -2.3704716039179613e-01  2.1955274757443893e-01  -3.3182870359582878e-01  1.7058908342384194e-01  -3.8389515611896241e-01  1.2703511361243386e-01  -4.1665030627566901e-01  9.7372135935364784e-02  -4.3461144678931823e-01  7.2638457243139984e-02  -4.4426953209268477e-01  3.7775377651075692e-02  -4.5061557128797947e-01  -5.6993322721748875e-02  -4.0637302943226555e-01  4.9601396116053624e-03  -3.5671668937066070e-01  4.4108407481044068e-02  -3.2432359808608668e-01  6.9850681300364828e-02  -3.0271178636972457e-01  8.7079772778987055e-02  -2.8806047223687370e-01  9.8705601215146807e-02  -2.7790431820850769e-01  1.0658728898222684e-01  -2.7048708543510092e-01  1.1193260686733474e-01  -2.6437048383350642e-01  1.1547938758898600e-01  -2.5806293429820992e-01  1.1755646854689900e-01  -2.4947360919751219e-01  1.1804936163174286e-01  -2.3486698256122004e-01  1.1629540073268695e-01  -2.0658468144871270e-01  1.1119272315652080e-01  -1.4774283538524846e-01  1.0380301843669523e-01  -1.8504866206925406e-02  1.3786316122352629e-01  8.6379319684646058e-02  1.6071087832863867e-01  1.5040741747177877e-01  1.8666186107369689e-01  2.0323437529054605e-01  2.2914335038725334e-01  2.6184034189710848e-01  2.7804261433881705e-01  3.2185092175681501e-01  2.7294872338680287e-01  2.5842940234082190e-01  2.0379082330561354e-01  2.0343729862571458e-01  6.4065529944091620e-02  1.9257461162442643e-01  3.5420675776899352e-01  5.6652403097028781e-01  7.2666596193211552e-01  8.3020161991833230e-01  8.9480486952205984e-01  9.3472074973148289e-01  9.5936870131061247e-01  9.7463056263881842e-01  9.8411518454192193e-01  9.9003050978257956e-01  9.9373120235698087e-01  9.9605231138255668e-01  9.9751110328434778e-01  9.9842940751413389e-01  9.9900819800698293e-01  9.9937335230854007e-01  9.9960389824531148e-01  9.9974954203145550e-01  9.9984159210744272e-01  9.9989979052687705e-01  9.9993659665426893e-01  9.9995987892461102e-01  9.9997460907307667e-01  9.9998392979526851e-01  9.9998982828882388e-01  9.9999356139506390e-01  9.9999592422328476e-01  9.9999741981676527e-01  9.9999836653028118e-01  9.9999896579610836e-01  9.9999934514406497e-01  9.9999958524378163e-01  9.9999973727330227e-01  9.9999983309067275e-01  9.9999989427414215e-01  0.0000000000000000e+00  9.2729129048623668e-03  -3.4168079924577884e-02  4.8375165316452272e-02  -7.6698509214014289e-03  -5.7635364306010675e-03  -1.5355363343327698e-02  1.3032526896225732e-03  1.5235495624884335e-02  8.7954298746445551e-03  4.2288241609522628e-03  -1.0833973325599642e-03  1.6295757953852313e-03  -3.0204095269329182e-03  5.3204286586861190e-03  -1.8253108664559570e-03  1.6984235382195949e-02  -2.3517853864782830e-02  5.0958887134013017e-02  2.3063857347707471e-02  -3.7069308607498554e-02  4.0214446017407604e-02  -2.4794433516373126e-02  6.1225018797888683e-03  -2.7037469065617718e-02  6.7673848659469946e-02  -9.0567152051256854e-03  -5.7032032991232752e-03  -1.0354447959590748e-02  1.5729499812862643e-02  -2.8580804306330709e-02  1.9582871915012279e-02  -3.5533524590810342e-02  3.5503381598877358e-02  -5.4803255160012117e-02  5.0813402898996621e-02  -4.4389591486518706e-02  2.4438251659236115e-02  -2.2046118398202051e-02  3.4816019279949581e-02  -4.1051628029508944e-02  8.4510267164305628e-03  -2.8671683578633624e-02  1.3510470618343979e-02  -2.6627849684949096e-02  1.2536813630133075e-02  -2.6949958744029022e-02  7.4381369552709306e-03  -2.9286712271704960e-02  -1.9177036543448071e-03  -3.6583358811655808e-02  -1.5735316958144299e-02  -5.5301500992729208e-02  -4.2799380936282813e-02  -1.0321104543947207e-01  -7.3888700660164369e-02  -8.7904088385197705e-03  -4.3341450645983548e-02  8.5663225779370661e-02  -1.9400492836720096e-03  3.1321204336963560e-02  -3.4923843984904321e-02  -3.2148915611628528e-03  -6.2210619372744705e-02  -1.0464089596299433e-01  2.1159265166969870e-03  -7.1862431736093565e-02  -2.8006497931499900e-02  -7.6327841307500782e-02  5.2306322404941145e-02  -2.7800285469792792e-02  3.8084731982267667e-02  7.2526009924016754e-02  2.8720916044379075e-03  1.7042029241100973e-02  5.8059389760258739e-01  3.2162584609525557e-01  9.2895795845550677e-01  3.9591634134699689e-02  8.7735163046499065e-01  -5.0343475047092186e-03  8.5939322276173058e-01  -2.5742748625941534e-02  8.3303341028894007e-01  -3.3745547328207511e-02  8.2199704423896292e-01  -3.4792202903089028e-02  8.1807094251607937e-01  -3.5844832271947756e-02  8.0434805048424196e-01  -1.4494562737714214e-01  1.0763380472494686e+00  -1.1968658958718409e-01  1.0801090043265920e+00  -1.2409853321761329e-01  1.0745023859210883e+00  -1.2977742393169725e-01  1.0689066639911464e+00  -1.3444041474916668e-01  1.0644545312363689e+00  -1.3776999320469177e-01  1.0611376975398998e+00  -1.3984466735827913e-01  1.0586559456525408e+00  -1.4072191083780383e-01  1.0566149946880448e+00  -1.4022421781538291e-01  1.0545134655318682e+00  -1.3770849458605364e-01  1.0515719741637253e+00  -1.3168077224522348e-01  1.0462641803729908e+00  -1.1916740619898540e-01  1.0349346397001227e+00  -9.5307029588220488e-02  1.0067628527965808e+00  -5.6692075027903029e-02  9.3824567183097907e-01  4.2429138983561449e-01  1.0641284493881245e+00  8.1789846970830915e-01  1.0676319088269144e+00  9.4245459173518797e-01  1.0098688739573116e+00  9.5596438749040680e-01  9.6676277674524236e-01  9.6504500500395229e-01  9.5649481837202144e-01  1.1455840219897320e+00  1.0993801064694291e+00  1.1619095913560118e+00  1.0233719532904955e+00  6.2981495518511033e-01  5.2888090041417024e-01  6.3052012065067542e-01  7.4767563006020465e-01  8.4138375630210749e-01  9.0268895984240038e-01  9.4060786657999540e-01  9.6367029713276764e-01  9.7766913013353762e-01  9.8620065179067173e-01  9.91431