<?xml version="1.0"?>
<VTKFile type="UnstructuredGrid"  version="0.1"  >
<UnstructuredGrid>
<Piece  NumberOfPoints="21400" NumberOfCells="42336">
<Points>
<DataArray  type="Float64"  NumberOfComponents="3"  format="ascii">0 0 0  0.004583333333333333 0 0  0.009166666666666667 0 0  0.01375 0 0  0.01833333333333333 0 0  0.02291666666666667 0 0  0.0275 0 0  0.03208333333333334 0 0  0.03666666666666667 0 0  0.04125 0 0  0.04583333333333334 0 0  0.05041666666666667 0 0  0.055 0 0  0.05958333333333334 0 0  0.06416666666666668 0 0  0.06875000000000001 0 0  0.07333333333333333 0 0  0.07791666666666666 0 0  0.08249999999999999 0 0  0.08708333333333333 0 0  0.09166666666666667 0 0  0.09625000000000002 0 0  0.1008333333333333 0 0  0.1054166666666667 0 0  0.11 0 0  0.1145833333333333 0 0  0.1191666666666667 0 0  0.12375 0 0  0.1283333333333334 0 0  0.1329166666666667 0 0  0.1375 0 0  0.1420833333333333 0 0  0.1466666666666667 0 0  0.15125 0 0  0.1558333333333333 0 0  0.1604166666666667 0 0  0.165 0 0  0.1695833333333333 0 0  0.1741666666666667 0 0  0.17875 0 0  0.1833333333333333 0 0  0.1879166666666667 0 0  0.1925 0 0  0.1970833333333333 0 0  0.2016666666666667 0 0  0.20625 0 0  0.2108333333333333 0 0  0.2154166666666666 0 0  0.22 0 0  0.2245833333333334 0 0  0.2291666666666667 0 0  0.23375 0 0  0.2383333333333333 0 0  0.2429166666666667 0 0  0.2475 0 0  0.2520833333333333 0 0  0.2566666666666667 0 0  0.26125 0 0  0.2658333333333334 0 0  0.2704166666666666 0 0  0.275 0 0  0.2795833333333334 0 0  0.2841666666666667 0 0  0.28875 0 0  0.2933333333333333 0 0  0.2979166666666667 0 0  0.3025 0 0  0.3070833333333334 0 0  0.3116666666666666 0 0  0.31625 0 0  0.3208333333333333 0 0  0.3254166666666667 0 0  0.33 0 0  0.3345833333333333 0 0  0.3391666666666667 0 0  0.34375 0 0  0.3483333333333333 0 0  0.3529166666666667 0 0  0.3575 0 0  0.3620833333333333 0 0  0.3666666666666667 0 0  0.37125 0 0  0.3758333333333334 0 0  0.3804166666666667 0 0  0.3850000000000001 0 0  0.3895833333333333 0 0  0.3941666666666667 0 0  0.39875 0 0  0.4033333333333334 0 0  0.4079166666666666 0 0  0.4125 0 0  0.4170833333333334 0 0  0.4216666666666667 0 0  0.42625 0 0  0.4308333333333333 0 0  0.4354166666666667 0 0  0.44 0 0  0.4445833333333333 0 0  0.4491666666666667 0 0  0.45375 0 0  0.4583333333333333 0 0  0.4629166666666666 0 0  0.4675 0 0  0.4720833333333334 0 0  0.4766666666666667 0 0  0.4812500000000001 0 0  0.4858333333333333 0 0  0.4904166666666667 0 0  0.495 0 0  0.4995833333333334 0 0  0.5041666666666667 0 0  0.50875 0 0  0.5133333333333334 0 0  0.5179166666666667 0 0  0.5225 0 0  0.5270833333333333 0 0  0.5316666666666667 0 0  0.53625 0 0  0.5408333333333333 0 0  0.5454166666666667 0 0  0.55 0 0  0.5545833333333333 0 0  0.5591666666666667 0 0  0.5637500000000001 0 0  0.5683333333333334 0 0  0.5729166666666666 0 0  0.5775 0 0  0.5820833333333334 0 0  0.5866666666666667 0 0  0.5912499999999999 0 0  0.5958333333333334 0 0  0.6004166666666667 0 0  0.605 0 0  0.6095833333333334 0 0  0.6141666666666667 0 0  0.61875 0 0  0.6233333333333333 0 0  0.6279166666666667 0 0  0.6325000000000001 0 0  0.6370833333333333 0 0  0.6416666666666666 0 0  0.64625 0 0  0.6508333333333334 0 0  0.6554166666666666 0 0  0.6599999999999999 0 0  0.6645833333333334 0 0  0.6691666666666667 0 0  0.67375 0 0  0.6783333333333333 0 0  0.6829166666666667 0 0  0.6875 0 0  0.6920833333333333 0 0  0.6966666666666667 0 0  0.70125 0 0  0.7058333333333333 0 0  0.7104166666666667 0 0  0.7150000000000001 0 0  0.7195833333333334 0 0  0.7241666666666666 0 0  0.72875 0 0  0.7333333333333334 0 0  0.7379166666666667 0 0  0.7425 0 0  0.7470833333333333 0 0  0.7516666666666667 0 0  0.75625 0 0  0.7608333333333334 0 0  0.7654166666666666 0 0  0.7700000000000001 0 0  0 0.002380952380952381 0  0.004583333333333333 0.002380952380952381 0  0.009166666666666667 0.002380952380952381 0  0.01375 0.002380952380952381 0  0.01833333333333333 0.002380952380952381 0  0.02291666666666667 0.002380952380952381 0  0.0275 0.002380952380952381 0  0.03208333333333334 0.002380952380952381 0  0.03666666666666667 0.002380952380952381 0  0.04125 0.002380952380952381 0  0.04583333333333334 0.002380952380952381 0  0.05041666666666667 0.002380952380952381 0  0.055 0.002380952380952381 0  0.05958333333333334 0.002380952380952381 0  0.06416666666666668 0.002380952380952381 0  0.06875000000000001 0.002380952380952381 0  0.07333333333333333 0.002380952380952381 0  0.07791666666666666 0.002380952380952381 0  0.08249999999999999 0.002380952380952381 0  0.08708333333333333 0.002380952380952381 0  0.09166666666666667 0.002380952380952381 0  0.09625000000000002 0.002380952380952381 0  0.1008333333333333 0.002380952380952381 0  0.1054166666666667 0.002380952380952381 0  0.11 0.002380952380952381 0  0.1145833333333333 0.002380952380952381 0  0.1191666666666667 0.002380952380952381 0  0.12375 0.002380952380952381 0  0.1283333333333334 0.002380952380952381 0  0.1329166666666667 0.002380952380952381 0  0.1375 0.002380952380952381 0  0.1420833333333333 0.002380952380952381 0  0.1466666666666667 0.002380952380952381 0  0.15125 0.002380952380952381 0  0.1558333333333333 0.002380952380952381 0  0.1604166666666667 0.002380952380952381 0  0.165 0.002380952380952381 0  0.1695833333333333 0.002380952380952381 0  0.1741666666666667 0.002380952380952381 0  0.17875 0.002380952380952381 0  0.1833333333333333 0.002380952380952381 0  0.1879166666666667 0.002380952380952381 0  0.1925 0.002380952380952381 0  0.1970833333333333 0.002380952380952381 0  0.2016666666666667 0.002380952380952381 0  0.20625 0.002380952380952381 0  0.2108333333333333 0.002380952380952381 0  0.2154166666666666 0.002380952380952381 0  0.22 0.002380952380952381 0  0.2245833333333334 0.002380952380952381 0  0.2291666666666667 0.002380952380952381 0  0.23375 0.002380952380952381 0  0.2383333333333333 0.002380952380952381 0  0.2429166666666667 0.002380952380952381 0  0.2475 0.002380952380952381 0  0.2520833333333333 0.002380952380952381 0  0.2566666666666667 0.002380952380952381 0  0.26125 0.002380952380952381 0  0.2658333333333334 0.002380952380952381 0  0.2704166666666666 0.002380952380952381 0  0.275 0.002380952380952381 0  0.2795833333333334 0.002380952380952381 0  0.2841666666666667 0.002380952380952381 0  0.28875 0.002380952380952381 0  0.2933333333333333 0.002380952380952381 0  0.2979166666666667 0.002380952380952381 0  0.3025 0.002380952380952381 0  0.3070833333333334 0.002380952380952381 0  0.3116666666666666 0.002380952380952381 0  0.31625 0.002380952380952381 0  0.3208333333333333 0.002380952380952381 0  0.3254166666666667 0.002380952380952381 0  0.33 0.002380952380952381 0  0.3345833333333333 0.002380952380952381 0  0.3391666666666667 0.002380952380952381 0  0.34375 0.002380952380952381 0  0.3483333333333333 0.002380952380952381 0  0.3529166666666667 0.002380952380952381 0  0.3575 0.002380952380952381 0  0.3620833333333333 0.002380952380952381 0  0.3666666666666667 0.002380952380952381 0  0.37125 0.002380952380952381 0  0.3758333333333334 0.002380952380952381 0  0.3804166666666667 0.002380952380952381 0  0.3850000000000001 0.002380952380952381 0  0.3895833333333333 0.002380952380952381 0  0.3941666666666667 0.002380952380952381 0  0.39875 0.002380952380952381 0  0.4033333333333334 0.002380952380952381 0  0.4079166666666666 0.002380952380952381 0  0.4125 0.002380952380952381 0  0.4170833333333334 0.002380952380952381 0  0.4216666666666667 0.002380952380952381 0  0.42625 0.002380952380952381 0  0.4308333333333333 0.002380952380952381 0  0.4354166666666667 0.002380952380952381 0  0.44 0.002380952380952381 0  0.4445833333333333 0.002380952380952381 0  0.4491666666666667 0.002380952380952381 0  0.45375 0.002380952380952381 0  0.4583333333333333 0.002380952380952381 0  0.4629166666666666 0.002380952380952381 0  0.4675 0.002380952380952381 0  0.4720833333333334 0.002380952380952381 0  0.4766666666666667 0.002380952380952381 0  0.4812500000000001 0.002380952380952381 0  0.4858333333333333 0.002380952380952381 0  0.4904166666666667 0.002380952380952381 0  0.495 0.002380952380952381 0  0.4995833333333334 0.002380952380952381 0  0.5041666666666667 0.002380952380952381 0  0.50875 0.002380952380952381 0  0.5133333333333334 0.002380952380952381 0  0.5179166666666667 0.002380952380952381 0  0.5225 0.002380952380952381 0  0.5270833333333333 0.002380952380952381 0  0.5316666666666667 0.002380952380952381 0  0.53625 0.002380952380952381 0  0.5408333333333333 0.002380952380952381 0  0.5454166666666667 0.002380952380952381 0  0.55 0.002380952380952381 0  0.5545833333333333 0.002380952380952381 0  0.5591666666666667 0.002380952380952381 0  0.5637500000000001 0.002380952380952381 0  0.5683333333333334 0.002380952380952381 0  0.5729166666666666 0.002380952380952381 0  0.5775 0.002380952380952381 0  0.5820833333333334 0.002380952380952381 0  0.5866666666666667 0.002380952380952381 0  0.5912499999999999 0.002380952380952381 0  0.5958333333333334 0.002380952380952381 0  0.6004166666666667 0.002380952380952381 0  0.605 0.002380952380952381 0  0.6095833333333334 0.002380952380952381 0  0.6141666666666667 0.002380952380952381 0  0.61875 0.002380952380952381 0  0.6233333333333333 0.002380952380952381 0  0.6279166666666667 0.002380952380952381 0  0.6325000000000001 0.002380952380952381 0  0.6370833333333333 0.002380952380952381 0  0.6416666666666666 0.002380952380952381 0  0.64625 0.002380952380952381 0  0.6508333333333334 0.002380952380952381 0  0.6554166666666666 0.002380952380952381 0  0.6599999999999999 0.002380952380952381 0  0.6645833333333334 0.002380952380952381 0  0.6691666666666667 0.002380952380952381 0  0.67375 0.002380952380952381 0  0.6783333333333333 0.002380952380952381 0  0.6829166666666667 0.002380952380952381 0  0.6875 0.002380952380952381 0  0.6920833333333333 0.002380952380952381 0  0.6966666666666667 0.002380952380952381 0  0.70125 0.002380952380952381 0  0.7058333333333333 0.002380952380952381 0  0.7104166666666667 0.002380952380952381 0  0.7150000000000001 0.002380952380952381 
[...]
<PointData  Scalars="concentration"> 
<DataArray  type="Float64"  Name="concentration"  format="ascii">0.0000000000000000e+00  8.0092350466107715e-02  2.3033321570731391e-01  1.7610150923763096e-01  -2.3242893685600913e-02  -1.3068615675411571e-01  -1.7183086915542534e-01  -1.8855798520515046e-01  -1.7744422992591749e-01  -8.0070664929759769e-02  1.0953650716243815e-02  6.7358233942671174e-03  7.2478628735575092e-03  -1.6961521890981324e-03  6.6256703302663223e-03  -1.0475360713624491e-02  1.5683965308412238e-02  -1.3874055667391080e-02  -9.1644659017317449e-03  2.2379896496894924e-02  -2.4399159533074258e-02  1.5863046994322626e-02  -1.5482322462074092e-02  1.8564392912672506e-02  -3.1280856347246762e-02  8.6035010524206333e-03  -8.6147526631362714e-03  -1.6679131704370788e-03  -2.3461088251596859e-02  3.9707942163247426e-03  -3.8853384216261132e-02  1.8667051686376885e-04  -6.4636306558680204e-02  -1.5949825803342123e-02  -1.0131852949788714e-01  -2.5678463354692166e-01  7.3408927871678953e-01  1.0366700225477068e+00  1.0214652951501826e+00  1.1489091227794879e+00  8.7877865497784946e-01  1.0903946436815519e+00  8.7719746261078679e-01  1.0818061656854983e+00  8.7918660958072292e-01  1.0810418311817158e+00  8.7932944852471484e-01  1.0814139459875798e+00  8.7864004163761900e-01  1.0824819776095751e+00  8.7714893279414086e-01  1.0833229774341600e+00  8.6713488102851599e-01  1.0564347235499174e+00  8.6453035770601028e-01  1.1181427707627871e+00  8.3911320062563033e-01  1.1857448886915314e+00  9.9959583211016778e-01  9.3976303187430144e-01  1.0071764757284829e+00  9.7449603272418106e-01  9.5406878202313450e-01  1.1527200687049728e+00  9.6138110289733492e-01  9.6607666212453458e-01  9.4629892944262572e-01  1.1083213787593320e+00  8.7318928713657928e-01  1.0967035105588150e+00  9.2626174831607755e-01  9.7400584960821956e-01  6.5116225385873272e-01  1.1580139051028340e+00  7.4556808719593815e-01  1.2561243484132290e+00  7.2400518570546613e-01  1.2342542086698984e+00  7.1022762934093131e-01  1.2813033164120053e+00  7.4063447284644368e-01  1.2735133500597371e+00  7.5780251527364295e-01  1.2200602925193786e+00  7.7289952005041773e-01  1.2128611529481101e+00  7.8751723028679277e-01  1.2112805031996146e+00  7.9171095113892620e-01  1.2082982603203511e+00  7.9482907320951302e-01  1.2053168584589617e+00  7.9796306893247948e-01  1.2015516233085726e+00  8.0225324057270531e-01  1.1953145598006960e+00  8.0952094805349106e-01  1.1831077100340917e+00  8.2316736464559481e-01  1.1577677824811508e+00  8.5066865544073844e-01  1.1082393505319574e+00  9.1693375950669309e-01  1.0628631083018383e+00  9.5291017356297736e-01  1.0245459871685301e+00  9.7749708799546398e-01  1.0035431733022544e+00  9.9101827855431635e-01  9.9640155477710601e-01  1.0007829171257123e+00  9.9373913559163884e-01  1.0140417540417774e+00  9.9739592465729254e-01  1.0327211298714631e+00  9.9179766067556763e-01  1.0563668168626730e+00  1.0192998132098743e+00  1.2638100184116765e+00  8.9003727070206629e-01  9.4235228833397555e-01  9.7023387284628204e-01  9.8877621777302549e-01  9.9673707880828388e-01  9.9992475927455504e-01  1.0009770179417168e+00  1.0011495123524901e+00  1.0010052539015015e+00  1.0007825492070754e+00  1.0005727940236950e+00  1.0004037284268179e+00  1.0002774598685018e+00  1.0001872885622589e+00  1.0001247518424021e+00  1.0000822574366235e+00  1.0000538100175522e+00  1.0000349799722703e+00  1.0000226244430812e+00  1.0000145730159644e+00  1.0000093552672789e+00  1.0000059889988937e+00  1.0000038251586441e+00  1.0000024384227864e+00  1.0000015519211225e+00  1.0000009863792747e+00  1.0000006262173138e+00  1.0000003971828619e+00  1.0000002517125433e+00  1.0000001594124448e+00  1.0000001008992596e+00  1.0000000638322646e+00  1.0000000403655789e+00  1.0000000255168908e+00  1.0000000161254894e+00  1.0000000101879181e+00  1.0000000064351973e+00  1.0000000040640029e+00  1.0000000025661042e+00  1.0000000016200383e+00  1.0000000010226275e+00  1.0000000006454002e+00  1.0000000004072649e+00  1.0000000002568994e+00  1.0000000001619951e+00  1.0000000001020843e+00  1.0000000000640723e+00  1.0000000000410065e+00  1.0000000000222165e+00  1.0000000000295044e+00  0.0000000000000000e+00  -1.8722616293884855e-02  -1.0171133570817084e-01  6.5373043771448189e-02  6.2678079785189345e-01  9.0462319495072585e-01  9.6995498730627550e-01  9.2649831615161726e-01  9.4133299956122762e-01  3.0977551942272924e-01  1.3920717967985058e-01  8.3718300075147870e-02  4.7476111303224912e-02  3.4721378588639246e-02  1.3681230762760590e-02  2.2108610099101263e-02  -8.1961203635213357e-03  1.8816251768755635e-02  8.7446937020681358e-03  -2.2345047803593875e-02  2.3291646449291471e-02  -1.8869879775984495e-02  1.1925606288031325e-02  -2.1900372511671252e-02  2.5707490657654132e-02  -1.8036603417325891e-02  -1.8383786246583514e-03  -1.0978557090701580e-02  6.2144109972143207e-03  -2.5239661278228853e-02  1.0831471505972653e-02  -3.5565533313389464e-02  1.6506508397726959e-02  -4.8178922626918329e-02  1.3278032318327046e-02  1.0488536862355799e-02  7.4270967933894774e-02  3.9500765169388788e-02  9.4818882200140397e-02  8.1309490735554490e-02  7.4750203745718280e-01  3.0167109786318497e-01  8.0846363262140253e-01  3.1105867810561461e-01  8.0596199875156049e-01  3.1270019594657239e-01  8.0194506453589809e-01  3.1727209779641469e-01  7.9828137143211475e-01  3.2543428394747215e-01  7.9543315413857918e-01  3.3770269408056286e-01  7.9446311272778725e-01  3.4327680288187334e-01  6.9673664461365459e-01  3.0624629402525955e-01  7.2930842471856494e-01  3.2933968787624790e-01  8.1285489328774152e-01  1.0871536415546796e+00  9.5984185834350344e-01  9.8522564422369407e-01  9.4898486025330830e-01  7.5980208864903265e-01  1.1093812898025985e+00  1.0640479968898977e+00  1.0194562223254844e+00  8.4031151639134427e-01  1.1307796392959875e+00  8.2627184209773408e-01  1.0563479514413587e+00  9.2374781294638808e-01  1.0679456806902052e+00  1.9047967955072845e-01  3.3387463137710138e-01  -9.5432772037637600e-02  2.9956279839799094e-01  -1.4062165091690060e-01  2.4271044399386951e-01  -1.9873815745423429e-01  2.2795137183373623e-01  -2.0319763660890189e-01  2.2510774242922207e-01  -1.6098267371214370e-01  1.9527691378042020e-01  -1.5318822148754083e-01  1.8268866246160356e-01  -1.5858787161996477e-01  1.7648257170268200e-01  -1.6079418211570426e-01  1.7289758138967629e-01  -1.6081189827522505e-01  1.7041536164647825e-01  -1.5890367361885593e-01  1.6755896768419745e-01  -1.5461485569720673e-01  1.6208190252923260e-01  -1.4670976327702409e-01  1.4937582245403966e-01  -1.3299941397475740e-01  1.1915665268322458e-01  -1.1042271315726818e-01  4.9788693051962561e-02  -7.5754973718941451e-02  2.1586129339180919e-02  -3.8755894141167466e-02  4.1503693716375548e-04  -2.4156183614250072e-02  -1.5463213911667682e-02  -2.1605019544743038e-02  -2.3410658856541932e-02  -1.5622628709905634e-02  -2.2569115639759822e-02  4.7231838414676375e-03  3.6761001488984173e-03  4.5593844052955593e-02  2.0210889045935009e-02  8.9594693472656917e-02  4.7861598150793277e-03  2.2328519525511517e-01  4.2988835470732223e-01  6.4189014344446260e-01  7.7871627803982768e-01  8.6203031043260403e-01  9.1353665057639499e-01  9.4565433547230826e-01  9.6578231962237160e-01  9.7843290200385069e-01  9.8639763815489767e-01  9.9141753328394144e-01  9.9458350870653978e-01  9.9658108087846820e-01  9.9784177739915636e-01  9.9863754612596267e-01  9.9913989094370315e-01  9.9945702022444172e-01  9.9965722639245824e-01  9.9978361767110979e-01  9.9986340798839102e-01  9.9991377818403937e-01  9.9994557515461080e-01  9.9996564692696877e-01  9.9997831683245708e-01  9.9998631423368178e-01  9.9999136215604634e-01  9.9999454829907919e-01  9.9999655927699505e-01  9.9999782850427488e-01  9.9999862955899110e-01  9.9999913512311178e-01  9.9999945419030234e-01  9.9999965555363535e-01  9.9999978263195322e-01  9.9999986282850728e-01  9.9999991343819017e-01  9.9999994537601034e-01  9.9999996553047776e-01  9.9999997824883868e-01  9.9999998627460163e-01  9.9999999133907014e-01  9.9999999453486854e-01  9.9999999655142147e-01  9.9999999782388760e-01  9.9999999862675593e-01  9.9999999913333970e-01  9.9999999945298346e-01  9.9999999965436082e-01  9.9999999978174237e-01  9.9999999986261623e-01  0.0000000000000000e+00  5.9446388258070767e-04  -1.5854626089025974e-02  1.7260046093958009e-01  5.8476910223284592e-02  6.2609182362555582e-02  5.3097358704540805e-02  7.2284290544349511e-02  2.1929241877476698e-02  -4.0625549710237983e-02  -3.6900650875360375e-02  -2.7637437551997806e-02  -1.4586911226802998e-02  -1.4836586573669030e-02  -2.2480951315766266e-03  -1.4343898500179844e-02  1.1630365647765708e-02  -2.1375108186827516e-02  4.3885722818548528e-04  2.3566168764315068e-02  -2.6700963298657305e-02  2.1473213604045732e-02  -1.5389080656296536e-02  1.5821998986736474e-02  -3.2301414948946686e-02  2.1877276402518575e-02  -3.2134638724598359e-03  3.1790758216761598e-03  -1.2907006739572088e-02  1.7229921187341485e-02  -2.0749409743040962e-02  2.5654209677243977e-02  -2.6431118937367156e-02  4.2124860693065501e-02  -2.0784284425394806e-02  2.5100435798103955e-02  -2.6823101463446485e-02  2.0276209448629585e-02  -1.9251567641190973e-02  3.5441733851358792e-02  -8.1633371825508408e-02  -1.2458786197092975e-02  -7.2394849529899288e-02  -4.0833213442313700e-03  -6.5369061501676956e-02  1.3472481208495011e-04  -6.0206691690727981e-02  1.8063892474105689e-03  -5.4097062637257852e-02  3.6050916556328483e-03  -4.4812328551620692e-02  9.7866802937297426e-03  -2.8311305132346056e-02  3.6560899376308263e-02  1.0472742667099102e-02  3.0599464300873534e-02  -3.6368122392592454e-02  -1.9783693540740579e-02  -4.5782986359290227e-02  -8.0619374059191992e-02  5.8920483182000084e-03  -4.4928949118002636e-03  1.4848153775132444e-02  5.7655122894193146e-02  -1.4600213634071454e-01  -5.8247683752052873e-02  -5.1583996370333098e-02  7.3403583189174662e-03  -1.3965725576378016e-01  3.9432722638669586e-02  -9.8801114633821713e-02  -1.3618095606375181e-02  -1.4177130546859718e-01  4.1665671496255496e-02  -1.9582112277387312e-01  1.9024771834454679e-01  -2.5317042635029302e-01  1.9278553493347753e-01  -2.2165477020364191e-01  2.1744270823580461e-01  -2.3675834416206898e-01  2.1317708701063556e-01  -2.3830609940093561e-01  1.7681192714154809e-01  -1.9644738763501346e-01  1.6894322290431549e-01  -1.8072203761205749e-01  1.7861980490759574e-01  -1.7168010894292102e-01  1.8317385121988192e-01  -1.6639776640082987e-01  1.8500492024256546e-01  -1.6207035316671556e-01  1.8546807703387622e-01  -1.5638535792252842e-01  1.8474679118715243e-01  -1.4670794611794893e-01  1.8170470613986134e-01  -1.2881380764310352e-01  1.7301343811470007e-01  -9.4884098765672997e-02  1.5081300046787238e-01  -3.1649109330536968e-02  9.6470840286543041e-02  -1.6184365423908029e-02  4.4705793381096350e-02  -2.7036252053658839e-03  2.0335980836696049e-02  5.8896069016826594e-03  7.8742254631855701e-03  4.1121823061498431e-03  -8.1366418392343331e-03  -4.6949936736454404e-03  -3.3111105988077483e-02  -2.7534600188215554e-02  -5.9913066684087780e-02  -2.1894544334158501e-02  -7.3400599210452042e-02  3.1227222221454295e-02  -7.2731165268280482e-02  1.2227603649056414e-01  4.4271190232701413e-01  6.5434284954930166e-01  7.8527504593266795e-01  8.6627264715647145e-01  9.1646656233744073e-01  9.4767547476140968e-01  9.6714678867147552e-01  9.7933239527181648e-01  9.8697813027018844e-01  9.9178540588859310e-01  9.9481301933797728e-01  9.9672230041539711e-01  9.9792757106960639e-01  9.9868903294091438e-01  9.9917041022827235e-01  9.9947487618322373e-01  9.9966752330280761e-01  9.9978945649097695e-01  9.9986665157724253e-01  9.9991553305185787e-01  9.9994649077345610e-01  9.9996609954420712e-01  9.9997852115141039e-01  9.9998639057162508e-01  9.9999137641175717e-01  9.9999453548060679e-01  9.9999653718744597e-01  9.9999780559505924e-01  9.9999860936398466e-01  9.9999911871261882e-01  9.9999944149412723e-01  9.9999964604910652e-01  9.9999977568284415e-01  9.9999985783735679e-01  9.9999990990277787e-01  9.9999994289950722e-01  9.9999996381151657e-01  9.9999997706476751e-01  9.9999998546423963e-01  9.9999999078752855e-01  9.9999999416127983e-01  9.9999999629941039e-01  9.9999999765449632e-01  9.9999999851322774e-01  9.9999999905743020e-01  9.9999999940217799e-01  9.9999999962107522e-01  9.9999999975806941e-01  0.0000000000000000e+00  -4.9011066058187863e-03  3.6117919491755315e-02  -8.7546234448919444e-02  -5.6292293511926491e-03  -9.8746274678452317e-03  -7.2813282820257709e-03  -3.8797570542021632e-02  -4.0744024906529376e-02  -1.1081245988944942e-02  1.1008796622497842e-03  5.9775293428075997e-03  1.7838883513109907e-03  6.7873470533542516e-03  -2.0661779428124962e-03  9.1620659499035174e-03  -1.3474398932466155e-02  2.4525743673566049e-02  -1.9363512086635039e-02  -2.5366331303300720e-02  3.0200000025378929e-02  -2.9543701974762058e-02  1.7747724278237644e-02  -1.1550287710756916e-02  3.2523089075464681e-02  -3.9740282511500406e-02  2.7738711897722789e-03  -1.2921521766410418e-03  1.0327690446110673e-02  -1.8091467336733121e-02  2.2154508414337533e-02  -2.3813917525833929e-02  2.9347295770453079e-02  -3.8977086919890241e-02  3.5523795276483527e-02  -3.4313865253894286e-02  3.1947150153977047e-02  -2.2251180752627817e-02  1.4735836931650257e-02  -4.1537604002899020e-02  4.3380048121968613e-02  -1.5200710435979396e-02  3.4059262687507509e-02  -2.1762597075629487e-02  2.8583921745507616e-02  -2.4999001778013161e-02  2.4043953946958570e-02  -2.6409828585142823e-02  1.8590426983906838e-02  -2.7530360763182722e-02  1.1124441087257773e-02  -3.0592044771949097e-02  9.6765248673080838e-04  -4.2968776321264446e-02  -1.4726288613846198e-02  3.2260549580406354e-02  1.2087614538729112e-01  1.6224321449057388e-01  1.5694243453219656e-01  1.3607000656206858e-01  2.9677019774612227e-02  3.5260853781764877e-02  9.4219673896328102e-03  -1.7567804747390687e-02  1.7605161188345125e-01  5.7556273708754451e-03  -7.7449494153677334e-03  -6.3521271157722284e-02  7.2896143794599980e-02  -1.2808439557461998e-01  2.6323104194228796e-02  -6.9973672890734445e-02  5.0697756831434682e-02  -1.3816350358850868e-01  1.1415162105276515e-01  -2.4152715767378846e-01  2.2626875224517998e-01  -3.0695605678009941e-01  1.2592469739096246e-01  -3.0485234950675572e-01  1.8678722839410958e-01  -3.4989534109646475e-01  1.0998751873578666e-01  -3.9144273721550277e-01  -3.6229319535221742e-03  -3.6359775663889027e-01  3.9674645840586775e-02  -3.2868664836198236e-01  6.6216223882578390e-02  -3.0541884846461381e-01  8.3951653940085955e-02  -2.8846013805112702e-01  9.6134953151929173e-02  -2.7457862412044048e-01  1.0428047075531582e-01  -2.6070978485547996e-01  1.0900248258130719e-01  -2.4246433254413904e-01  1.1015406067727131e-01  -2.1171418155567923e-01  1.0700623258522558e-01  -1.5123717603122641e-01  1.0085483046310081e-01  -2.1023505841328376e-02  1.3572238712158630e-01  8.4471491282489194e-02  1.5909639012333862e-01  1.4903905618494837e-01  1.8551219770586896e-01  2.0227040076914105e-01  2.2834018092667052e-01  2.6118090534381655e-01  2.7749257330390981e-01  3.2140363788427762e-01  2.7260347399832163e-01  2.5816912349373011e-01  2.0358317206342505e-01  2.0327618234085734e-01  6.3932648154402930e-02  1.9248971585828736e-01  3.5416892527268184e-01  5.6649819354967301e-01  7.2664790877291707e-01  8.3018929757121296e-01  8.9479661326014459e-01  9.3471529392900532e-01  9.5936513258588363e-01  9.7462824564081940e-01  9.8411368842930214e-01  9.9002954757897077e-01  9.9373058532755221e-01  9.9605191653049774e-01  9.9751085098069170e-01  9.9842924645531517e-01  9.9900809525470624e-01  9.9937328677195902e-01  9.9960385644368022e-01  9.9974951536244672e-01  9.9984157508421145e-01  9.9989977965582078e-01  9.9993658970711574e-01  9.9995987448667178e-01  9.9997460623866219e-01  9.9998392799477187e-01  9.9998982715196483e-01  9.9999356069770784e-01  9.9999592381141078e-01  9.9999741961059885e-01  9.9999836646370965e-01  9.9999896585251891e-01  9.9999934529694168e-01  9.9999958551112955e-01  9.9999973758618810e-01  9.9999983386360747e-01  9.9999989481683049e-01  9.9999993340670701e-01  9.9999995783841988e-01  9.9999997330651380e-01  9.9999998309966776e-01  9.9999998929989953e-01  9.9999999322542032e-01  9.9999999571071785e-01  9.9999999728422984e-01  9.9999999828038633e-01  9.9999999891107982e-01  9.9999999931026096e-01  9.9999999956309693e-01  9.9999999972237552e-01  9.9999999982418197e-01  0.0000000000000000e+00  9.2699249595551477e-03  -3.4170366618188813e-02  4.8366927455511570e-02  -7.6789135520227226e-03  -5.7780540001439711e-03  -1.5367609834390434e-02  1.2841339055773570e-03  1.5228446602650663e-02  8.7700572864279035e-03  4.2137626360084172e-03  -1.1229854333472155e-03  1.6115463645766681e-03  -3.0757589232963912e-03  5.3040564022676295e-03  -1.8922374034068617e-03  1.6993159488201754e-02  -2.3622109937493720e-02  5.0935997567089927e-02  2.3055289618954269e-02  -3.6922041410016794e-02  4.0222981542944639e-02  -2.4357776949067964e-02  6.0455994494916388e-03  -2.6773128732369578e-02  6.7493322322007665e-02  -8.1328153895950366e-03  -5.4250980695661113e-03  -9.2091892184391778e-03  1.6151211552053776e-02  -2.6769389103690817e-02  1.9519472739417103e-02  -3.3639087374901941e-02  3.3846184666496616e-02  -5.1527780956479474e-02  4.3491667021345735e-02  -4.4773565776943802e-02  2.3319920210827259e-02  -1.8522645285769739e-02  3.0856067722204644e-02  -3.2669274990714238e-02  1.3843149484577646e-02  -2.8445221887298339e-02  1.4403247087226165e-02  -2.8612582395645816e-02  1.1527895072947296e-02  -3.0816175679493053e-02  4.7769897325716133e-03  -3.5741756904995502e-02  -7.6882495840612458e-03  -4.6546931248434890e-02  -3.0345242379035259e-02  -7.2837885418070403e-02  -7.5343062466728353e-02  -1.6266290456301083e-01  -1.5586371861820322e-01  -1.0460701861348250e-01  -1.3489435985884865e-01  7.5441610447263959e-03  -5.9173157023970559e-02  1.0954802599707840e-02  -4.5695507544545690e-02  -6.2084348253778371e-02  -1.2477374643392189e-01  -6.8386259507023608e-02  7.5434374825079989e-02  2.4015664642293318e-02  5.5588828084502284e-01  7.5978576545824472e-01  1.2661798880634545e+00  7.2912240672798345e-01  1.1637470220936224e+00  5.3456959122517067e-01  1.1108638151651897e+00  3.1206633032836317e-01  1.0429906272715066e+00  8.2677611887708072e-02  9.2620091089014978e-01  -1.0694444941917799e-01  1.1059608503814902e+00  7.6953618289315809e-03  8.8732360028601021e-01  -1.2853993112597868e-02  8.4810910117930927e-01  -1.4118937432004805e-01  1.0752599786143804e+00  -1.2365072520104098e-01  1.0753433822301641e+00  -1.2769267329507736e-01  1.0699425155867739e+00  -1.3149266918680066e-01  1.0649480397326352e+00  -1.3357419995849251e-01  1.0604396662089806e+00  -1.3306241042652084e-01  1.0556914304458815e+00  -1.2849502351492165e-01  1.0490940217692306e+00  -1.1701145932963553e-01  1.0368780254707102e+00  -9.3874843623629092e-02  1.0081012751675216e+00  -5.5853989350322861e-02  9.3929150870074418e-01  4.2517088085382115e-01  1.0649321512844849e+00  8.1828244033219644e-01  1.0678974319169052e+00  9.4258698016705744e-01  1.0099777840373858e+00  9.5603292815732721e-01  9.6680131060505436e-01  9.6508212654844205e-01  9.5656078258055699e-01  1.1456732955443945e+00  1.0994265272476931e+00  1.1619395073881755e+00  1.0233478188877607e+00  6.2972805116770547e-01  5.2879705669123034e-01  6.3045266778587283e-01  7.4763115689048687e-01  8.4135429843001630e-01  9.0266960417055431e-01  9.4059527698587908e-01  9.6366217552489974e-01  9.7766392106222022e-01  9.8619732372275914e-01  9.9142896200170438e-01  9.9465568688229244e-01  9.9665649692119496e-01  9.9790269070820814e-01  9.9868166886892817e-01  9.9916998088538367e-01  9.9947676492170634e-01  9.9966983598448744e-01  9.9979150599437550e-01  9.9986826028373099e-01  9.9991671936331572e-01  9.9994733368831545e-01  9.9996668419873946e-01  9.9997892001425548e-01  9.9998665947819843e-01  9.9999155612476043e