<?xml version="1.0"?>
<VTKFile type="UnstructuredGrid"  version="0.1"  >
<UnstructuredGrid>
<Piece  NumberOfPoints="21400" NumberOfCells="42336">
<Points>
<DataArray  type="Float64"  NumberOfComponents="3"  format="ascii">0 0 0  0.004583333333333333 0 0  0.009166666666666667 0 0  0.01375 0 0  0.01833333333333333 0 0  0.02291666666666667 0 0  0.0275 0 0  0.03208333333333334 0 0  0.03666666666666667 0 0  0.04125 0 0  0.04583333333333334 0 0  0.05041666666666667 0 0  0.055 0 0  0.05958333333333334 0 0  0.06416666666666668 0 0  0.06875000000000001 0 0  0.07333333333333333 0 0  0.07791666666666666 0 0  0.08249999999999999 0 0  0.08708333333333333 0 0  0.09166666666666667 0 0  0.09625000000000002 0 0  0.1008333333333333 0 0  0.1054166666666667 0 0  0.11 0 0  0.1145833333333333 0 0  0.1191666666666667 0 0  0.12375 0 0  0.1283333333333334 0 0  0.1329166666666667 0 0  0.1375 0 0  0.1420833333333333 0 0  0.1466666666666667 0 0  0.15125 0 0  0.1558333333333333 0 0  0.1604166666666667 0 0  0.165 0 0  0.1695833333333333 0 0  0.1741666666666667 0 0  0.17875 0 0  0.1833333333333333 0 0  0.1879166666666667 0 0  0.1925 0 0  0.1970833333333333 0 0  0.2016666666666667 0 0  0.20625 0 0  0.2108333333333333 0 0  0.2154166666666666 0 0  0.22 0 0  0.2245833333333334 0 0  0.2291666666666667 0 0  0.23375 0 0  0.2383333333333333 0 0  0.2429166666666667 0 0  0.2475 0 0  0.2520833333333333 0 0  0.2566666666666667 0 0  0.26125 0 0  0.2658333333333334 0 0  0.2704166666666666 0 0  0.275 0 0  0.2795833333333334 0 0  0.2841666666666667 0 0  0.28875 0 0  0.2933333333333333 0 0  0.2979166666666667 0 0  0.3025 0 0  0.3070833333333334 0 0  0.3116666666666666 0 0  0.31625 0 0  0.3208333333333333 0 0  0.3254166666666667 0 0  0.33 0 0  0.3345833333333333 0 0  0.3391666666666667 0 0  0.34375 0 0  0.3483333333333333 0 0  0.3529166666666667 0 0  0.3575 0 0  0.3620833333333333 0 0  0.3666666666666667 0 0  0.37125 0 0  0.3758333333333334 0 0  0.3804166666666667 0 0  0.3850000000000001 0 0  0.3895833333333333 0 0  0.3941666666666667 0 0  0.39875 0 0  0.4033333333333334 0 0  0.4079166666666666 0 0  0.4125 0 0  0.4170833333333334 0 0  0.4216666666666667 0 0  0.42625 0 0  0.4308333333333333 0 0  0.4354166666666667 0 0  0.44 0 0  0.4445833333333333 0 0  0.4491666666666667 0 0  0.45375 0 0  0.4583333333333333 0 0  0.4629166666666666 0 0  0.4675 0 0  0.4720833333333334 0 0  0.4766666666666667 0 0  0.4812500000000001 0 0  0.4858333333333333 0 0  0.4904166666666667 0 0  0.495 0 0  0.4995833333333334 0 0  0.5041666666666667 0 0  0.50875 0 0  0.5133333333333334 0 0  0.5179166666666667 0 0  0.5225 0 0  0.5270833333333333 0 0  0.5316666666666667 0 0  0.53625 0 0  0.5408333333333333 0 0  0.5454166666666667 0 0  0.55 0 0  0.5545833333333333 0 0  0.5591666666666667 0 0  0.5637500000000001 0 0  0.5683333333333334 0 0  0.5729166666666666 0 0  0.5775 0 0  0.5820833333333334 0 0  0.5866666666666667 0 0  0.5912499999999999 0 0  0.5958333333333334 0 0  0.6004166666666667 0 0  0.605 0 0  0.6095833333333334 0 0  0.6141666666666667 0 0  0.61875 0 0  0.6233333333333333 0 0  0.6279166666666667 0 0  0.6325000000000001 0 0  0.6370833333333333 0 0  0.6416666666666666 0 0  0.64625 0 0  0.6508333333333334 0 0  0.6554166666666666 0 0  0.6599999999999999 0 0  0.6645833333333334 0 0  0.6691666666666667 0 0  0.67375 0 0  0.6783333333333333 0 0  0.6829166666666667 0 0  0.6875 0 0  0.6920833333333333 0 0  0.6966666666666667 0 0  0.70125 0 0  0.7058333333333333 0 0  0.7104166666666667 0 0  0.7150000000000001 0 0  0.7195833333333334 0 0  0.7241666666666666 0 0  0.72875 0 0  0.7333333333333334 0 0  0.7379166666666667 0 0  0.7425 0 0  0.7470833333333333 0 0  0.7516666666666667 0 0  0.75625 0 0  0.7608333333333334 0 0  0.7654166666666666 0 0  0.7700000000000001 0 0  0 0.002380952380952381 0  0.004583333333333333 0.002380952380952381 0  0.009166666666666667 0.002380952380952381 0  0.01375 0.002380952380952381 0  0.01833333333333333 0.002380952380952381 0  0.02291666666666667 0.002380952380952381 0  0.0275 0.002380952380952381 0  0.03208333333333334 0.002380952380952381 0  0.03666666666666667 0.002380952380952381 0  0.04125 0.002380952380952381 0  0.04583333333333334 0.002380952380952381 0  0.05041666666666667 0.002380952380952381 0  0.055 0.002380952380952381 0  0.05958333333333334 0.002380952380952381 0  0.06416666666666668 0.002380952380952381 0  0.06875000000000001 0.002380952380952381 0  0.07333333333333333 0.002380952380952381 0  0.07791666666666666 0.002380952380952381 0  0.08249999999999999 0.002380952380952381 0  0.08708333333333333 0.002380952380952381 0  0.09166666666666667 0.002380952380952381 0  0.09625000000000002 0.002380952380952381 0  0.1008333333333333 0.002380952380952381 0  0.1054166666666667 0.002380952380952381 0  0.11 0.002380952380952381 0  0.1145833333333333 0.002380952380952381 0  0.1191666666666667 0.002380952380952381 0  0.12375 0.002380952380952381 0  0.1283333333333334 0.002380952380952381 0  0.1329166666666667 0.002380952380952381 0  0.1375 0.002380952380952381 0  0.1420833333333333 0.002380952380952381 0  0.1466666666666667 0.002380952380952381 0  0.15125 0.002380952380952381 0  0.1558333333333333 0.002380952380952381 0  0.1604166666666667 0.002380952380952381 0  0.165 0.002380952380952381 0  0.1695833333333333 0.002380952380952381 0  0.1741666666666667 0.002380952380952381 0  0.17875 0.002380952380952381 0  0.1833333333333333 0.002380952380952381 0  0.1879166666666667 0.002380952380952381 0  0.1925 0.002380952380952381 0  0.1970833333333333 0.002380952380952381 0  0.2016666666666667 0.002380952380952381 0  0.20625 0.002380952380952381 0  0.2108333333333333 0.002380952380952381 0  0.2154166666666666 0.002380952380952381 0  0.22 0.002380952380952381 0  0.2245833333333334 0.002380952380952381 0  0.2291666666666667 0.002380952380952381 0  0.23375 0.002380952380952381 0  0.2383333333333333 0.002380952380952381 0  0.2429166666666667 0.002380952380952381 0  0.2475 0.002380952380952381 0  0.2520833333333333 0.002380952380952381 0  0.2566666666666667 0.002380952380952381 0  0.26125 0.002380952380952381 0  0.2658333333333334 0.002380952380952381 0  0.2704166666666666 0.002380952380952381 0  0.275 0.002380952380952381 0  0.2795833333333334 0.002380952380952381 0  0.2841666666666667 0.002380952380952381 0  0.28875 0.002380952380952381 0  0.2933333333333333 0.002380952380952381 0  0.2979166666666667 0.002380952380952381 0  0.3025 0.002380952380952381 0  0.3070833333333334 0.002380952380952381 0  0.3116666666666666 0.002380952380952381 0  0.31625 0.002380952380952381 0  0.3208333333333333 0.002380952380952381 0  0.3254166666666667 0.002380952380952381 0  0.33 0.002380952380952381 0  0.3345833333333333 0.002380952380952381 0  0.3391666666666667 0.002380952380952381 0  0.34375 0.002380952380952381 0  0.3483333333333333 0.002380952380952381 0  0.3529166666666667 0.002380952380952381 0  0.3575 0.002380952380952381 0  0.3620833333333333 0.002380952380952381 0  0.3666666666666667 0.002380952380952381 0  0.37125 0.002380952380952381 0  0.3758333333333334 0.002380952380952381 0  0.3804166666666667 0.002380952380952381 0  0.3850000000000001 0.002380952380952381 0  0.3895833333333333 0.002380952380952381 0  0.3941666666666667 0.002380952380952381 0  0.39875 0.002380952380952381 0  0.4033333333333334 0.002380952380952381 0  0.4079166666666666 0.002380952380952381 0  0.4125 0.002380952380952381 0  0.4170833333333334 0.002380952380952381 0  0.4216666666666667 0.002380952380952381 0  0.42625 0.002380952380952381 0  0.4308333333333333 0.002380952380952381 0  0.4354166666666667 0.002380952380952381 0  0.44 0.002380952380952381 0  0.4445833333333333 0.002380952380952381 0  0.4491666666666667 0.002380952380952381 0  0.45375 0.002380952380952381 0  0.4583333333333333 0.002380952380952381 0  0.4629166666666666 0.002380952380952381 0  0.4675 0.002380952380952381 0  0.4720833333333334 0.002380952380952381 0  0.4766666666666667 0.002380952380952381 0  0.4812500000000001 0.002380952380952381 0  0.4858333333333333 0.002380952380952381 0  0.4904166666666667 0.002380952380952381 0  0.495 0.002380952380952381 0  0.4995833333333334 0.002380952380952381 0  0.5041666666666667 0.002380952380952381 0  0.50875 0.002380952380952381 0  0.5133333333333334 0.002380952380952381 0  0.5179166666666667 0.002380952380952381 0  0.5225 0.002380952380952381 0  0.5270833333333333 0.002380952380952381 0  0.5316666666666667 0.002380952380952381 0  0.53625 0.002380952380952381 0  0.5408333333333333 0.002380952380952381 0  0.5454166666666667 0.002380952380952381 0  0.55 0.002380952380952381 0  0.5545833333333333 0.002380952380952381 0  0.5591666666666667 0.002380952380952381 0  0.5637500000000001 0.002380952380952381 0  0.5683333333333334 0.002380952380952381 0  0.5729166666666666 0.002380952380952381 0  0.5775 0.002380952380952381 0  0.5820833333333334 0.002380952380952381 0  0.5866666666666667 0.002380952380952381 0  0.5912499999999999 0.002380952380952381 0  0.5958333333333334 0.002380952380952381 0  0.6004166666666667 0.002380952380952381 0  0.605 0.002380952380952381 0  0.6095833333333334 0.002380952380952381 0  0.6141666666666667 0.002380952380952381 0  0.61875 0.002380952380952381 0  0.6233333333333333 0.002380952380952381 0  0.6279166666666667 0.002380952380952381 0  0.6325000000000001 0.002380952380952381 0  0.6370833333333333 0.002380952380952381 0  0.6416666666666666 0.002380952380952381 0  0.64625 0.002380952380952381 0  0.6508333333333334 0.002380952380952381 0  0.6554166666666666 0.002380952380952381 0  0.6599999999999999 0.002380952380952381 0  0.6645833333333334 0.002380952380952381 0  0.6691666666666667 0.002380952380952381 0  0.67375 0.002380952380952381 0  0.6783333333333333 0.002380952380952381 0  0.6829166666666667 0.002380952380952381 0  0.6875 0.002380952380952381 0  0.6920833333333333 0.002380952380952381 0  0.6966666666666667 0.002380952380952381 0  0.70125 0.002380952380952381 0  0.7058333333333333 0.002380952380952381 0  0.7104166666666667 0.002380952380952381 0  0.7150000000000001 0.002380952380952381 
[...]
<PointData  Scalars="concentration"> 
<DataArray  type="Float64"  Name="concentration"  format="ascii">0.0000000000000000e+00  8.0096217895105307e-02  2.3034548257290854e-01  1.7610373979451574e-01  -2.3238407015879915e-02  -1.3067020518829703e-01  -1.7180216942588369e-01  -1.8850680804520156e-01  -1.7735189359488879e-01  -7.9892716227548594e-02  1.1119443919906616e-02  6.9563666282386524e-03  7.4970323697751270e-03  -1.3483304820218278e-03  7.0255919162575510e-03  -9.9093503635400357e-03  1.6339474443793429e-02  -1.2985173884230769e-02  -8.0724784621622001e-03  2.3869340847690323e-02  -2.2693608980727989e-02  1.8351354048333116e-02  -1.2679881475929753e-02  2.2504333346716570e-02  -2.6719453017278735e-02  1.5211184437027092e-02  -9.0361259524232216e-04  8.9252516135974978e-03  -1.0444305811295259e-02  2.2078629835223511e-02  -1.6386981843734535e-02  3.2067053625588919e-02  -2.3067904136395156e-02  4.6665478260468941e-02  -1.9957016555519212e-02  4.7644919546862334e-02  6.0203556600977029e-03  6.6868508657319525e-02  2.5075512270243717e-02  6.6105828637369435e-01  8.8341284850673263e-01  1.0960188697500362e+00  8.7667251735204532e-01  1.0800798883308191e+00  8.8302578633974693e-01  1.0768823373989747e+00  8.8628519803846262e-01  1.0752160103025756e+00  8.8855078390606690e-01  1.0749955804787013e+00  8.9095237586293996e-01  1.0756615021950149e+00  8.9313191002734460e-01  1.0454022777611556e+00  8.8980505739923998e-01  1.0874106125212941e+00  8.7676824187811797e-01  1.1085410478949653e+00  1.0264606922372856e+00  9.7709189574561239e-01  1.0116339631151872e+00  9.8520062158895172e-01  1.0036703623331731e+00  1.0143881018851240e+00  9.9650760100058045e-01  9.6213223380631885e-01  1.0185564437099477e+00  9.7684001403817011e-01  1.0609228707053535e+00  9.7533952255972189e-01  9.9110749286197775e-01  9.2805417398660794e-01  8.7032179586239389e-01  9.0002524066663558e-01  1.0488977528613022e+00  9.7332092755012156e-01  9.6651465877999543e-01  1.0309261461261354e+00  9.0425214215564209e-01  1.1461135237367137e+00  8.1662702158880374e-01  1.1150308811371663e+00  8.6401243300765351e-01  1.1570293341444595e+00  8.0403502220710210e-01  1.2163482666488254e+00  7.5425578744650468e-01  1.3021640053332453e+00  6.5906466089443871e-01  1.3397303260571882e+00  6.6077966060180959e-01  1.3234111891790279e+00  6.8593314741127298e-01  1.3133284228644062e+00  7.0270606709266070e-01  1.3023267876225384e+00  7.2250391700134253e-01  1.2849621066363275e+00  7.5267567516659661e-01  1.2253104873840011e+00  7.7033244546543911e-01  1.2151721236803761e+00  7.8574451457028982e-01  1.2131197254214054e+00  7.8986936433375543e-01  1.2101630157639944e+00  7.9235174571598344e-01  1.2079726294440516e+00  7.9392187427205818e-01  1.2064307144455786e+00  7.9492054830678949e-01  1.2053760119280841e+00  7.9556197471859869e-01  1.2046683462417409e+00  7.9598100842775255e-01  1.2041991701891062e+00  7.9626428644525327e-01  1.2038884231229987e+00  7.9647120646934844e-01  1.2036762223227941e+00  7.9664907254978978e-01  1.2035119505121643e+00  7.9684685377149700e-01  1.2033393331016848e+00  7.9713262782963545e-01  1.2030718511796457e+00  7.9762219930900125e-01  1.2025456820984910e+00  7.9853214692685714e-01  1.2014224851042441e+00  8.0028249777016225e-01  1.1989814288743121e+00  8.0369811299650229e-01  1.1936658596077871e+00  8.1040746509577233e-01  1.1820988872310505e+00  8.2369472160320811e-01  1.1572162643588342e+00  8.5095825126344526e-01  1.1080279175370287e+00  9.1691884769149534e-01  1.0627021538134080e+00  9.5295711385726523e-01  1.0244824742022032e+00  9.7748767602443354e-01  1.0035176647624804e+00  9.9099753621301467e-01  9.9637972760060900e-01  1.0007456921021125e+00  9.9372467115214258e-01  1.0140076779402722e+00  9.9743006557230929e-01  1.0327180083736447e+00  9.9174994191103116e-01  1.0563759806790169e+00  1.0190962194867930e+00  1.2636964945516296e+00  8.9016336531646301e-01  9.4258891634916486e-01  9.7040509541735254e-01  9.8888567928176008e-01  9.9680104906966016e-01  9.9995717058140754e-01  1.0009874662430227e+00  1.0011469642811721e+00  1.0009838126532373e+00  1.0007835421076452e+00  1.0004262767874770e+00  1.0008750588322675e+00  0.0000000000000000e+00  -1.8718473171114084e-02  -1.0170796852374353e-01  6.5390093209286723e-02  6.2680346892908856e-01  9.0464454266608640e-01  9.6998973628356322e-01  9.2654722494853436e-01  9.4138604847169338e-01  3.0984005420693911e-01  1.3932578581519575e-01  8.3861488832597475e-02  4.7690063314686011e-02  3.4964110089622198e-02  1.4032910525317703e-02  2.2501507484595947e-02  -7.6312805818340382e-03  1.9474540182083559e-02  9.6154490662213200e-03  -2.1336087540859031e-02  2.4757380000533437e-02  -1.7310336230655907e-02  1.4266667053968698e-02  -1.9310360771053015e-02  2.9413912124364845e-02  -1.4117605539061122e-02  3.8516526707462135e-03  -4.4815702076422348e-03  1.4986936564734061e-02  -1.5497642779411890e-02  2.4046309116702386e-02  -2.1273184134198177e-02  3.5529786327818204e-02  -2.9378885303151046e-02  4.2317374349297381e-02  -1.9131164368559508e-02  3.3268565533074140e-02  -1.1629290629392129e-02  5.3696716943952845e-02  -2.8687275518846877e-02  7.2962499575284512e-01  2.9985716198347412e-01  8.1595472851275497e-01  3.1043454926943470e-01  8.1104243116141272e-01  3.0901300031514517e-01  8.0630137318730699e-01  3.1055047852628009e-01  8.0377482343162598e-01  3.1473269786787622e-01  8.0566528802450466e-01  3.2463104079210497e-01  8.1622179349418644e-01  3.4690863830683155e-01  7.4520726386106884e-01  3.1013886420198239e-01  7.6662754834842073e-01  3.3202562247332956e-01  8.1572476578380937e-01  1.0615957796917943e+00  9.9017824987238878e-01  1.0304037501683401e+00  9.8225066711422726e-01  9.8793572442548527e-01  1.0356909371677625e+00  1.0385309269785161e+00  9.1280205942452575e-01  9.7459581057567823e-01  8.8733973700392532e-01  1.0721596405548492e+00  1.0079437443729091e+00  1.0036346221233279e+00  8.3868701536153401e-01  3.0633468000129860e-01  1.8253299525738027e-02  1.1198399044323493e-01  9.4898274602408864e-02  1.1905677900414897e-02  7.2093027928471970e-02  -1.4414957198219056e-01  1.5230876203586707e-01  -1.3188045090572134e-01  7.8613058451951379e-02  -1.5177567307918405e-01  1.3041276432224749e-01  -2.0538741321428178e-01  1.6123786863299508e-01  -2.5987934386620848e-01  2.4806504169047394e-01  -2.7403368737725353e-01  2.5290982596525280e-01  -2.4390742662578352e-01  2.4211809031957984e-01  -2.2921750223502504e-01  2.3943498032836832e-01  -2.1845318397405072e-01  2.3657579416235397e-01  -2.0061670674682397e-01  2.3190496796213256e-01  -1.5677482253730732e-01  1.9950984853925610e-01  -1.5086317209833772e-01  1.8452556004474227e-01  -1.5847248158350583e-01  1.7707610551284661e-01  -1.6245537253573150e-01  1.7290285864804247e-01  -1.6449333751938786e-01  1.7054653872494552e-01  -1.6554945240241140e-01  1.6918992792157017e-01  -1.6611118457823454e-01  1.6839316796770532e-01  -1.6641286271401057e-01  1.6792358502801774e-01  -1.6656286016360364e-01  1.6765770092197516e-01  -1.6660702144286979e-01  1.6752935283860931e-01  -1.6655653250503799e-01  1.6750250571227382e-01  -1.6639679066628382e-01  1.6755488030816795e-01  -1.6608460073229617e-01  1.6766269936503184e-01  -1.6553480634883069e-01  1.6777621577208574e-01  -1.6459263758981424e-01  1.6776828554005466e-01  -1.6298294767799357e-01  1.6731814648614066e-01  -1.6022111907801417e-01  1.6564405394288204e-01  -1.5546374857102618e-01  1.6088261649223329e-01  -1.4728068297467475e-01  1.4863568529749510e-01  -1.3338239018874853e-01  1.1874869716479834e-01  -1.1064167874630716e-01  4.9728319585835797e-02  -7.5802687535048735e-02  2.1499945335471483e-02  -3.8754354836654917e-02  4.2303850363687432e-04  -2.4131543496003931e-02  -1.5430239253841448e-02  -2.1575404769250215e-02  -2.3382975774337417e-02  -1.5628892666000257e-02  -2.2583539990184708e-02  4.6596835752618056e-03  3.6439200202024956e-03  4.5589104005096609e-02  2.0141220907611345e-02  8.9644418685828606e-02  4.6697406689876937e-03  2.2356435399748881e-01  4.3033506364273860e-01  6.4244137491096087e-01  7.7926046538719174e-01  8.6251992299166391e-01  9.1395526537678173e-01  9.4600083169902704e-01  9.6606061177149549e-01  9.7865502490062706e-01  9.8655899184066531e-01  9.9154514721313558e-01  9.9469684800971570e-01  0.0000000000000000e+00  5.9879267149828082e-04  -1.5844472124055309e-02  1.7261819259139530e-01  5.8496088940523140e-02  6.2638131240478637e-02  5.3131521457022809e-02  7.2329428880825247e-02  2.1983933622489706e-02  -4.0532312279571631e-02  -3.6815628437469335e-02  -2.7520225545565054e-02  -1.4471299550529254e-02  -1.4661972502159438e-02  -2.0725532216522191e-03  -1.4072270057885840e-02  1.1897180406273203e-02  -2.0980285731657101e-02  8.7161400519645649e-04  2.4172809396428862e-02  -2.6123419959973630e-02  2.2445349722482428e-02  -1.4612605309751878e-02  1.7122823952865417e-02  -3.1183086406302591e-02  2.3828460382196364e-02  -1.7991520684182861e-03  5.3914666228808261e-03  -1.1343618646038738e-02  1.9383868451767247e-02  -2.0678880222617668e-02  2.5913729367433799e-02  -3.0424076535597193e-02  3.7304531693522096e-02  -3.8803291804347204e-02  3.2522655425259728e-02  -2.7211822300356542e-02  1.8953402959574976e-02  -3.6155820909267472e-02  4.6241117478789014e-02  -1.0332048305530460e-01  -3.4063723272042164e-02  -8.4909001168197107e-02  -1.5042126099423372e-02  -7.3089643541615304e-02  -7.4986579082311038e-03  -6.7918781363079023e-02  -6.8621517884144730e-03  -6.4919654429387921e-02  -8.3535605881184388e-03  -6.1941566395189045e-02  -7.3236234077412830e-03  -5.2267580165538584e-02  7.0040935634030034e-03  -7.0650103523004874e-03  3.1086158300902118e-02  -2.8561670070664458e-02  1.1618448293942870e-02  -1.0191476728300590e-02  -3.9263944633092580e-02  4.5508515213748815e-03  -2.4641506948306927e-02  1.4340120675122909e-02  6.9638280586664246e-04  -3.2361916700680726e-02  5.3194482888314510e-03  8.1728682655377929e-02  1.4269301294017508e-02  4.0375173937263226e-02  -7.9166894042495078e-02  -3.4191519849547602e-02  -6.0146536279547524e-02  -2.2206677576701216e-02  -1.2230352197633729e-01  3.4172398588513737e-02  -1.1167433496096467e-01  -7.7466820751053350e-02  2.8592591002891180e-03  -6.5421322120753314e-02  1.3451630978548468e-01  -1.8759409365794455e-01  1.2232896383464853e-01  -9.5446899664859725e-02  1.3844024246301662e-01  -1.5360203020153609e-01  1.8710267125795221e-01  -2.0509415096286179e-01  2.1865954101855117e-01  -3.1118174276353894e-01  2.3183919127296779e-01  -3.0940910008440492e-01  2.1324557895763732e-01  -2.8345822447779162e-01  2.1201412519356053e-01  -2.6987525639592169e-01  2.1069463317576861e-01  -2.6103624401119069e-01  1.9951550374720761e-01  -2.5010924775723925e-01  1.7072725207334905e-01  -2.0114268478626146e-01  1.6652109305789750e-01  -1.8246448158098399e-01  1.7779704610698249e-01  -1.7369658495581047e-01  1.8216815276219356e-01  -1.7026478840667328e-01  1.8326081652580650e-01  -1.6927816631598042e-01  1.8306020088669134e-01  -1.6927603856174911e-01  1.8248169598366981e-01  -1.6958054383354329e-01  1.8190379731932982e-01  -1.6990286491027096e-01  1.8145871533743391e-01  -1.7013105041474283e-01  1.8117780805264311e-01  -1.7022217709613705e-01  1.8105939005427904e-01  -1.7014816555562487e-01  1.8109757009367736e-01  -1.6986507405742979e-01  1.8129157145468844e-01  -1.6928744412211280e-01  1.8164284906019906e-01  -1.6825340513712717e-01  1.8213822558842732e-01  -1.6646324541537663e-01  1.8270673903789705e-01  -1.6336178288206099e-01  1.8311970028852842e-01  -1.5790542828413964e-01  1.8276622434760487e-01  -1.4808952816537116e-01  1.8015757335419630e-01  -1.2997349155710064e-01  1.7183144049317300e-01  -9.5857713433632891e-02  1.4989097922852052e-01  -3.2547860553036781e-02  9.5763491834190709e-02  -1.6718814688782672e-02  4.4203442177416209e-02  -3.1007245673708938e-03  2.0022856064088750e-02  5.6552374683073829e-03  7.7185855987764720e-03  4.0201302829080019e-03  -8.1481276425289916e-03  -4.6686275350565831e-03  -3.3023057901103207e-02  -2.7480489589146614e-02  -5.9878400180697060e-02  -2.1786114752284751e-02  -7.3394609271758712e-02  3.1399700088066466e-02  -7.2824735258961340e-02  1.2245946654571566e-01  4.4319540872573754e-01  6.5491702389875539e-01  7.8582420063901526e-01  8.6675171272153650e-01  9.1686436000405291e-01  9.4799629451896705e-01  9.6739761604588259e-01  9.7952475014436824e-01  9.8713337613306618e-01  9.9185878337232103e-01  0.0000000000000000e+00  -4.8976374835370384e-03  3.6126730557809447e-02  -8.7536375877316497e-02  -5.6123883168065838e-03  -9.8541204269770085e-03  -7.2502710194502495e-03  -3.8760751926481291e-02  -4.0691582450976239e-02  -1.1045993309362928e-02  1.1508627272244357e-03  6.0157391573524080e-03  1.8538280721679097e-03  6.8370770615522923e-03  -1.9681079766753424e-03  9.2251047069515750e-03  -1.3334778274091916e-02  2.4590022797565479e-02  -1.9248863060668843e-02  -2.5293423397544659e-02  3.0433442677779206e-02  -2.9524993671148272e-02  1.8109611180675556e-02  -1.1652787238363342e-02  3.2666255551469278e-02  -4.0303716230724616e-02  2.9167232139013935e-03  -2.0162781286630674e-03  1.0039068359518030e-02  -1.9483267505397483e-02  2.2089297201012832e-02  -2.5236639758180766e-02  3.0862010329660940e-02  -3.8899785308558046e-02  4.4257128423751083e-02  -4.2183109787134090e-02  3.1046930291082894e-02  -2.2342704054061229e-02  2.4551340939813503e-02  -4.5625678939621585e-02  5.9444605528697674e-02  -2.0374101508894974e-03  3.9530900175302433e-02  -1.7071709399817774e-02  2.9830818008668009e-02  -2.4029436416635488e-02  2.2964434470761342e-02  -2.7761755536695881e-02  1.5325901300429972e-02  -3.2405772173921515e-02  4.9099326824599198e-03  -4.3989742812976025e-02  -1.4965489134181560e-02  -7.2827688547073097e-02  -7.7818314910338512e-02  -6.5943553259971074e-02  1.7359278736124088e-02  3.1558272600467716e-02  6.3117077048790562e-02  6.6829348587087972e-02  6.4288789181600088e-03  2.9927622075873819e-02  -2.3729542222296587e-02  -2.9357411226165089e-03  1.8974414659851054e-02  -4.7042131642670744e-02  -1.3388708428567983e-01  -3.8320248881756197e-02  -2.2915772763231111e-02  1.1061645105251820e-01  2.1161949549564102e-02  3.1318704570456442e-02  -4.3816778878986891e-02  8.0289916669507966e-02  1.0624190950437871e-03  1.8050681944226163e-01  4.8903449812790399e-02  -2.7509497922534099e-02  4.9556764719724762e-02  -1.0809880370372060e-01  2.5466297654812609e-01  -9.8072513370396366e-02  1.3511617985270591e-01  -1.0837632636957514e-01  1.9079165067883960e-01  -1.7290340048906117e-01  2.5509160189092178e-01  -1.8683849008012687e-01  3.6274045569871283e-01  -2.4173148819084370e-01  3.0295766187050605e-01  -2.9733711813235336e-01  2.0486183922498105e-01  -3.5759943259108101e-01  1.4123376720971578e-01  -3.9827287152753993e-01  9.7944103071912175e-02  -4.2212023823813560e-01  5.2961928598803346e-02  -4.3714621447678359e-01  -4.4664002405411629e-02  -3.9630000987144470e-01  1.3235056622922431e-02  -3.5015655892684328e-01  4.9422664256283950e-02  -3.2029649187915044e-01  7.3034187157291625e-02  -3.0051249975187416e-01  8.8775095975304474e-02  -2.8724633265423360e-01  9.9360441635272120e-02  -2.7831878740205218e-01  1.0649197497047926e-01  -2.7231151117939639e-01  1.1129428695926018e-01  -2.6826798618162639e-01  1.1453114675315988e-01  -2.6553098453734059e-01  1.1672685192797626e-01  -2.6364174942891427e-01  1.1824224538794019e-01  -2.6226942491623773e-01  1.1932501302882985e-01  -2.6115498549666982e-01  1.2014197482452400e-01  -2.6005742347424360e-01  1.2079556487471482e-01  -2.5868617984282921e-01  1.2132258170452043e-01  -2.5659109062335261e-01  1.2166852199400478e-01  -2.5295054669619033e-01  1.2162503105181512e-01  -2.4612703234010963e-01  1.2071460930990356e-01  -2.3269042531310050e-01  1.1803034250135547e-01  -2.0518749121461816e-01  1.1230658617047024e-01  -1.4687273285779939e-01  1.0449853815708468e-01  -1.7987455141933839e-02  1.3823846712622515e-01  8.6624021532430137e-02  1.6081907446132210e-01  1.5038359913109928e-01  1.8651463193626044e-01  2.0296251738795892e-01  2.2876760605686330e-01  2.6135562914510951e-01  2.7748551430907969e-01  3.2121377950724289e-01  2.7238507613029794e-01  2.5789041834985521e-01  2.0314329413338367e-01  2.0289587819154686e-01  6.3351964354737181e-02  1.9236398772918534e-01  3.5435623177946474e-01  5.6680331070056145e-01  7.2696838808263975e-01  8.3047482619985580e-01  8.9502886564425754e-01  9.3489355045719957e-01  9.5949555393329455e-01  9.7471882499207740e-01  9.8417394836885508e-01  9.9004404400514745e-01  9.9373827724628638e-01  0.0000000000000000e+00  9.2726057953018762e-03  -3.4167952123316490e-02  4.8374781585601233e-02  -7.6702995257399128e-03  -5.7641713406996701e-03  -1.5355128562266649e-02  1.3027833705977626e-03  1.5235577835601546e-02  8.7931928351240637e-03  4.2272205760532271e-03  -1.0877403252477357e-03  1.6270924688760690e-03  -3.0267752721547052e-03  5.3175803165976211e-03  -1.8322472233202318e-03  1.6985229763165178e-02  -2.3532482797470642e-02  5.0946478469103787e-02  2.3073833627030364e-02  -3.7058440080470351e-02  4.0228029154229232e-02  -2.4746328040921708e-02  6.1169854351187380e-03  -2.7057278827346570e-02  6.7652234245845613e-02  -9.0018568049389566e-03  -5.6576986669181614e-03  -1.0312816341436123e-02  1.5824825788521991e-02  -2.8497095296922525e-02  1.9686341329471519e-02  -3.5465877578971461e-02  3.5702409989907355e-02  -5.4814294349732624e-02  5.0801782227695512e-02  -4.4223645852456646e-02  2.4320374860589945e-02  -2.1884526072176572e-02  3.4901652445270603e-02  -4.0948145284259024e-02  8.7337607285221577e-03  -2.8411478572119269e-02  1.3961931348719869e-02  -2.6295079207859003e-02  1.3179351072156210e-02  -2.6475766979999375e-02  8.4130073913518868e-03  -2.8489525258160089e-02  -2.6767987097539749e-04  -3.5107685137223281e-02  -1.2805304020402501e-02  -5.1607901631681490e-02  -3.7643461627993341e-02  -9.2183787826242161e-02  -5.5860286352574944e-02  9.2434408437949769e-03  -1.7618636071974600e-02  1.0431481254361863e-01  8.4450346892423461e-03  2.9684826091268646e-02  -3.3541147216090764e-02  -1.0703093989549105e-03  -6.7199944248640703e-02  -1.1095296545091700e-01  -3.5255423841613370e-02  -3.4199336070469634e-02  -3.9761291907552856e-02  3.4311070770879797e-03  3.9118378774093104e-02  5.4812064694120338e-02  -9.5773150790849134e-03  5.4272150909734980e-02  -1.0796220313212140e-01  -1.3070614174253589e-01  -8.7359262682776717e-02  3.9656762031859152e-02  3.8261098694733667e-02  -8.0661478245015947e-02  -4.8194215268819403e-02  -1.1466285209259887e-01  5.8491956970554504e-01  3.1957038130109910e-01  7.5253327384431512e-01  3.3112410293269096e-01  8.5299266077780533e-01  1.4778008638028403e-01  9.3360542446082928e-01  4.2063839211602720e-02  1.0894642894021576e+00  -4.0582966526067209e-02  9.0957519581286594e-01  -1.8097444191308550e-02  8.6668464379507715e-01  -1.8228974717795790e-02  8.4467047906654169e-01  -2.2985694845442169e-02  8.3527425724454141e-01  -2.7859708560512682e-02  8.1600786437381956e-01  -1.4323558621138049e-01  1.0765998143522750e+00  -1.2055465574756183e-01  1.0791293857790782e+00  -1.2526762746212963e-01  1.0734934275700900e+00  -1.3077166255657952e-01  1.0681835819755563e+00  -1.3527419164147464e-01  1.0640456236083340e+00  -1.3861650335314107e-01  1.0610356658796765e+00  -1.4097810165592164e-01  1.0589257424592153e+00  -1.4259623509353841e-01  1.0574789554517394e+00  -1.4367807380080408e-01  1.0564989209293771e+00  -1.4437914499429436e-01  1.0558358856248149e+00  -1.4480353425387685e-01  1.0553778438155934e+00  -1.4500726276726375e-01  1.0550365422011327e+00  -1.4499547699267135e-01  1.0547299681414719e+00  -1.4470510143098239e-01  1.0543576333369102e+00  -1.4395945380885306e-01  1.0537585041056312e+00  -1.4236853389416751e-01  1.0526280884454258e+00  -1.3912493789273966e-01  1.0503355528204323e+00  -1.3261611098813389e-01  1.0454611394450084e+00  -1.1978547543941719e-01  1.0344247398353832e+00  -9.5713643694734882e-02  1.0064658908735671e+00  -5.69367890