<?xml version="1.0"?>
<VTKFile type="UnstructuredGrid"  version="0.1"  >
<UnstructuredGrid>
<Piece  NumberOfPoints="21400" NumberOfCells="42336">
<Points>
<DataArray  type="Float64"  NumberOfComponents="3"  format="ascii">0 0 0  0.004583333333333333 0 0  0.009166666666666667 0 0  0.01375 0 0  0.01833333333333333 0 0  0.02291666666666667 0 0  0.0275 0 0  0.03208333333333334 0 0  0.03666666666666667 0 0  0.04125 0 0  0.04583333333333334 0 0  0.05041666666666667 0 0  0.055 0 0  0.05958333333333334 0 0  0.06416666666666668 0 0  0.06875000000000001 0 0  0.07333333333333333 0 0  0.07791666666666666 0 0  0.08249999999999999 0 0  0.08708333333333333 0 0  0.09166666666666667 0 0  0.09625000000000002 0 0  0.1008333333333333 0 0  0.1054166666666667 0 0  0.11 0 0  0.1145833333333333 0 0  0.1191666666666667 0 0  0.12375 0 0  0.1283333333333334 0 0  0.1329166666666667 0 0  0.1375 0 0  0.1420833333333333 0 0  0.1466666666666667 0 0  0.15125 0 0  0.1558333333333333 0 0  0.1604166666666667 0 0  0.165 0 0  0.1695833333333333 0 0  0.1741666666666667 0 0  0.17875 0 0  0.1833333333333333 0 0  0.1879166666666667 0 0  0.1925 0 0  0.1970833333333333 0 0  0.2016666666666667 0 0  0.20625 0 0  0.2108333333333333 0 0  0.2154166666666666 0 0  0.22 0 0  0.2245833333333334 0 0  0.2291666666666667 0 0  0.23375 0 0  0.2383333333333333 0 0  0.2429166666666667 0 0  0.2475 0 0  0.2520833333333333 0 0  0.2566666666666667 0 0  0.26125 0 0  0.2658333333333334 0 0  0.2704166666666666 0 0  0.275 0 0  0.2795833333333334 0 0  0.2841666666666667 0 0  0.28875 0 0  0.2933333333333333 0 0  0.2979166666666667 0 0  0.3025 0 0  0.3070833333333334 0 0  0.3116666666666666 0 0  0.31625 0 0  0.3208333333333333 0 0  0.3254166666666667 0 0  0.33 0 0  0.3345833333333333 0 0  0.3391666666666667 0 0  0.34375 0 0  0.3483333333333333 0 0  0.3529166666666667 0 0  0.3575 0 0  0.3620833333333333 0 0  0.3666666666666667 0 0  0.37125 0 0  0.3758333333333334 0 0  0.3804166666666667 0 0  0.3850000000000001 0 0  0.3895833333333333 0 0  0.3941666666666667 0 0  0.39875 0 0  0.4033333333333334 0 0  0.4079166666666666 0 0  0.4125 0 0  0.4170833333333334 0 0  0.4216666666666667 0 0  0.42625 0 0  0.4308333333333333 0 0  0.4354166666666667 0 0  0.44 0 0  0.4445833333333333 0 0  0.4491666666666667 0 0  0.45375 0 0  0.4583333333333333 0 0  0.4629166666666666 0 0  0.4675 0 0  0.4720833333333334 0 0  0.4766666666666667 0 0  0.4812500000000001 0 0  0.4858333333333333 0 0  0.4904166666666667 0 0  0.495 0 0  0.4995833333333334 0 0  0.5041666666666667 0 0  0.50875 0 0  0.5133333333333334 0 0  0.5179166666666667 0 0  0.5225 0 0  0.5270833333333333 0 0  0.5316666666666667 0 0  0.53625 0 0  0.5408333333333333 0 0  0.5454166666666667 0 0  0.55 0 0  0.5545833333333333 0 0  0.5591666666666667 0 0  0.5637500000000001 0 0  0.5683333333333334 0 0  0.5729166666666666 0 0  0.5775 0 0  0.5820833333333334 0 0  0.5866666666666667 0 0  0.5912499999999999 0 0  0.5958333333333334 0 0  0.6004166666666667 0 0  0.605 0 0  0.6095833333333334 0 0  0.6141666666666667 0 0  0.61875 0 0  0.6233333333333333 0 0  0.6279166666666667 0 0  0.6325000000000001 0 0  0.6370833333333333 0 0  0.6416666666666666 0 0  0.64625 0 0  0.6508333333333334 0 0  0.6554166666666666 0 0  0.6599999999999999 0 0  0.6645833333333334 0 0  0.6691666666666667 0 0  0.67375 0 0  0.6783333333333333 0 0  0.6829166666666667 0 0  0.6875 0 0  0.6920833333333333 0 0  0.6966666666666667 0 0  0.70125 0 0  0.7058333333333333 0 0  0.7104166666666667 0 0  0.7150000000000001 0 0  0.7195833333333334 0 0  0.7241666666666666 0 0  0.72875 0 0  0.7333333333333334 0 0  0.7379166666666667 0 0  0.7425 0 0  0.7470833333333333 0 0  0.7516666666666667 0 0  0.75625 0 0  0.7608333333333334 0 0  0.7654166666666666 0 0  0.7700000000000001 0 0  0 0.002380952380952381 0  0.004583333333333333 0.002380952380952381 0  0.009166666666666667 0.002380952380952381 0  0.01375 0.002380952380952381 0  0.01833333333333333 0.002380952380952381 0  0.02291666666666667 0.002380952380952381 0  0.0275 0.002380952380952381 0  0.03208333333333334 0.002380952380952381 0  0.03666666666666667 0.002380952380952381 0  0.04125 0.002380952380952381 0  0.04583333333333334 0.002380952380952381 0  0.05041666666666667 0.002380952380952381 0  0.055 0.002380952380952381 0  0.05958333333333334 0.002380952380952381 0  0.06416666666666668 0.002380952380952381 0  0.06875000000000001 0.002380952380952381 0  0.07333333333333333 0.002380952380952381 0  0.07791666666666666 0.002380952380952381 0  0.08249999999999999 0.002380952380952381 0  0.08708333333333333 0.002380952380952381 0  0.09166666666666667 0.002380952380952381 0  0.09625000000000002 0.002380952380952381 0  0.1008333333333333 0.002380952380952381 0  0.1054166666666667 0.002380952380952381 0  0.11 0.002380952380952381 0  0.1145833333333333 0.002380952380952381 0  0.1191666666666667 0.002380952380952381 0  0.12375 0.002380952380952381 0  0.1283333333333334 0.002380952380952381 0  0.1329166666666667 0.002380952380952381 0  0.1375 0.002380952380952381 0  0.1420833333333333 0.002380952380952381 0  0.1466666666666667 0.002380952380952381 0  0.15125 0.002380952380952381 0  0.1558333333333333 0.002380952380952381 0  0.1604166666666667 0.002380952380952381 0  0.165 0.002380952380952381 0  0.1695833333333333 0.002380952380952381 0  0.1741666666666667 0.002380952380952381 0  0.17875 0.002380952380952381 0  0.1833333333333333 0.002380952380952381 0  0.1879166666666667 0.002380952380952381 0  0.1925 0.002380952380952381 0  0.1970833333333333 0.002380952380952381 0  0.2016666666666667 0.002380952380952381 0  0.20625 0.002380952380952381 0  0.2108333333333333 0.002380952380952381 0  0.2154166666666666 0.002380952380952381 0  0.22 0.002380952380952381 0  0.2245833333333334 0.002380952380952381 0  0.2291666666666667 0.002380952380952381 0  0.23375 0.002380952380952381 0  0.2383333333333333 0.002380952380952381 0  0.2429166666666667 0.002380952380952381 0  0.2475 0.002380952380952381 0  0.2520833333333333 0.002380952380952381 0  0.2566666666666667 0.002380952380952381 0  0.26125 0.002380952380952381 0  0.2658333333333334 0.002380952380952381 0  0.2704166666666666 0.002380952380952381 0  0.275 0.002380952380952381 0  0.2795833333333334 0.002380952380952381 0  0.2841666666666667 0.002380952380952381 0  0.28875 0.002380952380952381 0  0.2933333333333333 0.002380952380952381 0  0.2979166666666667 0.002380952380952381 0  0.3025 0.002380952380952381 0  0.3070833333333334 0.002380952380952381 0  0.3116666666666666 0.002380952380952381 0  0.31625 0.002380952380952381 0  0.3208333333333333 0.002380952380952381 0  0.3254166666666667 0.002380952380952381 0  0.33 0.002380952380952381 0  0.3345833333333333 0.002380952380952381 0  0.3391666666666667 0.002380952380952381 0  0.34375 0.002380952380952381 0  0.3483333333333333 0.002380952380952381 0  0.3529166666666667 0.002380952380952381 0  0.3575 0.002380952380952381 0  0.3620833333333333 0.002380952380952381 0  0.3666666666666667 0.002380952380952381 0  0.37125 0.002380952380952381 0  0.3758333333333334 0.002380952380952381 0  0.3804166666666667 0.002380952380952381 0  0.3850000000000001 0.002380952380952381 0  0.3895833333333333 0.002380952380952381 0  0.3941666666666667 0.002380952380952381 0  0.39875 0.002380952380952381 0  0.4033333333333334 0.002380952380952381 0  0.4079166666666666 0.002380952380952381 0  0.4125 0.002380952380952381 0  0.4170833333333334 0.002380952380952381 0  0.4216666666666667 0.002380952380952381 0  0.42625 0.002380952380952381 0  0.4308333333333333 0.002380952380952381 0  0.4354166666666667 0.002380952380952381 0  0.44 0.002380952380952381 0  0.4445833333333333 0.002380952380952381 0  0.4491666666666667 0.002380952380952381 0  0.45375 0.002380952380952381 0  0.4583333333333333 0.002380952380952381 0  0.4629166666666666 0.002380952380952381 0  0.4675 0.002380952380952381 0  0.4720833333333334 0.002380952380952381 0  0.4766666666666667 0.002380952380952381 0  0.4812500000000001 0.002380952380952381 0  0.4858333333333333 0.002380952380952381 0  0.4904166666666667 0.002380952380952381 0  0.495 0.002380952380952381 0  0.4995833333333334 0.002380952380952381 0  0.5041666666666667 0.002380952380952381 0  0.50875 0.002380952380952381 0  0.5133333333333334 0.002380952380952381 0  0.5179166666666667 0.002380952380952381 0  0.5225 0.002380952380952381 0  0.5270833333333333 0.002380952380952381 0  0.5316666666666667 0.002380952380952381 0  0.53625 0.002380952380952381 0  0.5408333333333333 0.002380952380952381 0  0.5454166666666667 0.002380952380952381 0  0.55 0.002380952380952381 0  0.5545833333333333 0.002380952380952381 0  0.5591666666666667 0.002380952380952381 0  0.5637500000000001 0.002380952380952381 0  0.5683333333333334 0.002380952380952381 0  0.5729166666666666 0.002380952380952381 0  0.5775 0.002380952380952381 0  0.5820833333333334 0.002380952380952381 0  0.5866666666666667 0.002380952380952381 0  0.5912499999999999 0.002380952380952381 0  0.5958333333333334 0.002380952380952381 0  0.6004166666666667 0.002380952380952381 0  0.605 0.002380952380952381 0  0.6095833333333334 0.002380952380952381 0  0.6141666666666667 0.002380952380952381 0  0.61875 0.002380952380952381 0  0.6233333333333333 0.002380952380952381 0  0.6279166666666667 0.002380952380952381 0  0.6325000000000001 0.002380952380952381 0  0.6370833333333333 0.002380952380952381 0  0.6416666666666666 0.002380952380952381 0  0.64625 0.002380952380952381 0  0.6508333333333334 0.002380952380952381 0  0.6554166666666666 0.002380952380952381 0  0.6599999999999999 0.002380952380952381 0  0.6645833333333334 0.002380952380952381 0  0.6691666666666667 0.002380952380952381 0  0.67375 0.002380952380952381 0  0.6783333333333333 0.002380952380952381 0  0.6829166666666667 0.002380952380952381 0  0.6875 0.002380952380952381 0  0.6920833333333333 0.002380952380952381 0  0.6966666666666667 0.002380952380952381 0  0.70125 0.002380952380952381 0  0.7058333333333333 0.002380952380952381 0  0.7104166666666667 0.002380952380952381 0  0.7150000000000001 0.002380952380952381 
[...]
<PointData  Scalars="concentration"> 
<DataArray  type="Float64"  Name="concentration"  format="ascii">0.0000000000000000e+00  8.0099948004837815e-02  2.3034081357666009e-01  1.7611704313531931e-01  -2.3233635759603403e-02  -1.3065586813001850e-01  -1.7180071705956937e-01  -1.8849937438029019e-01  -1.7738295325372422e-01  -7.9915665153163881e-02  1.1047361225012610e-02  6.9439366592907786e-03  7.3914399626969808e-03  -1.3536378984073452e-03  6.8581009293287830e-03  -9.9118399572390367e-03  1.6055296304625471e-02  -1.2867510137168480e-02  -8.6546262312014247e-03  2.4002052831654457e-02  -2.3470253373879639e-02  1.8436046258589234e-02  -1.4028829479884540e-02  2.3211570212429491e-02  -2.8732409329913944e-02  1.5587822821992746e-02  -5.0424371186766227e-03  1.1848480648145653e-02  -1.9620638601654194e-02  2.8542245203480494e-02  -3.6806573793365521e-02  4.2724797957666388e-01  9.6564591767848951e-01  1.0489837106550097e+00  9.7069678925917857e-01  1.0401130047890479e+00  9.8759084256904683e-01  1.0422651747449800e+00  1.0242410553328338e+00  1.1509067327773304e+00  8.6928279875288550e-01  1.1005120698567277e+00  8.6048513291511730e-01  1.0956708798123054e+00  8.5464246651851183e-01  1.1007120896179077e+00  8.4550060993593112e-01  1.1086181203409793e+00  8.3504392451452203e-01  1.1176870471578577e+00  8.2562114457983893e-01  1.1239711095184799e+00  8.0870841313484865e-01  1.0936522974878276e+00  8.1234837093799617e-01  1.1689967087646225e+00  7.9566806732764672e-01  1.2347513712986240e+00  9.8318607937426505e-01  9.7419722918239804e-01  1.0060241682722082e+00  1.0399628462810646e+00  8.6577993293651712e-01  1.1900285294571831e+00  8.7041008427944344e-01  1.0234504185546549e+00  9.7227909578442850e-01  1.0690124557864746e+00  9.1646098117872177e-01  1.0454198742030674e+00  9.4098661586038390e-01  1.0077092464850161e+00  7.4534350405000804e-01  1.1201934019172983e+00  7.9775237265865107e-01  1.1572353305011733e+00  7.5131292760904345e-01  1.2087777364259822e+00  7.5976394346605347e-01  1.2406619213173873e+00  7.9901294888761498e-01  1.1636152943630953e+00  8.3668842339327654e-01  1.1079222303580318e+00  9.1520326640566740e-01  1.0639890847578568e+00  9.5208469148740626e-01  1.0250164904439725e+00  9.7753140429297192e-01  1.0037698361236620e+00  9.9117579678352175e-01  9.9661442312281023e-01  1.0010758090006016e+00  9.9395439648517081e-01  1.0143883214008644e+00  9.9741541207285367e-01  1.0328069785489582e+00  9.9195421754650026e-01  1.0564067252490683e+00  1.0192921195692817e+00  1.2638975336588973e+00  8.8991718160394995e-01  9.4241801464627761e-01  9.7026376142143689e-01  9.8879032230277697e-01  9.9674425232451103e-01  9.9992871137848072e-01  1.0009793337307229e+00  1.0011509203223599e+00  1.0010061260671164e+00  1.0007830938381503e+00  1.0005731350198690e+00  1.0004039419573101e+00  1.0002775934699453e+00  1.0001873720651993e+00  1.0001248039830783e+00  1.0000822899707422e+00  1.0000538303087114e+00  1.0000349926252319e+00  1.0000226323333556e+00  1.0000145779373368e+00  1.0000093583379726e+00  1.0000059909157490e+00  1.0000038263558715e+00  1.0000024391709919e+00  1.0000015523889996e+00  1.0000009866720394e+00  1.0000006264006216e+00  1.0000003972977098e+00  1.0000002517845434e+00  1.0000001594576171e+00  1.0000001009276174e+00  1.0000000638500879e+00  1.0000000403767879e+00  1.0000000255239563e+00  1.0000000161299505e+00  1.0000000101907514e+00  1.0000000064370067e+00  1.0000000040651829e+00  1.0000000025668854e+00  1.0000000016205886e+00  1.0000000010230301e+00  1.0000000006457415e+00  1.0000000004075602e+00  1.0000000002572123e+00  1.0000000001623162e+00  1.0000000001024261e+00  1.0000000000646301e+00  1.0000000000407807e+00  1.0000000000257310e+00  1.0000000000162337e+00  1.0000000000102438e+00  1.0000000000064619e+00  1.0000000000040785e+00  1.0000000000025722e+00  1.0000000000016243e+00  1.0000000000010243e+00  1.0000000000006473e+00  1.0000000000004077e+00  1.0000000000002578e+00  1.0000000000001623e+00  1.0000000000001033e+00  1.0000000000000651e+00  1.0000000000000422e+00  1.0000000000000266e+00  1.0000000000000175e+00  1.0000000000000113e+00  1.0000000000000071e+00  1.0000000000000082e+00  0.0000000000000000e+00  -1.8724399549256365e-02  -1.0170706508320677e-01  6.5377004384168269e-02  6.2680489777156201e-01  9.0463329595081177e-01  9.6999972055408046e-01  9.2653194526135507e-01  9.4141416398747479e-01  3.0981115207601972e-01  1.3933286300060174e-01  8.3793936285124937e-02  4.7694668746693890e-02  3.4846536817543648e-02  1.4044146703382197e-02  2.2311395516399241e-02  -7.5963105720688456e-03  1.9066455918585527e-02  9.8134254836043065e-03  -2.1942402122856051e-02  2.4928077156210961e-02  -1.8154291014048040e-02  1.4613401471085644e-02  -2.1179578383601003e-02  2.9989862132292051e-02  -1.6279991964150396e-02  5.5362644690216210e-03  -1.0170251299088955e-02  2.0175926137333065e-02  -2.6424854895709875e-02  3.5276800931325646e-02  -6.4233192198906136e-02  5.1941470399297224e-03  -3.8037379711328673e-02  4.1368181883009142e-02  -1.8018196396623012e-02  4.5783333888265033e-02  1.5636228600645626e-02  8.2450737509278282e-02  7.8100021751477483e-02  7.3308010646665689e-01  3.0275076546800794e-01  7.9576620537991016e-01  3.1709229346817003e-01  7.8940291773854998e-01  3.2074854367939531e-01  7.7961837114679167e-01  3.2564241456629017e-01  7.7075569290978863e-01  3.3335218748653250e-01  7.6441728082491478e-01  3.4602605144934157e-01  7.6412232768404464e-01  3.5433233274619319e-01  6.7456798013487529e-01  3.0883385863628898e-01  7.1533045800186090e-01  3.3185169136473697e-01  7.8551865299175228e-01  1.0337120818804033e+00  1.0056487322836207e+00  1.0023376758897247e+00  1.1621294460994769e+00  7.4692597295846452e-01  1.2678726426516445e+00  9.5125829578613352e-01  1.0116221137070744e+00  9.1211367197064019e-01  1.1220522460447120e+00  8.9495251499797768e-01  1.0299828781851839e+00  8.7752516485996634e-01  1.0126563513481943e+00  1.8418448034192056e-01  3.2025885555741418e-01  -5.8817637078293600e-02  2.5052746166666595e-01  -1.4800194929395374e-01  2.0554087604251281e-01  -1.8264499993315383e-01  1.9602039486013031e-01  -1.3501885200255229e-01  1.3375959592913728e-01  -1.0302760853948000e-01  5.5252080263435144e-02  -7.2801226987583775e-02  2.4260139336236729e-02  -3.7566043562542860e-02  1.2586504041732975e-03  -2.3692128293398673e-02  -1.5195246639192930e-02  -2.1499670467206366e-02  -2.3400691586867764e-02  -1.5534894015962196e-02  -2.2487451133934806e-02  5.0730391950339904e-03  3.9556079104260669e-03  4.5801795054519062e-02  2.0506123397231586e-02  8.9855573750109052e-02  4.9444608006219701e-03  2.2351396500405332e-01  4.2983342389819901e-01  6.4183837128912469e-01  7.7867864918564678e-01  8.6200381893220246e-01  9.1351844527749904e-01  9.4564204817922026e-01  9.6577414678832052e-01  9.7842752877009165e-01  9.8639413765694950e-01  9.9141526900544408e-01  9.9458205217050077e-01  9.9658014798108918e-01  9.9784118190725979e-01  9.9863716701873184e-01  9.9913965009926320e-01  9.9945686747136986e-01  9.9965712963784903e-01  9.9978355645014261e-01  9.9986336928311970e-01  9.9991375372960056e-01  9.9994555971183985e-01  9.9996563717877374e-01  9.9997831068071286e-01  9.9998631035231300e-01  9.9999135970744502e-01  9.9999454675443378e-01  9.9999655830257228e-01  9.9999782788951863e-01  9.9999862917108018e-01  9.9999913487828485e-01  9.9999945403572676e-01  9.9999965545600689e-01  9.9999978257025723e-01  9.9999986278950026e-01  9.9999991341350947e-01  9.9999994536039150e-01  9.9999996552058668e-01  9.9999997824258968e-01  9.9999998627065889e-01  9.9999999133661510e-01  9.9999999453335542e-01  9.9999999655055172e-01  9.9999999782342308e-01  9.9999999862661015e-01  9.9999999913341819e-01  9.9999999945321039e-01  9.9999999965499320e-01  9.9999999978231446e-01  9.9999999986265176e-01  9.9999999991333954e-01  9.9999999994532418e-01  9.9999999996550215e-01  9.9999999997823574e-01  9.9999999998626754e-01  9.9999999999133715e-01  9.9999999999453426e-01  9.9999999999655287e-01  9.9999999999782563e-01  9.9999999999862932e-01  9.9999999999913525e-01  9.9999999999945532e-01  9.9999999999965650e-01  9.9999999999978406e-01  9.9999999999986411e-01  9.9999999999991451e-01  9.9999999999994571e-01  9.9999999999996625e-01  0.0000000000000000e+00  6.0216522470616079e-04  -1.5850059282440834e-02  1.7261834435276968e-01  5.8483876732094701e-02  6.2632813100466075e-02  5.3110366927624414e-02  7.2322626565234041e-02  2.1950188226693122e-02  -4.0536642733662046e-02  -3.6863407878845060e-02  -2.7502823510265100e-02  -1.4538900789682480e-02  -1.4624168060301132e-02  -2.1872228545604020e-03  -1.4010577564532401e-02  1.1701348199392128e-02  -2.0819834392259810e-02  3.8299211998422023e-04  2.4442505139141420e-02  -2.6759756307352663e-02  2.2767917725275762e-02  -1.5571412006654194e-02  1.8048605098802017e-02  -3.3170406792913228e-02  2.4469829920244837e-02  -4.9569870776496362e-03  8.7571157116708206e-03  -1.8523516810538952e-02  2.7115564431394575e-02  -3.0337139842602247e-02  4.5779250419829769e-02  -1.9522188443490029e-02  3.9721996377750861e-02  -3.2789638691170339e-02  4.3190317383889384e-02  -1.5634680084998052e-02  3.4327384325142644e-02  -1.0886756226363720e-02  4.0214948315661421e-02  -7.7276847233281057e-02  -7.9258212799915399e-03  -6.6567012145768670e-02  -4.6848454315969254e-05  -5.7619021801756293e-02  4.2496615913664776e-03  -5.1452579320249152e-02  5.2010391963589709e-03  -4.6227839979848577e-02  3.9242045620875238e-03  -4.0212811366632885e-02  2.1690077892297104e-03  -2.9701785574696042e-02  1.6772767522865512e-02  1.8553607017907127e-03  2.4066059839078925e-02  -3.4039865869513415e-02  -7.5231944053474288e-03  -2.5259219027485121e-02  -4.7237617149978275e-02  -2.5104439077443530e-02  -2.2729370857174188e-02  -7.5366865561218077e-02  1.3581011402663412e-01  -1.8586779854728219e-01  3.3191398091471890e-02  5.3127955294355695e-03  5.6310665974684482e-02  -7.1231325281449542e-02  6.7986301529303142e-02  -3.3097064870682855e-02  2.6873803490434566e-02  -1.1250068373900513e-01  2.9975413267285200e-02  -2.3995609295922990e-01  1.0387122041855962e-01  -2.5034367039476813e-01  1.5813284830924065e-01  -2.1278907508363037e-01  1.9081292733847824e-01  -2.0501806949982751e-01  1.6501932587777812e-01  -1.1698101976336817e-01  1.3796417868013502e-01  -3.9922722040037197e-02  9.2119911005240473e-02  -1.9161455920090574e-02  4.3964921663834318e-02  -2.7660829396886299e-03  2.0773078387676575e-02  6.4920241050135117e-03  8.5163126196824788e-03  4.6603365438007693e-03  -7.8685586155899274e-03  -4.6131603767438339e-03  -3.3435655040056418e-02  -2.7834692454836524e-02  -6.0192994995741114e-02  -2.2328483785074221e-02  -7.3825273925534465e-02  3.0913343766134825e-02  -7.3034588036529458e-02  1.2203523950784710e-01  4.4251798353382066e-01  6.5420156840660415e-01  7.8517638825724867e-01  8.6620564830105296e-01  9.1642191583664057e-01  9.4764610746287459e-01  9.6712764697446074e-01  9.7932000018714660e-01  9.8697014252558102e-01  9.9178027694643700e-01  9.9480973510864878e-01  9.9672020189480104e-01  9.9792623241237821e-01  9.9868818012567728e-01  9.9916986749381453e-01  9.9947453107280804e-01  9.9966730400270853e-01  9.9978931721160436e-01  9.9986656315778044e-01  9.9991547693940641e-01  9.9994645517333580e-01  9.9996607696285877e-01  9.9997850683032452e-01  9.9998638149032593e-01  9.9999137065361487e-01  9.9999453182976017e-01  9.9999653487274032e-01  9.9999780412748041e-01  9.9999860843346400e-01  9.9999911812258180e-01  9.9999944111994288e-01  9.9999964581178158e-01  9.9999977553229336e-01  9.9999985774183919e-01  9.9999990984216236e-01  9.9999994286104488e-01  9.9999996378710965e-01  9.9999997704930277e-01  9.9999998545445368e-01  9.9999999078138824e-01  9.9999999415745455e-01  9.9999999629712000e-01  9.9999999765318981e-01  9.9999999851263754e-01  9.9999999905733661e-01  9.9999999940255746e-01  9.9999999962135144e-01  9.9999999976001797e-01  9.9999999984790489e-01  9.9999999990360300e-01  9.9999999993890676e-01  9.9999999996127997e-01  9.9999999997546152e-01  9.9999999998444733e-01  9.9999999999014411e-01  9.9999999999375311e-01  9.9999999999604072e-01  9.9999999999749023e-01  9.9999999999841016e-01  9.9999999999899225e-01  9.9999999999936162e-01  9.9999999999959466e-01  9.9999999999974343e-01  9.9999999999983735e-01  9.9999999999989742e-01  9.9999999999993450e-01  0.0000000000000000e+00  -4.9032569282700398e-03  3.6126019524173679e-02  -8.7544165134518251e-02  -5.6102289540659704e-03  -9.8644453124043432e-03  -7.2482333432001443e-03  -3.8778877412793060e-02  -4.0682723106315002e-02  -1.1070117303480958e-02  1.1720832769882134e-03  5.9706098302809759e-03  1.8902466099064515e-03  6.7655577404381450e-03  -1.8924242031430945e-03  9.1142229299385081e-03  -1.3202490686115112e-02  2.4419917626066847e-02  -1.8825659210532031e-02  -2.5683579642146022e-02  3.0935643966254731e-02  -3.0125180634083024e-02  1.8679777673079625e-02  -1.2758401488730739e-02  3.4597733488192749e-02  -4.1451424341121514e-02  4.7812617101005723e-03  -6.1967978733876630e-03  1.4842070738257504e-02  -2.8220563171070263e-02  2.7858419329114644e-02  -3.5348269617992957e-02  2.9215310106405913e-02  -3.2711527882993550e-02  4.5436836075361128e-02  -4.1243690259026890e-02  3.0795067237360824e-02  -2.9866800836476241e-02  1.1266839107100612e-02  -4.5060614737564397e-02  4.2287146581858802e-02  -1.7409538969213389e-02  3.2704240532385277e-02  -2.3535011398516513e-02  2.5744779361086368e-02  -2.7895530207090014e-02  1.9282824530242017e-02  -3.1560108372722960e-02  1.1468817905637948e-02  -3.5844057520997744e-02  7.5970212940304122e-05  -4.2583824597252642e-02  -1.8242106708004260e-02  -6.3651540449391392e-02  -5.9070756215906628e-02  -5.1970822127411540e-02  2.3794651989093200e-02  3.2401013327226988e-02  5.0942578206030119e-02  4.1150039164847267e-02  3.8546153393378296e-03  -4.2465049166396738e-03  1.7362378398229301e-02  -2.0232136745472099e-01  1.2228607670001330e-01  -1.8571549016653163e-01  -1.4927543792408918e-01  -1.6384114868597482e-01  -2.2517427962715778e-02  -1.6932694939086204e-01  -3.5661244558664290e-02  -9.0091108078383275e-02  4.7899513708340356e-02  -6.0604222270252299e-02  2.5323163141341759e-01  -1.0805588016070443e-01  2.9803644342476543e-01  -1.3441243110417739e-01  2.6758413930588976e-01  -1.6364831776747660e-01  2.3562621842770423e-01  -2.4247174119079662e-01  6.9893484323927779e-02  -1.8464119935172446e-01  7.2208950675659203e-02  -4.6910072803620820e-02  1.1331590200833941e-01  6.3631264951327385e-02  1.4101350769925058e-01  1.3327349753610779e-01  1.7198433498569263e-01  1.9068665459867420e-01  2.1852921024366814e-01  2.5300604460946169e-01  2.7059905575471022e-01  3.1574853832656846e-01  2.6821091050551416e-01  2.5482922031819033e-01  2.0090730219773298e-01  2.0119218209342271e-01  6.2211159548336267e-02  1.9137597657128963e-01  3.5365577243884472e-01  5.6614443135840742e-01  7.2640065957080069e-01  8.3002084931566322e-01  8.9468400204730814e-01  9.3464103743943527e-01  9.5931665356803120e-01  9.7459682638899636e-01  9.8409343538954741e-01  9.9001654482608559e-01  9.9372226261701202e-01  9.9604660163026315e-01  9.9750746285718805e-01  9.9842708955378723e-01  9.9900672361996234e-01  9.9937241524166420e-01  9.9960330304500633e-01  9.9974916415474424e-01  9.9984135228886983e-01  9.9989963836938101e-01  9.9993650013437207e-01  9.9995981771191467e-01  9.9997457025898495e-01  9.9998390519676794e-01  9.9998981270800025e-01  9.9999355154739233e-01  9.9999591801506160e-01  9.9999741593905489e-01  9.9999836413816179e-01  9.9999896437956837e-01  9.9999934436402249e-01  9.9999958492026209e-01  9.9999973721196023e-01  9.9999983362659473e-01  9.9999989466672190e-01  9.9999993331165016e-01  9.9999995777823114e-01  9.9999997326842660e-01  9.9999998307557936e-01  9.9999998928470690e-01  9.9999999321585908e-01  9.9999999570477327e-01  9.9999999728057254e-01  9.9999999827825459e-01  9.9999999890991476e-01  9.9999999930983741e-01  9.9999999956303853e-01  9.9999999972334785e-01  9.9999999982484544e-01  9.9999999988910382e-01  9.9999999992979050e-01  9.9999999995554756e-01  9.9999999997185685e-01  9.9999999998218125e-01  9.9999999998871969e-01  9.9999999999285760e-01  9.9999999999547817e-01  9.9999999999713785e-01  9.9999999999818934e-01  9.9999999999885336e-01  9.9999999999927458e-01  9.9999999999954148e-01  9.9999999999971090e-01  9.9999999999981692e-01  9.9999999999988443e-01  9.9999999999992628e-01  9.9999999999995326e-01  0.0000000000000000e+00  9.2740552840140534e-03  -3.4172878261615407e-02  4.8374838457876754e-02  -7.6820575482986677e-03  -5.7639329651310561e-03  -1.5369279982319470e-02  1.3087225975776556e-03  1.5209999548039990e-02  8.7957448757208130e-03  4.1737878009542066e-03  -1.0869538965508217e-03  1.5377285667442714e-03  -3.0178726054323822e-03  5.1782039972575597e-03  -1.7829493085883706e-03  1.6800118265741026e-02  -2.3469207126980435e-02  5.0515250524483475e-02  2.3515604282811096e-02  -3.7444309515847117e-02  4.1130323121787417e-02  -2.4935720657788610e-02  7.3443513718725430e-03  -2.8750483787084911e-02  6.9665278632760397e-02  -9.2118950324646866e-03  -4.2869905666536538e-04  -1.2288500590248986e-02  2.5290884252145530e-02  -3.2258238621008968e-02  2.3528601562730310e-02  -3.8064909910819039e-02  2.7321626423370073e-02  -5.4578188859829208e-02  4.7113213901580457e-02  -4.5726258962482218e-02  2.8733621489423797e-02  -1.8754421937402049e-02  3.3278344519789775e-02  -3.3548940496992669e-02  1.4567794462519023e-02  -3.0689303725934754e-02  1.3656289482982902e-02  -3.1196471306427623e-02  1.0437626037266320e-02  -3.3671045444676709e-02  4.2679560370130895e-03  -3.8570252702136647e-02  -6.1037871511972226e-03  -4.6437108038404708e-02  -2.2982992509222436e-02  -5.9644454075156984e-02  -4.8035107910019262e-02  -9.8771178511395621e-02  -5.7530590879172602e-02  -2.3308562013044536e-02  2.4102998392575713e-03  8.2697136506891714e-02  3.7734159589967418e-02  3.8976951904821283e-02  2.5014908178818806e-03  -2.5064848646912954e-02  6.3322961188361240e-02  -2.4465200146507257e-03  5.6742702418604563e-01  2.3117665383364661e-01  7.9924683965927090e-01  8.1921053597683957e-01  1.2625214278646280e+00  7.1244461454244190e-01  9.4004687497771999e-01  9.5879415049899075e-01  1.0381966656385144e+00  1.1549819266346076e-01  7.1948956948465281e-01  -1.8373623445520354e-01  1.0332416450835991e+00  -1.6897280388138189e-01  1.0509984528533907e+00  2.9550993328569475e-02  8.3631124677652680e-01  -1.0411415225853721e-01  1.0134794346988492e+00  -4.8458951309387259e-02  9.4995569104397959e-01  4.3412312563697047e-01  1.0742168680562663e+00  8.2251780914291517e-01  1.0711105923830713e+00  9.4411155258238499e-01  1.0113430463874706e+00  9.5689044345133156e-01  9.6732243394459416e-01  9.6559089343969640e-01  9.5744926212721337e-01  1.1468660118688365e+00  1.1000366889579936e+00  1.1623049369799472e+00  1.0229898948125233e+00  6.2856527510150184e-01  5.2769602864622200e-01  6.2956913819436855e-01  7.4704627671485813e-01  8.4096600930437493e-01  9.0241407215338210e-01  9.4042887500389349e-01  9.6355472612076098e-01  9.7759494623111853e-01  9.8615322006348793e-01  9.9140083437185156e-01  9.9463777930175756e-01  9.9664510960450681e-01  9.9789545572464255e-01  9.9867707493951197e-01  9.9916706528136301e-01  9.9947491515535214e-01  9.9966866275497090e-01  9.9979076203048445e-01  9.9986778860907222e-01  9.9991642036425965e-01  9.9994714417256247e-01  9.9996656408898299e-01  9.9997884389822500e-01  9.9998661124514632e-01  9.9999152556225857e-01  9.9999463542709643e-01  9.9999660372448762e-01  9.9999784966497174e-01  9.9999863843517389e-01  9.9999913782729910e-01  9.9999945402880630e-01  9.9999965425073545e-01  9.9999978103934573e-01  9.9999986133020047e-01  9.9999991217729478e-01  9.9999994437893114e-01  9.9999996477279540e-01  9.9999997768882931e-01  9.9999998586906280e-01  9.9999999104999238e-01  9.9999999433135867e-01  9.9999999640964532e-01  9.9999999772596049e-01  9.9999999855967403e-01  9.999999990