<?xml version="1.0"?>
<VTKFile type="UnstructuredGrid"  version="0.1"  >
<UnstructuredGrid>
<Piece  NumberOfPoints="21400" NumberOfCells="42336">
<Points>
<DataArray  type="Float64"  NumberOfComponents="3"  format="ascii">0 0 0  0.004583333333333333 0 0  0.009166666666666667 0 0  0.01375 0 0  0.01833333333333333 0 0  0.02291666666666667 0 0  0.0275 0 0  0.03208333333333334 0 0  0.03666666666666667 0 0  0.04125 0 0  0.04583333333333334 0 0  0.05041666666666667 0 0  0.055 0 0  0.05958333333333334 0 0  0.06416666666666668 0 0  0.06875000000000001 0 0  0.07333333333333333 0 0  0.07791666666666666 0 0  0.08249999999999999 0 0  0.08708333333333333 0 0  0.09166666666666667 0 0  0.09625000000000002 0 0  0.1008333333333333 0 0  0.1054166666666667 0 0  0.11 0 0  0.1145833333333333 0 0  0.1191666666666667 0 0  0.12375 0 0  0.1283333333333334 0 0  0.1329166666666667 0 0  0.1375 0 0  0.1420833333333333 0 0  0.1466666666666667 0 0  0.15125 0 0  0.1558333333333333 0 0  0.1604166666666667 0 0  0.165 0 0  0.1695833333333333 0 0  0.1741666666666667 0 0  0.17875 0 0  0.1833333333333333 0 0  0.1879166666666667 0 0  0.1925 0 0  0.1970833333333333 0 0  0.2016666666666667 0 0  0.20625 0 0  0.2108333333333333 0 0  0.2154166666666666 0 0  0.22 0 0  0.2245833333333334 0 0  0.2291666666666667 0 0  0.23375 0 0  0.2383333333333333 0 0  0.2429166666666667 0 0  0.2475 0 0  0.2520833333333333 0 0  0.2566666666666667 0 0  0.26125 0 0  0.2658333333333334 0 0  0.2704166666666666 0 0  0.275 0 0  0.2795833333333334 0 0  0.2841666666666667 0 0  0.28875 0 0  0.2933333333333333 0 0  0.2979166666666667 0 0  0.3025 0 0  0.3070833333333334 0 0  0.3116666666666666 0 0  0.31625 0 0  0.3208333333333333 0 0  0.3254166666666667 0 0  0.33 0 0  0.3345833333333333 0 0  0.3391666666666667 0 0  0.34375 0 0  0.3483333333333333 0 0  0.3529166666666667 0 0  0.3575 0 0  0.3620833333333333 0 0  0.3666666666666667 0 0  0.37125 0 0  0.3758333333333334 0 0  0.3804166666666667 0 0  0.3850000000000001 0 0  0.3895833333333333 0 0  0.3941666666666667 0 0  0.39875 0 0  0.4033333333333334 0 0  0.4079166666666666 0 0  0.4125 0 0  0.4170833333333334 0 0  0.4216666666666667 0 0  0.42625 0 0  0.4308333333333333 0 0  0.4354166666666667 0 0  0.44 0 0  0.4445833333333333 0 0  0.4491666666666667 0 0  0.45375 0 0  0.4583333333333333 0 0  0.4629166666666666 0 0  0.4675 0 0  0.4720833333333334 0 0  0.4766666666666667 0 0  0.4812500000000001 0 0  0.4858333333333333 0 0  0.4904166666666667 0 0  0.495 0 0  0.4995833333333334 0 0  0.5041666666666667 0 0  0.50875 0 0  0.5133333333333334 0 0  0.5179166666666667 0 0  0.5225 0 0  0.5270833333333333 0 0  0.5316666666666667 0 0  0.53625 0 0  0.5408333333333333 0 0  0.5454166666666667 0 0  0.55 0 0  0.5545833333333333 0 0  0.5591666666666667 0 0  0.5637500000000001 0 0  0.5683333333333334 0 0  0.5729166666666666 0 0  0.5775 0 0  0.5820833333333334 0 0  0.5866666666666667 0 0  0.5912499999999999 0 0  0.5958333333333334 0 0  0.6004166666666667 0 0  0.605 0 0  0.6095833333333334 0 0  0.6141666666666667 0 0  0.61875 0 0  0.6233333333333333 0 0  0.6279166666666667 0 0  0.6325000000000001 0 0  0.6370833333333333 0 0  0.6416666666666666 0 0  0.64625 0 0  0.6508333333333334 0 0  0.6554166666666666 0 0  0.6599999999999999 0 0  0.6645833333333334 0 0  0.6691666666666667 0 0  0.67375 0 0  0.6783333333333333 0 0  0.6829166666666667 0 0  0.6875 0 0  0.6920833333333333 0 0  0.6966666666666667 0 0  0.70125 0 0  0.7058333333333333 0 0  0.7104166666666667 0 0  0.7150000000000001 0 0  0.7195833333333334 0 0  0.7241666666666666 0 0  0.72875 0 0  0.7333333333333334 0 0  0.7379166666666667 0 0  0.7425 0 0  0.7470833333333333 0 0  0.7516666666666667 0 0  0.75625 0 0  0.7608333333333334 0 0  0.7654166666666666 0 0  0.7700000000000001 0 0  0 0.002380952380952381 0  0.004583333333333333 0.002380952380952381 0  0.009166666666666667 0.002380952380952381 0  0.01375 0.002380952380952381 0  0.01833333333333333 0.002380952380952381 0  0.02291666666666667 0.002380952380952381 0  0.0275 0.002380952380952381 0  0.03208333333333334 0.002380952380952381 0  0.03666666666666667 0.002380952380952381 0  0.04125 0.002380952380952381 0  0.04583333333333334 0.002380952380952381 0  0.05041666666666667 0.002380952380952381 0  0.055 0.002380952380952381 0  0.05958333333333334 0.002380952380952381 0  0.06416666666666668 0.002380952380952381 0  0.06875000000000001 0.002380952380952381 0  0.07333333333333333 0.002380952380952381 0  0.07791666666666666 0.002380952380952381 0  0.08249999999999999 0.002380952380952381 0  0.08708333333333333 0.002380952380952381 0  0.09166666666666667 0.002380952380952381 0  0.09625000000000002 0.002380952380952381 0  0.1008333333333333 0.002380952380952381 0  0.1054166666666667 0.002380952380952381 0  0.11 0.002380952380952381 0  0.1145833333333333 0.002380952380952381 0  0.1191666666666667 0.002380952380952381 0  0.12375 0.002380952380952381 0  0.1283333333333334 0.002380952380952381 0  0.1329166666666667 0.002380952380952381 0  0.1375 0.002380952380952381 0  0.1420833333333333 0.002380952380952381 0  0.1466666666666667 0.002380952380952381 0  0.15125 0.002380952380952381 0  0.1558333333333333 0.002380952380952381 0  0.1604166666666667 0.002380952380952381 0  0.165 0.002380952380952381 0  0.1695833333333333 0.002380952380952381 0  0.1741666666666667 0.002380952380952381 0  0.17875 0.002380952380952381 0  0.1833333333333333 0.002380952380952381 0  0.1879166666666667 0.002380952380952381 0  0.1925 0.002380952380952381 0  0.1970833333333333 0.002380952380952381 0  0.2016666666666667 0.002380952380952381 0  0.20625 0.002380952380952381 0  0.2108333333333333 0.002380952380952381 0  0.2154166666666666 0.002380952380952381 0  0.22 0.002380952380952381 0  0.2245833333333334 0.002380952380952381 0  0.2291666666666667 0.002380952380952381 0  0.23375 0.002380952380952381 0  0.2383333333333333 0.002380952380952381 0  0.2429166666666667 0.002380952380952381 0  0.2475 0.002380952380952381 0  0.2520833333333333 0.002380952380952381 0  0.2566666666666667 0.002380952380952381 0  0.26125 0.002380952380952381 0  0.2658333333333334 0.002380952380952381 0  0.2704166666666666 0.002380952380952381 0  0.275 0.002380952380952381 0  0.2795833333333334 0.002380952380952381 0  0.2841666666666667 0.002380952380952381 0  0.28875 0.002380952380952381 0  0.2933333333333333 0.002380952380952381 0  0.2979166666666667 0.002380952380952381 0  0.3025 0.002380952380952381 0  0.3070833333333334 0.002380952380952381 0  0.3116666666666666 0.002380952380952381 0  0.31625 0.002380952380952381 0  0.3208333333333333 0.002380952380952381 0  0.3254166666666667 0.002380952380952381 0  0.33 0.002380952380952381 0  0.3345833333333333 0.002380952380952381 0  0.3391666666666667 0.002380952380952381 0  0.34375 0.002380952380952381 0  0.3483333333333333 0.002380952380952381 0  0.3529166666666667 0.002380952380952381 0  0.3575 0.002380952380952381 0  0.3620833333333333 0.002380952380952381 0  0.3666666666666667 0.002380952380952381 0  0.37125 0.002380952380952381 0  0.3758333333333334 0.002380952380952381 0  0.3804166666666667 0.002380952380952381 0  0.3850000000000001 0.002380952380952381 0  0.3895833333333333 0.002380952380952381 0  0.3941666666666667 0.002380952380952381 0  0.39875 0.002380952380952381 0  0.4033333333333334 0.002380952380952381 0  0.4079166666666666 0.002380952380952381 0  0.4125 0.002380952380952381 0  0.4170833333333334 0.002380952380952381 0  0.4216666666666667 0.002380952380952381 0  0.42625 0.002380952380952381 0  0.4308333333333333 0.002380952380952381 0  0.4354166666666667 0.002380952380952381 0  0.44 0.002380952380952381 0  0.4445833333333333 0.002380952380952381 0  0.4491666666666667 0.002380952380952381 0  0.45375 0.002380952380952381 0  0.4583333333333333 0.002380952380952381 0  0.4629166666666666 0.002380952380952381 0  0.4675 0.002380952380952381 0  0.4720833333333334 0.002380952380952381 0  0.4766666666666667 0.002380952380952381 0  0.4812500000000001 0.002380952380952381 0  0.4858333333333333 0.002380952380952381 0  0.4904166666666667 0.002380952380952381 0  0.495 0.002380952380952381 0  0.4995833333333334 0.002380952380952381 0  0.5041666666666667 0.002380952380952381 0  0.50875 0.002380952380952381 0  0.5133333333333334 0.002380952380952381 0  0.5179166666666667 0.002380952380952381 0  0.5225 0.002380952380952381 0  0.5270833333333333 0.002380952380952381 0  0.5316666666666667 0.002380952380952381 0  0.53625 0.002380952380952381 0  0.5408333333333333 0.002380952380952381 0  0.5454166666666667 0.002380952380952381 0  0.55 0.002380952380952381 0  0.5545833333333333 0.002380952380952381 0  0.5591666666666667 0.002380952380952381 0  0.5637500000000001 0.002380952380952381 0  0.5683333333333334 0.002380952380952381 0  0.5729166666666666 0.002380952380952381 0  0.5775 0.002380952380952381 0  0.5820833333333334 0.002380952380952381 0  0.5866666666666667 0.002380952380952381 0  0.5912499999999999 0.002380952380952381 0  0.5958333333333334 0.002380952380952381 0  0.6004166666666667 0.002380952380952381 0  0.605 0.002380952380952381 0  0.6095833333333334 0.002380952380952381 0  0.6141666666666667 0.002380952380952381 0  0.61875 0.002380952380952381 0  0.6233333333333333 0.002380952380952381 0  0.6279166666666667 0.002380952380952381 0  0.6325000000000001 0.002380952380952381 0  0.6370833333333333 0.002380952380952381 0  0.6416666666666666 0.002380952380952381 0  0.64625 0.002380952380952381 0  0.6508333333333334 0.002380952380952381 0  0.6554166666666666 0.002380952380952381 0  0.6599999999999999 0.002380952380952381 0  0.6645833333333334 0.002380952380952381 0  0.6691666666666667 0.002380952380952381 0  0.67375 0.002380952380952381 0  0.6783333333333333 0.002380952380952381 0  0.6829166666666667 0.002380952380952381 0  0.6875 0.002380952380952381 0  0.6920833333333333 0.002380952380952381 0  0.6966666666666667 0.002380952380952381 0  0.70125 0.002380952380952381 0  0.7058333333333333 0.002380952380952381 0  0.7104166666666667 0.002380952380952381 0  0.7150000000000001 0.002380952380952381 
[...]
<PointData  Scalars="concentration"> 
<DataArray  type="Float64"  Name="concentration"  format="ascii">0.0000000000000000e+00  8.0095007717287309e-02  2.3034620978028025e-01  1.7610192624812848e-01  -2.3237970491687427e-02  -1.3067209414329212e-01  -1.7180105433301890e-01  -1.8850914118323742e-01  -1.7734915447972555e-01  -7.9898033976114766e-02  1.1127516705851924e-02  6.9471934842359135e-03  7.5096511570152680e-03  -1.3641604265431160e-03  7.0457992827225781e-03  -9.9352998036502382e-03  1.6372438602506444e-02  -1.3033134876945240e-02  -8.0105527500243801e-03  2.3789235678490606e-02  -2.2596237079480580e-02  1.8217089735147369e-02  -1.2512153578256330e-02  2.2280914394408800e-02  -2.6442246446943145e-02  1.4826488514219588e-02  -4.5522657136031213e-04  8.2997831611533214e-03  -9.6740820177466276e-03  2.0923198971089876e-02  -1.5003602223210412e-02  2.9973591352338139e-02  -2.0759897912540983e-02  4.2726723659231837e-02  -1.4931183007138219e-02  3.8766683700760370e-02  1.8259315001590466e-02  5.1976722426781738e-02  4.7019825266521603e-01  1.1709575992473316e+00  8.7709215276295904e-01  1.0926772707155148e+00  8.7729788596627911e-01  1.0805203925809397e+00  8.8187616488939391e-01  1.0781691909128905e+00  8.8413736782717922e-01  1.0771398934515739e+00  8.8563387762424661e-01  1.0774414496524951e+00  8.8677091274034670e-01  1.0790876629470618e+00  8.8405669645366314e-01  1.0497853353356366e+00  8.8111427152550204e-01  1.0965685796670461e+00  8.6392990838526917e-01  1.1339882412215527e+00  1.0138888158727448e+00  9.7352155524704742e-01  1.0080965525175665e+00  9.8591821561888249e-01  1.0016549074374730e+00  1.0322490536070579e+00  9.3611655017206397e-01  1.0031616320982708e+00  9.7546191428984941e-01  1.0593119900145773e+00  9.3124657055493609e-01  1.1175522935626385e+00  8.1086693029218493e-01  9.5026335598213230e-01  6.8481283527140002e-01  1.1366105729895448e+00  7.9171479941405420e-01  1.2755376263423712e+00  6.7684201642316721e-01  1.3221674776622181e+00  6.6680030766350507e-01  1.3230218641588678e+00  6.7943573301586135e-01  1.3186591161640955e+00  6.9490084563645138e-01  1.3071431564075382e+00  7.1733363857977495e-01  1.2886297295868783e+00  7.5085791946817459e-01  1.2265221282809180e+00  7.6912668815666696e-01  1.2155916598337944e+00  7.8543225500128222e-01  1.2133929370275522e+00  7.8987669542077488e-01  1.2102949755852821e+00  7.9257771973677626e-01  1.2079504757124113e+00  7.9441949452206084e-01  1.2061543284598792e+00  7.9588771226093835e-01  1.2045810897047640e+00  7.9742060035614704e-01  1.2027522766693504e+00  7.9957189223238223e-01  1.1998392551784229e+00  8.0324789861990253e-01  1.1942074266250784e+00  8.1012725314911072e-01  1.1824250852571729e+00  8.2352536468166526e-01  1.1573894571212398e+00  8.5086308531431543e-01  1.1080904552972899e+00  9.1692225641549407e-01  1.0627494379112541e+00  9.5293468646990664e-01  1.0244989167685803e+00  9.7748219529284763e-01  1.0035223101388933e+00  9.9100306670443172e-01  9.9638524046756871e-01  1.0007618468286212e+00  9.9372461583803873e-01  1.0140188873284064e+00  9.9739702755050486e-01  1.0327167310979239e+00  9.9178777220010472e-01  1.0563650472215429e+00  1.0193010142913497e+00  1.2638051429022787e+00  8.9004512542210557e-01  9.4234796127724418e-01  9.7023189386898900e-01  9.8877528913397339e-01  9.9673661159841054e-01  9.9992450548024814e-01  1.0009768713708749e+00  1.0011494244010388e+00  1.0010052000199530e+00  1.0007825158613164e+00  1.0005727732925007e+00  1.0004037155131307e+00  1.0002774518171866e+00  1.0001872835390118e+00  1.0001247487055493e+00  1.0000822554750946e+00  1.0000538087886368e+00  1.0000349792002829e+00  1.0000226239564929e+00  1.0000145727077976e+00  1.0000093550709972e+00  1.0000059888727106e+00  1.0000038250766681e+00  1.0000024383683668e+00  1.0000015518841903e+00  1.0000009863528028e+00  1.0000006261975123e+00  1.0000003971662259e+00  1.0000002516979325e+00  1.0000001593973826e+00  1.0000001008839172e+00  1.0000000638140907e+00  1.0000000403455360e+00  1.0000000254921819e+00  1.0000000160963685e+00  1.0000000101566218e+00  1.0000000063793384e+00  1.0000000040869852e+00  1.0000000022124813e+00  1.0000000029512925e+00  0.0000000000000000e+00  -1.8717245636389178e-02  -1.0170855547473473e-01  6.5391644262959750e-02  6.2680184173395537e-01  9.0464706641322601e-01  9.6998647139227612e-01  9.2655099726786494e-01  9.4138034482427957e-01  3.0984586833096445e-01  1.3931858330532443e-01  8.3871181922533997e-02  4.7678306669487545e-02  3.4980204567994382e-02  1.4013485445107573e-02  2.2527310412193639e-02  -7.6635108048361215e-03  1.9520907499306590e-02  9.5539763832789820e-03  -2.1258877059645978e-02  2.4659837364544555e-02  -1.7182087935049013e-02  1.4097556545833714e-02  -1.9097609220569998e-02  2.9134372891401600e-02  -1.3753457355338911e-02  3.3935533038972391e-03  -3.8966566853626873e-03  1.4196139772006516e-02  -1.4425576899959189e-02  2.2617114265162629e-02  -1.9355367876172175e-02  3.3092774892467730e-02  -2.5864755310713639e-02  3.7070615651973289e-02  -1.1142367307831197e-02  2.1006650881039791e-02  6.1323263971009507e-03  5.7522318546157965e-03  4.5944581583934198e-02  7.3875011119882172e-01  3.0165647436199983e-01  8.1255823852659992e-01  3.1086064183426498e-01  8.0856944789175789e-01  3.1081188408103066e-01  8.0416598140329720e-01  3.1365189034511459e-01  8.0146655465071537e-01  3.1945973498979607e-01  8.0294240028166453e-01  3.2992135835582942e-01  8.1334015217489486e-01  3.4595044842703321e-01  7.3371188484010130e-01  3.0919715491134409e-01  7.5655980762654607e-01  3.2914156345365481e-01  8.2304255041745034e-01  1.0619515471544194e+00  9.8994081491462926e-01  1.0165336748667215e+00  9.7653884271680302e-01  9.6606215067418943e-01  1.0802513149569806e+00  9.1945818475884844e-01  9.3130422293646997e-01  8.4526869240136326e-01  1.0142460458226470e+00  8.0728814514413749e-01  1.1565957597905359e+00  8.0871844802471671e-01  8.9131212303925167e-01  1.9643736392764735e-01  2.7058962624486332e-01  -8.8645745978418497e-02  3.1142200867544412e-01  -1.7174009091561923e-01  2.8996000852845294e-01  -1.9928806276107985e-01  2.6859108057388059e-01  -2.1167719309248736e-01  2.5553597646345205e-01  -2.1039897640927199e-01  2.4574304051485846e-01  -1.9644651136116523e-01  2.3665013482034125e-01  -1.5345453965581296e-01  2.0269518895222802e-01  -1.4863299133860794e-01  1.8609493406042152e-01  -1.5716651447455351e-01  1.7797670895346016e-01  -1.6144614961851780e-01  1.7361353987418529e-01  -1.6336795363844114e-01  1.7128386956291117e-01  -1.6396141473148890e-01  1.7001007079750768e-01  -1.6363054483457867e-01  1.6918123076369679e-01  -1.6236674524611205e-01  1.6822676113434615e-01  -1.5981179959250746e-01  1.6623247670158964e-01  -1.5518456987100693e-01  1.6126086216692387e-01  -1.4708852303300535e-01  1.4886847354846092e-01  -1.3325567499946389e-01  1.1886766861251132e-01  -1.1057797121945626e-01  4.9726596513552129e-02  -7.5803262222998394e-02  2.1504800321996139e-02  -3.8780117345955101e-02  3.9287072068529190e-04  -2.4170494512316967e-02  -1.5472671920073382e-02  -2.1610355131478066e-02  -2.3412983930366105e-02  -1.5632862875264150e-02  -2.2579904181030952e-02  4.6934053137608501e-03  3.6531627426759331e-03  4.5577167029828759e-02  2.0188773108361396e-02  8.9575524038787560e-02  4.7742759629659870e-03  2.2326887571052445e-01  4.2989084030588759e-01  6.4189280700672868e-01  7.7871828336250926e-01  8.6203175582889591e-01  9.1353766102378464e-01  9.4565502663741663e-01  9.6578278446974120e-01  9.7843321063100430e-01  9.8639784109686002e-01  9.9141766579825819e-01  9.9458359480920466e-01  9.9658113664427983e-01  9.9784181345092005e-01  9.9863756941836734e-01  9.9913990599932989e-01  9.9945702997008401e-01  9.9965723271609841e-01  9.9978362178797231e-01  9.9986341068007079e-01  9.9991377995291875e-01  9.9994557632415670e-01  9.9996564770532992e-01  9.9997831735440745e-01  9.9998631458603027e-01  9.9999136239578024e-01  9.9999454846259550e-01  9.9999655938906695e-01  9.9999782857990549e-01  9.9999862960955854e-01  9.9999913515406580e-01  9.9999945420748870e-01  9.9999965555778270e-01  9.9999978262643818e-01  9.9999986281208242e-01  9.9999991341024741e-01  9.9999994534277947e-01  9.9999996546003300e-01  9.9999997818921149e-01  9.9999998626319730e-01  0.0000000000000000e+00  5.9766952193328804e-04  -1.5843687660709666e-02  1.7261703319899391e-01  5.8497558657727600e-02  6.2636931903293891e-02  5.3134055735799865e-02  7.2327375966372412e-02  2.1988376651768820e-02  -4.0537070682430995e-02  -3.6807721868063401e-02  -2.7529269529979535e-02  -1.4458543792003601e-02  -1.4677055403654611e-02  -2.0513186643268963e-03  -1.4096474522959170e-02  1.1932160145785861e-02  -2.1022055233290999e-02  9.3771091617651336e-04  2.4100049918762523e-02  -2.6019148189307988e-02  2.2323825318287978e-02  -1.4434148555762055e-02  1.6916753483673608e-02  -3.0894225961287273e-02  2.3476658326560203e-02  -1.3172846597096649e-03  4.8325316568617422e-03  -1.0518062806078865e-02  1.8379291767574909e-02  -1.9172685562689227e-02  2.4166712003244363e-02  -2.7764716717870754e-02  3.4325948422101911e-02  -3.3291217700932428e-02  2.5845896717067218e-02  -1.4650562856051741e-02  5.9865858992102878e-03  4.4823643637574408e-03  2.7218151503656248e-02  -9.5833548087358444e-02  -2.5668574480952423e-02  -7.9799591122275970e-02  -1.1248589172817989e-02  -7.0026226155271848e-02  -5.4641307344632031e-03  -6.5003979975869722e-02  -4.8511646812509817e-03  -6.0966288493266102e-02  -5.2939238349807250e-03  -5.5888829473537731e-02  -1.0394684747829666e-03  -4.4207203261407015e-02  2.2327252149524857e-02  1.3883030216698168e-03  3.9487085748265247e-02  -2.5974786620192473e-02  1.3392427487771278e-02  -1.9912076230555759e-02  -3.9480568057805206e-02  5.7417830619735473e-03  -1.2637906598199950e-02  1.7139910960603470e-02  1.4304460758693759e-02  -4.4434317029958620e-02  8.2148958663673929e-02  6.0515164239972573e-02  7.2528607196032407e-02  -4.2225181978664622e-02  3.0565790832229336e-02  -1.8090102486227733e-01  9.7637060664510014e-03  -9.8132083915415363e-02  9.4026690817014501e-03  -1.3777267411547484e-01  1.7723857203466953e-01  -2.5001479101679608e-01  2.2995678779874346e-01  -2.5924407450540249e-01  2.3600512562028267e-01  -2.5562342238821201e-01  2.3571499399339715e-01  -2.5401600495865800e-01  2.2665045914945023e-01  -2.5137613746571547e-01  2.0971905987538450e-01  -2.4353733712486658e-01  1.7637944600575747e-01  -1.9695163899152743e-01  1.7027840654385229e-01  -1.7900737946983744e-01  1.8068638996600278e-01  -1.7092208053405622e-01  1.8443749784989835e-01  -1.6784604064002834e-01  1.8523530608053751e-01  -1.6673393118444368e-01  1.8506075636201672e-01  -1.6599130287547470e-01  1.8476854286760372e-01  -1.6469698377803851e-01  1.8461512538002869e-01  -1.6205993482281483e-01  1.8446263772400467e-01  -1.5696829087266859e-01  1.8369960210804256e-01  -1.4741411547169866e-01  1.8080883620658916e-01  -1.2947367754165046e-01  1.7229666157566195e-01  -9.5465809667594589e-02  1.5023974654110867e-01  -3.2205932817068593e-02  9.6023671102511879e-02  -1.6517356771438216e-02  4.4383614168000803e-02  -2.9628554364963073e-03  2.0124998402062059e-02  5.7223220569037241e-03  7.7447547708932507e-03  4.0164265500194519e-03  -8.1938865158062892e-03  -4.7269428886438638e-03  -3.3106600252668823e-02  -2.7527813507247510e-02  -5.9904412446269970e-02  -2.1872816130398657e-02  -7.3377851391932702e-02  3.1244061156284902e-02  -7.2713754079131623e-02  1.2228967651583179e-01  4.4272317311083031e-01  6.5435118283049620e-01  7.8528091847143500e-01  8.6627666000066872e-01  9.1646924868018476e-01  9.4767724830889066e-01  9.6714794842208429e-01  9.7933314855720199e-01  9.8697861720232760e-01  9.9178571956870587e-01  9.9481322092127156e-01  9.9672242974832581e-01  9.9792765396363037e-01  9.9868908604490414e-01  9.9917044424769896e-01  9.9947489798612554e-01  9.9966753728838709e-01  9.9978946547380898e-01  9.9986665735716562e-01  9.9991553677918610e-01  9.9994649318386775e-01  9.9996610110785045e-01  9.9997852216964822e-01  9.9998639123692479e-01  9.9999137684831318e-01  9.9999453576719033e-01  9.9999653737589922e-01  9.9999780571710295e-01  9.9999860944187369e-01  9.9999911875800396e-01  9.9999944151710940e-01  9.9999964605218905e-01  9.9999977567050879e-01  9.9999985780832601e-01  9.9999990985590992e-01  9.9999994283051807e-01  9.9999996376113776e-01  9.9999997686736475e-01  0.0000000000000000e+00  -4.8965475769509404e-03  3.6126018295547693e-02  -8.7535059333445311e-02  -5.6136427344015468e-03  -9.8522806673904256e-03  -7.2523790145904900e-03  -3.8757647678114980e-02  -4.0695952558180828e-02  -1.1040531886949543e-02  1.1436492212647995e-03  6.0255556810779320e-03  1.8419689162095750e-03  6.8534063490372134e-03  -1.9878655323292901e-03  9.2520903896998116e-03  -1.3366269055759505e-02  2.4634694357704139e-02  -1.9306640817277999e-02  -2.5210217627396225e-02  3.0343357156648189e-02  -2.9384188671160952e-02  1.7958465076872404e-02  -1.1409636980758515e-02  3.2426331333130047e-02  -3.9900314614713779e-02  2.4997072895997798e-03  -1.3799171532001566e-03  9.3267231487367541e-03  -1.8383368490507559e-02  2.0772923439166133e-02  -2.3369340736469946e-02  2.8500752538538055e-02  -3.5800171083851577e-02  3.9856006891310636e-02  -3.5231161470153614e-02  2.1707097493361849e-02  -8.4273119656003807e-03  1.9945159089001198e-03  -3.2178488847989017e-02  5.2601958366251624e-02  -7.1495484642625350e-03  3.7068174855214200e-02  -1.8611585297318864e-02  2.8871464075886116e-02  -2.4010808037079692e-02  2.2676085146884642e-02  -2.6784847342852230e-02  1.5635642624650732e-02  -3.0159210229981519e-02  6.3357472613050688e-03  -3.9688947008456918e-02  -8.8729237324337833e-03  -6.6094111591603416e-02  -5.4626577739363615e-02  -3.4472878099791507e-02  5.6185707879099898e-02  7.6811008767636565e-02  1.0563134322943325e-01  8.9647309521230192e-02  3.2043930061534262e-02  4.5023224681321444e-02  2.0238598408172351e-03  3.9849805169367364e-03  4.4288414790954023e-02  -1.0443404906818499e-01  -7.9355891150627106e-02  -7.6153881415906982e-02  7.0725098282728618e-02  1.5052195794303549e-02  2.2623620176647080e-01  2.7968397836091825e-03  1.1182549751810036e-01  2.6487676075150207e-02  1.6663155337958702e-01  -1.2194428864751379e-01  2.7780537137065242e-01  -2.7959033257650800e-01  2.0519285911971835e-01  -3.5755735655414267e-01  1.4719830496995334e-01  -4.0208549018676903e-01  1.0979951250531497e-01  -4.2499740673851938e-01  7.9560299827535250e-02  -4.3865389496981905e-01  4.1433565598409980e-02  -4.4808686592381786e-01  -5.5398236609821523e-02  -4.0489895573103435e-01  6.1190277189431619e-03  -3.5559542159092983e-01  4.5012733010478811e-02  -3.2338903024874754e-01  7.0589678490255783e-02  -3.0183625005374720e-01  8.7707987923662301e-02  -2.8709001355374114e-01  9.9255473109026035e-02  -2.7659980213470253e-01  1.0705561903981822e-01  -2.6842655015393463e-01  1.1224340328297008e-01  -2.6074696899217648e-01  1.1541332559776100e-01  -2.5124625095751313e-01  1.1663071148303543e-01  -2.3603734807859253e-01  1.1535428465818361e-01  -2.0736015176345776e-01  1.1056275848117633e-01  -1.4826319076956473e-01  1.0336598536685182e-01  -1.8875333511096010e-02  1.3754938675652562e-01  8.6100962241762627e-02  1.6047598290153423e-01  1.5020888341857594e-01  1.8649540916279642e-01  2.0309509186792718e-01  2.2902749228939820e-01  2.6174536478281590e-01  2.7796349601956200e-01  3.2178666449167803e-01  2.7289914863649445e-01  2.5839206008519422e-01  2.0376105719899598e-01  2.0341421554403941e-01  6.4046514909881655e-02  1.9256244338519224e-01  3.5420132036223145e-01  5.6652030554531529e-01  7.2666335097565304e-01  8.3019983247992113e-01  8.9480366837626357e-01  9.3471995359480087e-01  9.5936817883296455e-01  9.7463022216691941e-01  9.8411496376059637e-01  9.9003036708491754e-01  9.9373111031392281e-01  9.9605225207398140e-01  9.9751106507590948e-01  9.9842938288665450e-01  9.9900818211458287e-01  9.9937334203567729e-01  9.9960389158956708e-01  9.9974953770861497e-01  9.9984158929114175e-01  9.9989978868865015e-01  9.9993659545147240e-01  9.9995987814071641e-01  9.9997460856403508e-01  9.9998392947484149e-01  9.9998982809434200e-01  9.9999356129699601e-01  9.9999592419213235e-01  9.9999741985052615e-01  9.9999836661367614e-01  9.9999896594261783e-01  9.9999934534847923e-01  9.9999958553414270e-01  9.9999973759019634e-01  9.9999983384959046e-01  9.9999989478923479e-01  9.9999993336094573e-01  9.9999995778705641e-01  9.9999997318016920e-01  9.9999998301227899e-01  0.0000000000000000e+00  9.2716141683583941e-03  -3.4167139902849572e-02  4.8373585007039581e-02  -7.6688102423176988e-03  -5.7659957685763253e-03  -1.5352748514659464e-02  1.2994154114757646e-03  1.5240264431019295e-02  8.7879809970661908e-03  4.2350629407575018e-03  -1.0966000121102604e-03  1.6400855266975353e-03  -3.0417160408398270e-03  5.3387993678057320e-03  -1.8582022201394097e-03  1.7018147221207744e-02  -2.3573761892080252e-02  5.1002499551437326e-02  2.2995173118496522e-02  -3.6961977017432958e-02  4.0096042769559664e-02  -2.4585027870596882e-02  5.8949211432916988e-03  -2.6784952151953093e-02  6.7310562467897447e-02  -8.5192609743768924e-03  -6.1943971992319121e-03  -9.4855209107128670e-03  1.4945858735335965e-02  -2.7021518655594247e-02  1.8165672259150899e-02  -3.2979592546868206e-02  3.2984351980293709e-02  -5.1002578627438420e-02  4.4580911384622682e-02  -3.6549085695012321e-02  1.2493377250384265e-02  -8.2785678978620717e-03  2.5149864257119212e-02  -3.6804387500280832e-02  1.0531589343307543e-02  -2.8110381950072143e-02  1.3848108976025333e-02  -2.6548418873031773e-02  1.2305653307753985e-02  -2.7089643364213739e-02  6.8664774384874757e-03  -2.9734442380350584e-02  -3.0224499759979638e-03  -3.7528278709086572e-02  -1.8181189917583100e-02  -5.8400849992119211e-02  -4.6148545690694730e-02  -1.1638017579205259e-01  -8.7148871064936975e-02  -3.1137023643875043e-02  -6.0663476616212499e-02  6.4581502504744301e-02  6.3337159518335429e-04  1.8898668961437031e-02  -3.2470794499241173e-02  -1.0759348260110279e-02  -4.8679723522228033e-02  -1.0743773362379264e-01  3.2261331401103079e-02  -7.9650869163562149e-02  -1.3882740075232708e-02  -8.9716455547111079e-02  1.0334074440521791e-02  -7.6921039052936624e-02  1.4218466014738254e-01  -4.6656578051607535e-02  6.2475686268192832e-01  3.6926520029542803e-01  7.9061144670615946e-01  2.7597805934952263e-01  1.0164724832988805e+00  3.7210474933694164e-02  8.6991868123571892e-01  -2.3942428227344964e-02  8.4659602005015999e-01  -2.8723285350596723e-02  8.3025539636830237e-01  -3.1518567648611030e-02  8.2113375163687019e-01  -3.4400423645652163e-02  8.0759177529505477e-01  -1.4417145735276382e-01  1.0765028794893077e+00  -1.1973912461578967e-01  1.0799413366573591e+00  -1.2424500697157149e-01  1.0742763392945700e+00  -1.2985563148652027e-01  1.0686723001927176e+00  -1.3437112161513723e-01  1.0641959018173537e+00  -1.3745224126106237e-01  1.0607862708102935e+00  -1.3908429445766399e-01  1.0580659082000874e+00  -1.3912088942733455e-01  1.0554889029136207e+00  -1.3697168205505644e-01  1.0522234601496159e+00  -1.3119099504958456e-01  1.0466990296410423e+00  -1.1884304382390579e-01  1.0352270601512594e+00  -9.5094817719236724e-02  1.0069610557002384e+00  -5.6569314524490391e-02  9.3839831531189555e-01  4.2441979566331045e-01  1.0642448286583857e+00  8.1795423937703227e-01  1.0676702201837931e+00  9.4247375575260306e-01  1.0098845346408587e+00  9.5597424362200867e-01  9.6676828085986266e-01  9.6505033207637969e-01  9.5650424883576823e-01  1.1455967898906809e+00  1.0993867711941585e+00  1.1619139042794902e+00  1.0233685686789846e+00  6.2980255878866709e-01  5.2886889891258515e-01  6.3051044532240097e-01  7.4766924610514651e-01  8.4137952673155902e-01  9.0268618151556090e-01  9.4060606066559371e-01  9.6366913330092896e-01  9.7766838467420147e-01  9.8620017633521950e-01  9.9143078043877109e-01  9.9465684408778776e-01  9.9665723245785198e-01  9.9790315782062289e-01  9.9868196531903886e-01  