<?xml version="1.0"?>
<VTKFile type="UnstructuredGrid"  version="0.1"  >
<UnstructuredGrid>
<Piece  NumberOfPoints="21400" NumberOfCells="42336">
<Points>
<DataArray  type="Float64"  NumberOfComponents="3"  format="ascii">0 0 0  0.004583333333333333 0 0  0.009166666666666667 0 0  0.01375 0 0  0.01833333333333333 0 0  0.02291666666666667 0 0  0.0275 0 0  0.03208333333333334 0 0  0.03666666666666667 0 0  0.04125 0 0  0.04583333333333334 0 0  0.05041666666666667 0 0  0.055 0 0  0.05958333333333334 0 0  0.06416666666666668 0 0  0.06875000000000001 0 0  0.07333333333333333 0 0  0.07791666666666666 0 0  0.08249999999999999 0 0  0.08708333333333333 0 0  0.09166666666666667 0 0  0.09625000000000002 0 0  0.1008333333333333 0 0  0.1054166666666667 0 0  0.11 0 0  0.1145833333333333 0 0  0.1191666666666667 0 0  0.12375 0 0  0.1283333333333334 0 0  0.1329166666666667 0 0  0.1375 0 0  0.1420833333333333 0 0  0.1466666666666667 0 0  0.15125 0 0  0.1558333333333333 0 0  0.1604166666666667 0 0  0.165 0 0  0.1695833333333333 0 0  0.1741666666666667 0 0  0.17875 0 0  0.1833333333333333 0 0  0.1879166666666667 0 0  0.1925 0 0  0.1970833333333333 0 0  0.2016666666666667 0 0  0.20625 0 0  0.2108333333333333 0 0  0.2154166666666666 0 0  0.22 0 0  0.2245833333333334 0 0  0.2291666666666667 0 0  0.23375 0 0  0.2383333333333333 0 0  0.2429166666666667 0 0  0.2475 0 0  0.2520833333333333 0 0  0.2566666666666667 0 0  0.26125 0 0  0.2658333333333334 0 0  0.2704166666666666 0 0  0.275 0 0  0.2795833333333334 0 0  0.2841666666666667 0 0  0.28875 0 0  0.2933333333333333 0 0  0.2979166666666667 0 0  0.3025 0 0  0.3070833333333334 0 0  0.3116666666666666 0 0  0.31625 0 0  0.3208333333333333 0 0  0.3254166666666667 0 0  0.33 0 0  0.3345833333333333 0 0  0.3391666666666667 0 0  0.34375 0 0  0.3483333333333333 0 0  0.3529166666666667 0 0  0.3575 0 0  0.3620833333333333 0 0  0.3666666666666667 0 0  0.37125 0 0  0.3758333333333334 0 0  0.3804166666666667 0 0  0.3850000000000001 0 0  0.3895833333333333 0 0  0.3941666666666667 0 0  0.39875 0 0  0.4033333333333334 0 0  0.4079166666666666 0 0  0.4125 0 0  0.4170833333333334 0 0  0.4216666666666667 0 0  0.42625 0 0  0.4308333333333333 0 0  0.4354166666666667 0 0  0.44 0 0  0.4445833333333333 0 0  0.4491666666666667 0 0  0.45375 0 0  0.4583333333333333 0 0  0.4629166666666666 0 0  0.4675 0 0  0.4720833333333334 0 0  0.4766666666666667 0 0  0.4812500000000001 0 0  0.4858333333333333 0 0  0.4904166666666667 0 0  0.495 0 0  0.4995833333333334 0 0  0.5041666666666667 0 0  0.50875 0 0  0.5133333333333334 0 0  0.5179166666666667 0 0  0.5225 0 0  0.5270833333333333 0 0  0.5316666666666667 0 0  0.53625 0 0  0.5408333333333333 0 0  0.5454166666666667 0 0  0.55 0 0  0.5545833333333333 0 0  0.5591666666666667 0 0  0.5637500000000001 0 0  0.5683333333333334 0 0  0.5729166666666666 0 0  0.5775 0 0  0.5820833333333334 0 0  0.5866666666666667 0 0  0.5912499999999999 0 0  0.5958333333333334 0 0  0.6004166666666667 0 0  0.605 0 0  0.6095833333333334 0 0  0.6141666666666667 0 0  0.61875 0 0  0.6233333333333333 0 0  0.6279166666666667 0 0  0.6325000000000001 0 0  0.6370833333333333 0 0  0.6416666666666666 0 0  0.64625 0 0  0.6508333333333334 0 0  0.6554166666666666 0 0  0.6599999999999999 0 0  0.6645833333333334 0 0  0.6691666666666667 0 0  0.67375 0 0  0.6783333333333333 0 0  0.6829166666666667 0 0  0.6875 0 0  0.6920833333333333 0 0  0.6966666666666667 0 0  0.70125 0 0  0.7058333333333333 0 0  0.7104166666666667 0 0  0.7150000000000001 0 0  0.7195833333333334 0 0  0.7241666666666666 0 0  0.72875 0 0  0.7333333333333334 0 0  0.7379166666666667 0 0  0.7425 0 0  0.7470833333333333 0 0  0.7516666666666667 0 0  0.75625 0 0  0.7608333333333334 0 0  0.7654166666666666 0 0  0.7700000000000001 0 0  0 0.002380952380952381 0  0.004583333333333333 0.002380952380952381 0  0.009166666666666667 0.002380952380952381 0  0.01375 0.002380952380952381 0  0.01833333333333333 0.002380952380952381 0  0.02291666666666667 0.002380952380952381 0  0.0275 0.002380952380952381 0  0.03208333333333334 0.002380952380952381 0  0.03666666666666667 0.002380952380952381 0  0.04125 0.002380952380952381 0  0.04583333333333334 0.002380952380952381 0  0.05041666666666667 0.002380952380952381 0  0.055 0.002380952380952381 0  0.05958333333333334 0.002380952380952381 0  0.06416666666666668 0.002380952380952381 0  0.06875000000000001 0.002380952380952381 0  0.07333333333333333 0.002380952380952381 0  0.07791666666666666 0.002380952380952381 0  0.08249999999999999 0.002380952380952381 0  0.08708333333333333 0.002380952380952381 0  0.09166666666666667 0.002380952380952381 0  0.09625000000000002 0.002380952380952381 0  0.1008333333333333 0.002380952380952381 0  0.1054166666666667 0.002380952380952381 0  0.11 0.002380952380952381 0  0.1145833333333333 0.002380952380952381 0  0.1191666666666667 0.002380952380952381 0  0.12375 0.002380952380952381 0  0.1283333333333334 0.002380952380952381 0  0.1329166666666667 0.002380952380952381 0  0.1375 0.002380952380952381 0  0.1420833333333333 0.002380952380952381 0  0.1466666666666667 0.002380952380952381 0  0.15125 0.002380952380952381 0  0.1558333333333333 0.002380952380952381 0  0.1604166666666667 0.002380952380952381 0  0.165 0.002380952380952381 0  0.1695833333333333 0.002380952380952381 0  0.1741666666666667 0.002380952380952381 0  0.17875 0.002380952380952381 0  0.1833333333333333 0.002380952380952381 0  0.1879166666666667 0.002380952380952381 0  0.1925 0.002380952380952381 0  0.1970833333333333 0.002380952380952381 0  0.2016666666666667 0.002380952380952381 0  0.20625 0.002380952380952381 0  0.2108333333333333 0.002380952380952381 0  0.2154166666666666 0.002380952380952381 0  0.22 0.002380952380952381 0  0.2245833333333334 0.002380952380952381 0  0.2291666666666667 0.002380952380952381 0  0.23375 0.002380952380952381 0  0.2383333333333333 0.002380952380952381 0  0.2429166666666667 0.002380952380952381 0  0.2475 0.002380952380952381 0  0.2520833333333333 0.002380952380952381 0  0.2566666666666667 0.002380952380952381 0  0.26125 0.002380952380952381 0  0.2658333333333334 0.002380952380952381 0  0.2704166666666666 0.002380952380952381 0  0.275 0.002380952380952381 0  0.2795833333333334 0.002380952380952381 0  0.2841666666666667 0.002380952380952381 0  0.28875 0.002380952380952381 0  0.2933333333333333 0.002380952380952381 0  0.2979166666666667 0.002380952380952381 0  0.3025 0.002380952380952381 0  0.3070833333333334 0.002380952380952381 0  0.3116666666666666 0.002380952380952381 0  0.31625 0.002380952380952381 0  0.3208333333333333 0.002380952380952381 0  0.3254166666666667 0.002380952380952381 0  0.33 0.002380952380952381 0  0.3345833333333333 0.002380952380952381 0  0.3391666666666667 0.002380952380952381 0  0.34375 0.002380952380952381 0  0.3483333333333333 0.002380952380952381 0  0.3529166666666667 0.002380952380952381 0  0.3575 0.002380952380952381 0  0.3620833333333333 0.002380952380952381 0  0.3666666666666667 0.002380952380952381 0  0.37125 0.002380952380952381 0  0.3758333333333334 0.002380952380952381 0  0.3804166666666667 0.002380952380952381 0  0.3850000000000001 0.002380952380952381 0  0.3895833333333333 0.002380952380952381 0  0.3941666666666667 0.002380952380952381 0  0.39875 0.002380952380952381 0  0.4033333333333334 0.002380952380952381 0  0.4079166666666666 0.002380952380952381 0  0.4125 0.002380952380952381 0  0.4170833333333334 0.002380952380952381 0  0.4216666666666667 0.002380952380952381 0  0.42625 0.002380952380952381 0  0.4308333333333333 0.002380952380952381 0  0.4354166666666667 0.002380952380952381 0  0.44 0.002380952380952381 0  0.4445833333333333 0.002380952380952381 0  0.4491666666666667 0.002380952380952381 0  0.45375 0.002380952380952381 0  0.4583333333333333 0.002380952380952381 0  0.4629166666666666 0.002380952380952381 0  0.4675 0.002380952380952381 0  0.4720833333333334 0.002380952380952381 0  0.4766666666666667 0.002380952380952381 0  0.4812500000000001 0.002380952380952381 0  0.4858333333333333 0.002380952380952381 0  0.4904166666666667 0.002380952380952381 0  0.495 0.002380952380952381 0  0.4995833333333334 0.002380952380952381 0  0.5041666666666667 0.002380952380952381 0  0.50875 0.002380952380952381 0  0.5133333333333334 0.002380952380952381 0  0.5179166666666667 0.002380952380952381 0  0.5225 0.002380952380952381 0  0.5270833333333333 0.002380952380952381 0  0.5316666666666667 0.002380952380952381 0  0.53625 0.002380952380952381 0  0.5408333333333333 0.002380952380952381 0  0.5454166666666667 0.002380952380952381 0  0.55 0.002380952380952381 0  0.5545833333333333 0.002380952380952381 0  0.5591666666666667 0.002380952380952381 0  0.5637500000000001 0.002380952380952381 0  0.5683333333333334 0.002380952380952381 0  0.5729166666666666 0.002380952380952381 0  0.5775 0.002380952380952381 0  0.5820833333333334 0.002380952380952381 0  0.5866666666666667 0.002380952380952381 0  0.5912499999999999 0.002380952380952381 0  0.5958333333333334 0.002380952380952381 0  0.6004166666666667 0.002380952380952381 0  0.605 0.002380952380952381 0  0.6095833333333334 0.002380952380952381 0  0.6141666666666667 0.002380952380952381 0  0.61875 0.002380952380952381 0  0.6233333333333333 0.002380952380952381 0  0.6279166666666667 0.002380952380952381 0  0.6325000000000001 0.002380952380952381 0  0.6370833333333333 0.002380952380952381 0  0.6416666666666666 0.002380952380952381 0  0.64625 0.002380952380952381 0  0.6508333333333334 0.002380952380952381 0  0.6554166666666666 0.002380952380952381 0  0.6599999999999999 0.002380952380952381 0  0.6645833333333334 0.002380952380952381 0  0.6691666666666667 0.002380952380952381 0  0.67375 0.002380952380952381 0  0.6783333333333333 0.002380952380952381 0  0.6829166666666667 0.002380952380952381 0  0.6875 0.002380952380952381 0  0.6920833333333333 0.002380952380952381 0  0.6966666666666667 0.002380952380952381 0  0.70125 0.002380952380952381 0  0.7058333333333333 0.002380952380952381 0  0.7104166666666667 0.002380952380952381 0  0.7150000000000001 0.002380952380952381 
[...]
<PointData  Scalars="concentration"> 
<DataArray  type="Float64"  Name="concentration"  format="ascii">0.0000000000000000e+00  8.0096273656055955e-02  2.3034541962664551e-01  1.7610311072873264e-01  -2.3239151894543002e-02  -1.3067111982395915e-01  -1.7180328027601913e-01  -1.8850744681592776e-01  -1.7735163332711959e-01  -7.9891431645387520e-02  1.1119994074354799e-02  6.9575298381556417e-03  7.4972043316795219e-03  -1.3471067203820472e-03  7.0253976022059111e-03  -9.9074686804536544e-03  1.6339406988531150e-02  -1.2986663301710404e-02  -8.0685148784944774e-03  2.3871372588557118e-02  -2.2695000560309701e-02  1.8360395255102809e-02  -1.2680267495355162e-02  2.2505976783077624e-02  -2.6722440688802907e-02  1.5226688493624255e-02  -8.9511335799693722e-04  8.9270484929358310e-03  -1.0425713907639555e-02  2.2087596116476840e-02  -1.6361655663075271e-02  3.2075599622460926e-02  -2.3014972488438281e-02  4.6702760046572894e-02  -1.9941063957301039e-02  4.7758431687904342e-02  6.0575739446656540e-03  6.6955560047716342e-02  2.5242115730333310e-02  6.6057252275717970e-01  8.8301925980794593e-01  1.0963000196693977e+00  8.7624228204835819e-01  1.0804366264625884e+00  8.8242675100934176e-01  1.0773706573428030e+00  8.8548817133368130e-01  1.0758527453765101e+00  8.8757430800083470e-01  1.0757713796380699e+00  8.8973116808937291e-01  1.0767469908264915e+00  8.9119240701704416e-01  1.0464933143665784e+00  8.8796840321933102e-01  1.0892923855330456e+00  8.7449723933700585e-01  1.1117772925318583e+00  1.0249056638633316e+00  9.7777140860618261e-01  1.0106213146467797e+00  9.8622137584015390e-01  1.0016105203976993e+00  1.0205117755581536e+00  9.8352879744811506e-01  9.7148359873644674e-01  1.0074238497674963e+00  9.9467091578472799e-01  1.0443482385233425e+00  9.9156312944191416e-01  9.5899043764540037e-01  9.3385698537181494e-01  8.2703147550732703e-01  9.4575467778029987e-01  1.0028684463070878e+00  1.0243735264067768e+00  8.9498180026425889e-01  1.1347842894612596e+00  7.2660690277127926e-01  1.2521768580908015e+00  7.2333299229948322e-01  1.3132282180455654e+00  6.7066354118849558e-01  1.3369548325893417e+00  6.6306478758309872e-01  1.3342830132941177e+00  6.7424966765187833e-01  1.3274787645343245e+00  6.8642672435219509e-01  1.3172482600915096e+00  7.0156979563842137e-01  1.3041197576419610e+00  7.2229531646229983e-01  1.2851371145710238e+00  7.5393304599369493e-01  1.2245901441587113e+00  7.7090798863589483e-01  1.2143924109469628e+00  7.8637964585860642e-01  1.2125549579457826e+00  7.9033438037277060e-01  1.2097601449457784e+00  7.9267726656325899e-01  1.2076950637817223e+00  7.9415884260521796e-01  1.2062430410807246e+00  7.9511984298357630e-01  1.2052425510686040e+00  7.9577693924481008e-01  1.2045455612293232e+00  7.9628196599987078e-01  1.2040178228595784e+00  7.9676607590655402e-01  1.2035155347771538e+00  7.9738431313584057e-01  1.2028347474658405e+00  7.9837801414780429e-01  1.2016097474263003e+00  8.0018298955728540e-01  1.1991012497459361e+00  8.0363419913129341e-01  1.1937401186026961e+00  8.1036651825640371e-01  1.1821408658145025e+00  8.2366813455348531e-01  1.1572336983069276e+00  8.5094095123099889e-01  1.1080302059977818e+00  9.1691467183012199e-01  1.0627024390279016e+00  9.5294487846566411e-01  1.0244795055631681e+00  9.7747612918973936e-01  1.0035137990119820e+00  9.9099680389097800e-01  9.9637855584450408e-01  1.0007530780164897e+00  9.9371871527237254e-01  1.0140094308002783e+00  9.9739789811603996e-01  1.0327149884378688e+00  9.9178339696241391e-01  1.0563644578918960e+00  1.0192995972186594e+00  1.2638021368049339e+00  8.9004950450007347e-01  9.4234849994876990e-01  9.7023275115527419e-01  9.8877598893852980e-01  9.9673708156632701e-01  9.9992478475503888e-01  1.0009770209203266e+00  1.0011494932983309e+00  1.0010052218010008e+00  1.0007825109765560e+00  1.0005727543340375e+00  1.0004036888686811e+00  1.0002774215357453e+00  1.0001872504346534e+00  1.0001247137576910e+00  1.0000822173386168e+00  1.0000537670848184e+00  1.0000349324829259e+00  1.0000225684408306e+00  1.0000145165106580e+00  1.0000092562639060e+00  1.0000060144656746e+00  1.0000032533536227e+00  1.0000045216956983e+00  0.0000000000000000e+00  -1.8718456588260844e-02  -1.0170786468761076e-01  6.5390459873956863e-02  6.2680359555630039e-01  9.0464421032066822e-01  9.6998948680698849e-01  9.2654627016738556e-01  9.4138477283789423e-01  3.0983931326267594e-01  1.3932612946336473e-01  8.3861381025223974e-02  4.7691002564320538e-02  3.4964064860440375e-02  1.4034320319528724e-02  2.2501029044358217e-02  -7.6295680540582446e-03  1.9477362323161086e-02  9.6133647602613080e-03  -2.1335397013961227e-02  2.4761643258368164e-02  -1.7314934031825980e-02  1.4272945208874021e-02  -1.9305538906633935e-02  2.9423358784475172e-02  -1.4123861382825231e-02  3.8559119070428576e-03  -4.4683149608657335e-03  1.4987416292653740e-02  -1.5482562008546322e-02  2.4050976014343077e-02  -2.1245402223992838e-02  3.5523612539545460e-02  -2.9353495557297830e-02  4.2371891010484053e-02  -1.9150178042178990e-02  3.3346019141446734e-02  -1.1585476150411875e-02  5.3706039968867351e-02  -2.8465724064238928e-02  7.2929386088131254e-01  2.9999193462283552e-01  8.1564430800371557e-01  3.1073418526825852e-01  8.1062332362002620e-01  3.0946705362267707e-01  8.0571130452149609e-01  3.1122092998629225e-01  8.0294599424192781e-01  3.1575703968773816e-01  8.0460081433943498e-01  3.2584305067298752e-01  8.1531472412154582e-01  3.4762325544681116e-01  7.4344802651264097e-01  3.1080467132580036e-01  7.6551774322247168e-01  3.3254742212519345e-01  8.1606236653300435e-01  1.0606728162946040e+00  9.9265359325470615e-01  1.0290896772694504e+00  9.8530563910732805e-01  9.8226550240588972e-01  1.0527339193314142e+00  1.0133538558302699e+00  9.2104761776708266e-01  9.4328215796015413e-01  9.1311184235955689e-01  1.0407790600976894e+00  1.0376486897226158e+00  9.4571158819260370e-01  8.3977399712177536e-01  2.6730465498255651e-01  6.4648574494898789e-02  6.7167783536822748e-02  1.4566647823936857e-01  -6.6636051753742820e-02  1.9468644947255856e-01  -2.5072895113773169e-01  1.6292415764934759e-01  -2.6292020929945803e-01  2.2633848061486470e-01  -2.5967824876680978e-01  2.4392084050065893e-01  -2.4316850308916479e-01  2.4599377266617720e-01  -2.3180512126101915e-01  2.4625226848858089e-01  -2.2389667189962037e-01  2.4330774391855672e-01  -2.1585819029903458e-01  2.3833004008171976e-01  -1.9934545632861247e-01  2.3169047331880316e-01  -1.5586806775404088e-01  1.9954175532906662e-01  -1.5021255892399987e-01  1.8422151342577758e-01  -1.5821054835833315e-01  1.7679659924726937e-01  -1.6231196739141776e-01  1.7274206866705330e-01  -1.6435445862148926e-01  1.7051195962643861e-01  -1.6535699952442739e-01  1.6927458548722268e-01  -1.6581260399832015e-01  1.6859755015757999e-01  -1.6593518878364008e-01  1.6825491423272179e-01  -1.6578923236413012e-01  1.6811586488388577e-01  -1.6534162069030017e-01  1.6807197985697539e-01  -1.6446410222121940e-01  1.6796228899289575e-01  -1.6289602980782369e-01  1.6744551661510931e-01  -1.6016136823687294e-01  1.6572680129678885e-01  -1.5542231225135117e-01  1.6093372619761831e-01  -1.4725299141330750e-01  1.4866114928398033e-01  -1.3336812130007325e-01  1.1874860391408698e-01  -1.1064566206710173e-01  4.9702386761842875e-02  -7.5825112611119308e-02  2.1469760472566667e-02  -3.8791284097601832e-02  3.8292175243439890e-04  -2.4177008993228340e-02  -1.5476933466441068e-02  -2.1612885514079732e-02  -2.3414198815919600e-02  -1.5637509427653275e-02  -2.2584764365897965e-02  4.6804928807826539e-03  3.6434124361756294e-03  4.5570254330766315e-02  2.0179115754641274e-02  8.9568225989513320e-02  4.7683566666855311e-03  2.2326498777226145e-01  4.2989610729942146e-01  6.4189912277469707e-01  7.7872423702797200e-01  8.6203694017516808e-01  9.1354198327884184e-01  9.4565853412020495e-01  9.6578558107681434e-01  9.7843541380974997e-01  9.8639956258739470e-01  9.9141900237826996e-01  9.9458462773067835e-01  9.9658193071393986e-01  9.9784242115226485e-01  9.9863803054309941e-01  9.9914025266796025e-01  9.9945728535436285e-01  9.9965741500539373e-01  9.9978374531627212e-01  9.9986347925664565e-01  9.9991381708526117e-01  9.9994553172957834e-01  9.9996560760756759e-01  9.9997832650830998e-01  0.0000000000000000e+00  5.9883034908979305e-04  -1.5844429868263805e-02  1.7261832930671700e-01  5.8496350074629416e-02  6.2638638241666808e-02  5.3131937478688017e-02  7.2330146982732199e-02  2.1984394261635933e-02  -4.0531495336526224e-02  -3.6815737224765908e-02  -2.7519873173367942e-02  -1.4471987794084706e-02  -1.4661576502971851e-02  -2.0734723724384202e-03  -1.4071248877811780e-02  1.1895912780272263e-02  -2.0980599727920546e-02  8.7585195254608885e-04  2.4173093603351063e-02  -2.6124957309994697e-02  2.2451183369768361e-02  -1.4618913631985688e-02  1.7122164712692130e-02  -3.1183018006989437e-02  2.3843002725781146e-02  -1.7984585909633975e-03  5.3875024363734571e-03  -1.1333063446024470e-02  1.9379841806552747e-02  -2.0670291522610983e-02  2.5903377285603484e-02  -3.0401061321598540e-02  3.7283981880286095e-02  -3.8828730052586476e-02  3.2556218524927433e-02  -2.7277155046718043e-02  1.8949663500193992e-02  -3.6146038435219720e-02  4.6199832656144982e-02  -1.0319599749768520e-01  -3.4046718546752064e-02  -8.4761373538808790e-02  -1.5039039982162637e-02  -7.2850754734429271e-02  -7.4663787842182442e-03  -6.7548772550779429e-02  -6.8000108300986959e-03  -6.4344972768849817e-02  -8.3288314097366232e-03  -6.1079371438252476e-02  -7.1272447546813899e-03  -5.1344807124594070e-02  8.0020652279641676e-03  -6.1631228913399758e-03  3.1593527512629754e-02  -2.8012905236779181e-02  1.2269313294917641e-02  -1.0111338821270332e-02  -3.7701393997293484e-02  4.2057284429851925e-03  -2.1757723652474928e-02  1.4872015809358832e-02  6.8322826411306888e-03  -3.7085665789389148e-02  2.7394763859080115e-02  7.6730272505598496e-02  2.7739376684111750e-02  1.4765069271239857e-02  -6.9428420312891898e-02  -6.6437971161343784e-02  -3.8454045558057592e-02  -4.1964479797910827e-02  -8.2975742946588341e-02  -6.3627447012290419e-03  -5.9006196262090534e-02  -1.3048493118814977e-01  7.1790204369501204e-02  -2.1287426201934656e-01  2.4386556192710998e-01  -1.8728732008807958e-01  2.4300948688820490e-01  -2.6503809966529229e-01  2.3608879785889089e-01  -2.8068587604170520e-01  2.2623375968974443e-01  -2.7384345282401834e-01  2.2470347525217255e-01  -2.6576612172398167e-01  2.2484892037642659e-01  -2.5818202779716337e-01  2.2093242444257302e-01  -2.5243027125593454e-01  2.0651983991787617e-01  -2.4361061583863292e-01  1.7464870337888613e-01  -1.9744366674309474e-01  1.6867377278152251e-01  -1.8011134625940398e-01  1.7903745199933999e-01  -1.7234865224992146e-01  1.8282150457113458e-01  -1.6951180864946047e-01  1.8362530777224301e-01  -1.6879204664565106e-01  1.8334914671527519e-01  -1.6882420716673047e-01  1.8283721580137241e-01  -1.6898485098478430e-01  1.8242878130712836e-01  -1.6898550522367675e-01  1.8224194854632125e-01  -1.6865445301374421e-01  1.8230323680131510e-01  -1.6780956143702500e-01  1.8259058882259069e-01  -1.6615515416289822e-01  1.8301534228286717e-01  -1.6314677101536437e-01  1.8333170544363384e-01  -1.5775151262629986e-01  1.8291503933060488e-01  -1.4797333562182588e-01  1.8026635325184562e-01  -1.2987808857419431e-01  1.7191585504257792e-01  -9.5771646089676754e-02  1.4996086330883182e-01  -3.2469356944093059e-02  9.5819004974406749e-02  -1.6668764511244886e-02  4.4241129513329119e-02  -3.0763220501972949e-03  2.0033726641686317e-02  5.6506069893421289e-03  7.6898981420428425e-03  3.9762942149778359e-03  -8.2173753975142635e-03  -4.7396826922352434e-03  -3.3103951198810391e-02  -2.7524570089274669e-02  -5.9900578251372100e-02  -2.1863021992206400e-02  -7.3368617710509967e-02  3.1252500345834919e-02  -7.2707643943425701e-02  1.2229694205301024e-01  4.4273231737814789e-01  6.5435997784725863e-01  7.8528846492446114e-01  8.6628278362396960e-01  9.1647407312330442e-01  9.4768098771990150e-01  9.6715082085213899e-01  9.7933534367556585e-01  9.8698029019851885e-01  9.9178699187740738e-01  9.9481418718465076e-01  9.9672316107993586e-01  9.9792820545797134e-01  9.9868949761667092e-01  9.9917074707051912e-01  9.9947511369649145e-01  9.9966768131582751e-01  9.9978955102003852e-01  9.9986668371749865e-01  9.9991551471263462e-01  9.9994647340168241e-01  9.9996586272103871e-01  0.0000000000000000e+00  -4.8976261916638302e-03  3.6126883226065318e-02  -8.7536371899769372e-02  -5.6124367526622339e-03  -9.8542672295986282e-03  -7.2501782770450522e-03  -3.8760940937574005e-02  -4.0691541346839027e-02  -1.1046558230089222e-02  1.1509585874636629e-03  6.0152480525992964e-03  1.8542723560507231e-03  6.8362668556645528e-03  -1.9677524676806764e-03  9.2235928697984478e-03  -1.3333807011321150e-02  2.4587327428788792e-02  -1.9254510249147778e-02  -2.5292933068339692e-02  3.0434058953882764e-02  -2.9528246815583199e-02  1.8119749457688239e-02  -1.1654878166211668e-02  3.2658283570763003e-02  -4.0320908155395595e-02  2.9199263171465970e-03  -2.0129324670730146e-03  1.0028902972193788e-02  -1.9476782185346746e-02  2.2081799401580386e-02  -2.5229573532103009e-02  3.0840257427129605e-02  -3.8866269898876135e-02  4.4251096030778321e-02  -4.2227966131857544e-02  3.1083704614273320e-02  -2.2407754294733767e-02  2.4516612123303937e-02  -4.5651686573023043e-02  5.9358944668999505e-02  -2.0307973265342523e-03  3.9472871614697133e-02  -1.7036494991786343e-02  2.9729704821583432e-02  -2.3999042187221504e-02  2.2804761646514394e-02  -2.7713353639181135e-02  1.5084832243308822e-02  -3.2201507162493453e-02  4.5687940380852018e-03  -4.3559543615150305e-02  -1.4884929041616849e-02  -7.2429989319509822e-02  -7.6530458747728389e-02  -6.4346641214187261e-02  1.9040173667003307e-02  3.3188272933785200e-02  6.4981685517064625e-02  6.7330665665049888e-02  9.6730808006001163e-03  3.0027352925241248e-02  -2.0283613366585723e-02  -4.2877196028745374e-03  2.8863780717398351e-02  -6.1340168227569193e-02  -1.1047499877854540e-01  -3.3041959605079441e-02  2.1416008718340197e-02  1.1085234809167567e-01  6.8879790459118559e-02  1.8312196939672350e-02  -4.9925241881024198e-03  5.4164833444645122e-02  6.2824134126119535e-02  1.5303972539840410e-01  1.3544267204279622e-01  -6.3370679825071247e-02  2.5745319723705434e-01  -2.1644311022024357e-01  2.3030073588585859e-01  -2.3770603465605819e-01  2.8204355362031186e-01  -2.7738768795355717e-01  2.4472298627352143e-01  -3.2668961727811285e-01  1.8287934359296990e-01  -3.7416817440468847e-01  1.3491702677327422e-01  -4.0786241054884559e-01  1.0194889373801438e-01  -4.2733945777963711e-01  7.6652096327373687e-02  -4.3723555930295482e-01  4.1986450294002900e-02  -4.4472328953290113e-01  -5.1778453121842483e-02  -4.0026774037536772e-01  1.0246705170094654e-02  -3.5138561881506686e-01  4.8616914279071548e-02  -3.2018369922621526e-01  7.3272808457137559e-02  -2.9983677132051045e-01  8.9433718423370070e-02  -2.8639015574588023e-01  1.0014266900440209e-01  -2.7741954328601176e-01  1.0729219361795780e-01  -2.7135675676267446e-01  1.1210649622811693e-01  -2.6713759789715158e-01  1.1539223469612815e-01  -2.6398814275078591e-01  1.1767655957180140e-01  -2.6126277160157613e-01  1.1927943317097002e-01  -2.5827445071771443e-01  1.2033520717115768e-01  -2.5404360189694242e-01  1.2076144156799436e-01  -2.4682722562196185e-01  1.2016480110373189e-01  -2.3312423622399794e-01  1.1769533450933783e-01  -2.0543260419240075e-01  1.1212768006549211e-01  -1.4697162690906798e-01  1.0444994994731253e-01  -1.7957549569459420e-02  1.3832592001008290e-01  8.6788847810030378e-02  1.6105542323957697e-01  1.5069745809862872e-01  1.8690377130093352e-01  2.0343535236631696e-01  2.2930907965006414e-01  2.6197450917624032e-01  2.7815291668327319e-01  3.2193874992066340e-01  2.7301579743425047e-01  2.5847883661177634e-01  2.0382816401670817e-01  2.0346588390986578e-01  6.4086584150156625e-02  1.9259041663444029e-01  3.5421617908826575e-01  5.6653222447806861e-01  7.2667276354981369e-01  8.3020695001689637e-01  8.9480888611131082e-01  9.3472370449904518e-01  9.5937084564109065e-01  9.7463210802065481e-01  9.8411629556393476e-01  9.9003130798498218e-01  9.9373177636866150e-01  9.9605272348186280e-01  9.9751139856278337e-01  9.9842961629144877e-01  9.9900834291966123e-01  9.9937344717432774e-01  9.9960395387251288e-01  9.9974956393775449e-01  9.9984158309008031e-01  9.9989975169067769e-01  9.9993653800433757e-01  9.9995971159405328e-01  9.9997448626665375e-01  0.0000000000000000e+00  9.2727227261394096e-03  -3.4167997598002507e-02  4.8374927856232652e-02  -7.6701182169940357e-03  -5.7639295128191848e-03  -1.5355211691741966e-02  1.3029557046730731e-03  1.5235566664014563e-02  8.7940559084572299e-03  4.2278844551356647e-03  -1.0860582207321984e-03  1.6281263961409307e-03  -3.0243085024463799e-03  5.3187982042462723e-03  -1.8295688193289601e-03  1.6985009040060901e-02  -2.3526802090837552e-02  5.0951642473285638e-02  2.3069880448404537e-02  -3.7062270398733894e-02  4.0222660676172417e-02  -2.4764497846924843e-02  6.1190457193017449e-03  -2.7048453327861970e-02  6.7660807574681806e-02  -9.0214214279538164e-03  -5.6757916720284072e-03  -1.0325995143562430e-02  1.5787037754716141e-02  -2.8524130807863510e-02  1.9646088118441003e-02  -3.5485967906270059e-02  3.5624815214174245e-02  -5.4801640087656318e-02  5.0809429975555077e-02  -4.4278016007904812e-02  2.4369011549590369e-02  -2.1933884404282560e-02  3.4878652269481301e-02  -4.0969459042652326e-02  8.6256788495903819e-03  -2.8510017309636308e-02  1.3788491616622009e-02  -2.6421759987280372e-02  1.2950716966466774e-02  -2.6641298951286013e-02  8.0973881784047672e-03  -2.8700999740442160e-02  -8.0296480435267320e-04  -3.5280005762612768e-02  -1.3723015321821031e-02  -5.2133579358366204e-02  -3.8368692133203250e-02  -9.3568357740472605e-02  -5.7627548380201538e-02  6.5628690333235833e-03  -1.9078173113214990e-02  1.0134374123009814e-01  8.6208985344427575e-03  2.7715143663822873e-02  -3.1287429787660914e-02  -2.3608969958833835e-03  -6.4287043949676770e-02  -1.2008148398029987e-01  -2.5271809366554265e-02  -6.5992595345844715e-02  -4.5017690665119015e-02  -5.2752270530399339e-02  4.3045267716490275e-02  -5.4696557618240263e-04  5.9564522757295383e-03  9.0129262156372035e-03  -8.5816327404166587e-02  -1.9278752526349385e-01  -4.2845026705225130e-02  -1.3725605681917986e-02  1.3063491127450000e-01  -2.3475231553923911e-01  5.7381232744682864e-01  6.3031900609197555e-02  8.6911412708709923e-01  3.1480562282123613e-02  9.8109635506879034e-01  1.5181269020834245e-03  9.1990584265619690e-01  -1.1788036430307477e-02  8.6748605111189014e-01  -2.1550927636835145e-02  8.3702901658101136e-01  -2.8980806556414464e-02  8.2476556959618386e-01  -3.0840356994865717e-02  8.2436830758693180e-01  -3.1686441756248337e-02  8.1298947322044912e-01  -1.4409462036015996e-01  1.0768082843881082e+00  -1.2081727545912180e-01  1.0792217146324610e+00  -1.2558186745246688e-01  1.0733432023547422e+00  -1.3113042227678445e-01  1.0679060302746162e+00  -1.3559653327893362e-01  1.0637464353342310e+00  -1.3884613790089428e-01  1.0607632393929787e+00  -1.4107940329564755e-01  1.0586825213000188e+00  -1.4252691811183835e-01  1.0572331413815170e+00  -1.4335455241900474e-01  1.0561807138100805e+00  -1.4362413843262578e-01  1.0553106712789924e+00  -1.4324919190299509e-01  1.0543808048230898e+00  -1.4190236599012640e-01  1.0530303430970351e+00  -1.3881878721092825e-01  1.0505897925309364e+00  -1.3241434145006942e-01  1.0456125048063587e+00  -1.1965128844467869e-01  1.0344984345842332e+00  -9.5622783127188957e-02  1.0064685509452722e+00  -5.6874426071471723e-02  9.3802067685817325e-01  4.2410189136870796e-01  1.0639577895393915e+00  8.1781670008858653e-01  1.0675763496233763e+00  9.4242684590960879e-01  1.0098467092409791e+00  9.5595065627526388e-01  9.6675580422037932e-01  9.6503850230733434e-01  9.5648388943058116e-01  1.1455699716389967e+00  1.09937