<?xml version="1.0"?>
<VTKFile type="UnstructuredGrid"  version="0.1"  >
<UnstructuredGrid>
<Piece  NumberOfPoints="21400" NumberOfCells="42336">
<Points>
<DataArray  type="Float64"  NumberOfComponents="3"  format="ascii">0 0 0  0.004583333333333333 0 0  0.009166666666666667 0 0  0.01375 0 0  0.01833333333333333 0 0  0.02291666666666667 0 0  0.0275 0 0  0.03208333333333334 0 0  0.03666666666666667 0 0  0.04125 0 0  0.04583333333333334 0 0  0.05041666666666667 0 0  0.055 0 0  0.05958333333333334 0 0  0.06416666666666668 0 0  0.06875000000000001 0 0  0.07333333333333333 0 0  0.07791666666666666 0 0  0.08249999999999999 0 0  0.08708333333333333 0 0  0.09166666666666667 0 0  0.09625000000000002 0 0  0.1008333333333333 0 0  0.1054166666666667 0 0  0.11 0 0  0.1145833333333333 0 0  0.1191666666666667 0 0  0.12375 0 0  0.1283333333333334 0 0  0.1329166666666667 0 0  0.1375 0 0  0.1420833333333333 0 0  0.1466666666666667 0 0  0.15125 0 0  0.1558333333333333 0 0  0.1604166666666667 0 0  0.165 0 0  0.1695833333333333 0 0  0.1741666666666667 0 0  0.17875 0 0  0.1833333333333333 0 0  0.1879166666666667 0 0  0.1925 0 0  0.1970833333333333 0 0  0.2016666666666667 0 0  0.20625 0 0  0.2108333333333333 0 0  0.2154166666666666 0 0  0.22 0 0  0.2245833333333334 0 0  0.2291666666666667 0 0  0.23375 0 0  0.2383333333333333 0 0  0.2429166666666667 0 0  0.2475 0 0  0.2520833333333333 0 0  0.2566666666666667 0 0  0.26125 0 0  0.2658333333333334 0 0  0.2704166666666666 0 0  0.275 0 0  0.2795833333333334 0 0  0.2841666666666667 0 0  0.28875 0 0  0.2933333333333333 0 0  0.2979166666666667 0 0  0.3025 0 0  0.3070833333333334 0 0  0.3116666666666666 0 0  0.31625 0 0  0.3208333333333333 0 0  0.3254166666666667 0 0  0.33 0 0  0.3345833333333333 0 0  0.3391666666666667 0 0  0.34375 0 0  0.3483333333333333 0 0  0.3529166666666667 0 0  0.3575 0 0  0.3620833333333333 0 0  0.3666666666666667 0 0  0.37125 0 0  0.3758333333333334 0 0  0.3804166666666667 0 0  0.3850000000000001 0 0  0.3895833333333333 0 0  0.3941666666666667 0 0  0.39875 0 0  0.4033333333333334 0 0  0.4079166666666666 0 0  0.4125 0 0  0.4170833333333334 0 0  0.4216666666666667 0 0  0.42625 0 0  0.4308333333333333 0 0  0.4354166666666667 0 0  0.44 0 0  0.4445833333333333 0 0  0.4491666666666667 0 0  0.45375 0 0  0.4583333333333333 0 0  0.4629166666666666 0 0  0.4675 0 0  0.4720833333333334 0 0  0.4766666666666667 0 0  0.4812500000000001 0 0  0.4858333333333333 0 0  0.4904166666666667 0 0  0.495 0 0  0.4995833333333334 0 0  0.5041666666666667 0 0  0.50875 0 0  0.5133333333333334 0 0  0.5179166666666667 0 0  0.5225 0 0  0.5270833333333333 0 0  0.5316666666666667 0 0  0.53625 0 0  0.5408333333333333 0 0  0.5454166666666667 0 0  0.55 0 0  0.5545833333333333 0 0  0.5591666666666667 0 0  0.5637500000000001 0 0  0.5683333333333334 0 0  0.5729166666666666 0 0  0.5775 0 0  0.5820833333333334 0 0  0.5866666666666667 0 0  0.5912499999999999 0 0  0.5958333333333334 0 0  0.6004166666666667 0 0  0.605 0 0  0.6095833333333334 0 0  0.6141666666666667 0 0  0.61875 0 0  0.6233333333333333 0 0  0.6279166666666667 0 0  0.6325000000000001 0 0  0.6370833333333333 0 0  0.6416666666666666 0 0  0.64625 0 0  0.6508333333333334 0 0  0.6554166666666666 0 0  0.6599999999999999 0 0  0.6645833333333334 0 0  0.6691666666666667 0 0  0.67375 0 0  0.6783333333333333 0 0  0.6829166666666667 0 0  0.6875 0 0  0.6920833333333333 0 0  0.6966666666666667 0 0  0.70125 0 0  0.7058333333333333 0 0  0.7104166666666667 0 0  0.7150000000000001 0 0  0.7195833333333334 0 0  0.7241666666666666 0 0  0.72875 0 0  0.7333333333333334 0 0  0.7379166666666667 0 0  0.7425 0 0  0.7470833333333333 0 0  0.7516666666666667 0 0  0.75625 0 0  0.7608333333333334 0 0  0.7654166666666666 0 0  0.7700000000000001 0 0  0 0.002380952380952381 0  0.004583333333333333 0.002380952380952381 0  0.009166666666666667 0.002380952380952381 0  0.01375 0.002380952380952381 0  0.01833333333333333 0.002380952380952381 0  0.02291666666666667 0.002380952380952381 0  0.0275 0.002380952380952381 0  0.03208333333333334 0.002380952380952381 0  0.03666666666666667 0.002380952380952381 0  0.04125 0.002380952380952381 0  0.04583333333333334 0.002380952380952381 0  0.05041666666666667 0.002380952380952381 0  0.055 0.002380952380952381 0  0.05958333333333334 0.002380952380952381 0  0.06416666666666668 0.002380952380952381 0  0.06875000000000001 0.002380952380952381 0  0.07333333333333333 0.002380952380952381 0  0.07791666666666666 0.002380952380952381 0  0.08249999999999999 0.002380952380952381 0  0.08708333333333333 0.002380952380952381 0  0.09166666666666667 0.002380952380952381 0  0.09625000000000002 0.002380952380952381 0  0.1008333333333333 0.002380952380952381 0  0.1054166666666667 0.002380952380952381 0  0.11 0.002380952380952381 0  0.1145833333333333 0.002380952380952381 0  0.1191666666666667 0.002380952380952381 0  0.12375 0.002380952380952381 0  0.1283333333333334 0.002380952380952381 0  0.1329166666666667 0.002380952380952381 0  0.1375 0.002380952380952381 0  0.1420833333333333 0.002380952380952381 0  0.1466666666666667 0.002380952380952381 0  0.15125 0.002380952380952381 0  0.1558333333333333 0.002380952380952381 0  0.1604166666666667 0.002380952380952381 0  0.165 0.002380952380952381 0  0.1695833333333333 0.002380952380952381 0  0.1741666666666667 0.002380952380952381 0  0.17875 0.002380952380952381 0  0.1833333333333333 0.002380952380952381 0  0.1879166666666667 0.002380952380952381 0  0.1925 0.002380952380952381 0  0.1970833333333333 0.002380952380952381 0  0.2016666666666667 0.002380952380952381 0  0.20625 0.002380952380952381 0  0.2108333333333333 0.002380952380952381 0  0.2154166666666666 0.002380952380952381 0  0.22 0.002380952380952381 0  0.2245833333333334 0.002380952380952381 0  0.2291666666666667 0.002380952380952381 0  0.23375 0.002380952380952381 0  0.2383333333333333 0.002380952380952381 0  0.2429166666666667 0.002380952380952381 0  0.2475 0.002380952380952381 0  0.2520833333333333 0.002380952380952381 0  0.2566666666666667 0.002380952380952381 0  0.26125 0.002380952380952381 0  0.2658333333333334 0.002380952380952381 0  0.2704166666666666 0.002380952380952381 0  0.275 0.002380952380952381 0  0.2795833333333334 0.002380952380952381 0  0.2841666666666667 0.002380952380952381 0  0.28875 0.002380952380952381 0  0.2933333333333333 0.002380952380952381 0  0.2979166666666667 0.002380952380952381 0  0.3025 0.002380952380952381 0  0.3070833333333334 0.002380952380952381 0  0.3116666666666666 0.002380952380952381 0  0.31625 0.002380952380952381 0  0.3208333333333333 0.002380952380952381 0  0.3254166666666667 0.002380952380952381 0  0.33 0.002380952380952381 0  0.3345833333333333 0.002380952380952381 0  0.3391666666666667 0.002380952380952381 0  0.34375 0.002380952380952381 0  0.3483333333333333 0.002380952380952381 0  0.3529166666666667 0.002380952380952381 0  0.3575 0.002380952380952381 0  0.3620833333333333 0.002380952380952381 0  0.3666666666666667 0.002380952380952381 0  0.37125 0.002380952380952381 0  0.3758333333333334 0.002380952380952381 0  0.3804166666666667 0.002380952380952381 0  0.3850000000000001 0.002380952380952381 0  0.3895833333333333 0.002380952380952381 0  0.3941666666666667 0.002380952380952381 0  0.39875 0.002380952380952381 0  0.4033333333333334 0.002380952380952381 0  0.4079166666666666 0.002380952380952381 0  0.4125 0.002380952380952381 0  0.4170833333333334 0.002380952380952381 0  0.4216666666666667 0.002380952380952381 0  0.42625 0.002380952380952381 0  0.4308333333333333 0.002380952380952381 0  0.4354166666666667 0.002380952380952381 0  0.44 0.002380952380952381 0  0.4445833333333333 0.002380952380952381 0  0.4491666666666667 0.002380952380952381 0  0.45375 0.002380952380952381 0  0.4583333333333333 0.002380952380952381 0  0.4629166666666666 0.002380952380952381 0  0.4675 0.002380952380952381 0  0.4720833333333334 0.002380952380952381 0  0.4766666666666667 0.002380952380952381 0  0.4812500000000001 0.002380952380952381 0  0.4858333333333333 0.002380952380952381 0  0.4904166666666667 0.002380952380952381 0  0.495 0.002380952380952381 0  0.4995833333333334 0.002380952380952381 0  0.5041666666666667 0.002380952380952381 0  0.50875 0.002380952380952381 0  0.5133333333333334 0.002380952380952381 0  0.5179166666666667 0.002380952380952381 0  0.5225 0.002380952380952381 0  0.5270833333333333 0.002380952380952381 0  0.5316666666666667 0.002380952380952381 0  0.53625 0.002380952380952381 0  0.5408333333333333 0.002380952380952381 0  0.5454166666666667 0.002380952380952381 0  0.55 0.002380952380952381 0  0.5545833333333333 0.002380952380952381 0  0.5591666666666667 0.002380952380952381 0  0.5637500000000001 0.002380952380952381 0  0.5683333333333334 0.002380952380952381 0  0.5729166666666666 0.002380952380952381 0  0.5775 0.002380952380952381 0  0.5820833333333334 0.002380952380952381 0  0.5866666666666667 0.002380952380952381 0  0.5912499999999999 0.002380952380952381 0  0.5958333333333334 0.002380952380952381 0  0.6004166666666667 0.002380952380952381 0  0.605 0.002380952380952381 0  0.6095833333333334 0.002380952380952381 0  0.6141666666666667 0.002380952380952381 0  0.61875 0.002380952380952381 0  0.6233333333333333 0.002380952380952381 0  0.6279166666666667 0.002380952380952381 0  0.6325000000000001 0.002380952380952381 0  0.6370833333333333 0.002380952380952381 0  0.6416666666666666 0.002380952380952381 0  0.64625 0.002380952380952381 0  0.6508333333333334 0.002380952380952381 0  0.6554166666666666 0.002380952380952381 0  0.6599999999999999 0.002380952380952381 0  0.6645833333333334 0.002380952380952381 0  0.6691666666666667 0.002380952380952381 0  0.67375 0.002380952380952381 0  0.6783333333333333 0.002380952380952381 0  0.6829166666666667 0.002380952380952381 0  0.6875 0.002380952380952381 0  0.6920833333333333 0.002380952380952381 0  0.6966666666666667 0.002380952380952381 0  0.70125 0.002380952380952381 0  0.7058333333333333 0.002380952380952381 0  0.7104166666666667 0.002380952380952381 0  0.7150000000000001 0.002380952380952381 
[...]
<PointData  Scalars="concentration"> 
<DataArray  type="Float64"  Name="concentration"  format="ascii">0.0000000000000000e+00  8.0096232013821059e-02  2.3034546581151674e-01  1.7610355892689539e-01  -2.3238617672121667e-02  -1.3067046705656474e-01  -1.7180248307250506e-01  -1.8850699214869351e-01  -1.7735181612496692e-01  -7.9892357433140368e-02  1.1119610374297095e-02  6.9566874655609375e-03  7.4970963037852582e-03  -1.3479979000282998e-03  7.0255593481078392e-03  -9.9088378061543709e-03  1.6339489629742514e-02  -1.2985630919509413e-02  -8.0713026898043307e-03  2.3869874608839204e-02  -2.2693925825991442e-02  1.8353842124186434e-02  -1.2679845068625814e-02  2.2504671410278121e-02  -2.6720066888483083e-02  1.5215341960803144e-02  -9.0076112710505091e-04  8.9253520216641142e-03  -1.0438315359647286e-02  2.2080453727483032e-02  -1.6378478649006351e-02  3.2068357835437794e-02  -2.3050870948320978e-02  4.6674397538906988e-02  -1.9949096353835336e-02  4.7673981872438716e-02  6.0374186308974837e-03  6.6887758434674260e-02  2.5134478428260575e-02  6.6091167109442150e-01  8.8330800659662356e-01  1.0960912615273155e+00  8.7655921818986937e-01  1.0801720118039178e+00  8.8286546763224272e-01  1.0770100932791766e+00  8.8606920603070805e-01  1.0753817844793883e+00  8.8828801252419987e-01  1.0751915656952971e+00  8.9061951531086347e-01  1.0759540259938973e+00  8.9255586912052487e-01  1.0456849310225396e+00  8.8932860452097429e-01  1.0878715937153001e+00  8.7627742002318121e-01  1.1092384778513869e+00  1.0264102379969744e+00  9.7676320966940477e-01  1.0119905658893309e+00  9.8473831905502607e-01  1.0042000748821032e+00  1.0137175241886749e+00  9.9695624167805619e-01  9.6086536796657451e-01  1.0198860488292423e+00  9.7572767728834731e-01  1.0637595690230808e+00  9.7088175037530000e-01  9.9094583685662418e-01  9.2055616451391642e-01  8.6494187609683781e-01  9.0625255154447482e-01  1.0482701639916983e+00  9.6971287131391382e-01  9.6219090329454915e-01  1.0330904576688098e+00  8.9966672521843316e-01  1.1566394783122829e+00  7.8661597576592190e-01  1.1388030773970255e+00  8.3265614324178849e-01  1.1994022367760813e+00  7.5229312088663802e-01  1.3140304548011286e+00  6.6192092606456898e-01  1.3441443218618288e+00  6.5630837858269997e-01  1.3310094604139615e+00  6.7912714900106275e-01  1.3199976404335918e+00  6.9708948785133029e-01  1.3085733551759084e+00  7.1813886160236262e-01  1.2901714746533886e+00  7.4950278541858040e-01  1.2281000239301578e+00  7.6824874895981221e-01  1.2168800389319163e+00  7.8446535489052538e-01  1.2143282908775337e+00  7.8905996845224957e-01  1.2109935996341605e+00  7.9184129487779664e-01  1.2085360547454407e+00  7.9360070670926086e-01  1.2068087990720140e+00  7.9471957164000928e-01  1.2056278631704109e+00  7.9543977119809672e-01  1.2048349810364518e+00  7.9591462102929267e-01  1.2043069212343103e+00  7.9624440534912844e-01  1.2039505618011701e+00  7.9650158473659260e-01  1.2036913612535431e+00  7.9675079572590479e-01  1.2034565000971693e+00  7.9707000719595267e-01  1.2031482837627276e+00  7.9758133864782632e-01  1.2025954316842586e+00  7.9850542906622179e-01  1.2014546314971792e+00  8.0026491793909915e-01  1.1990016831205299e+00  8.0368632442670263e-01  1.1936775377276978e+00  8.1039911883698801e-01  1.1821034903635024e+00  8.2368803246341493e-01  1.1572143480436550e+00  8.5095236925209927e-01  1.1080236200126738e+00  9.1691472440277733e-01  1.0626975801886311e+00  9.5294838473904020e-01  1.0244781050426859e+00  9.7747783372937413e-01  1.0035136918202412e+00  9.9099633310806390e-01  9.9637810986342312e-01  1.0007507528945139e+00  9.9371932512909100e-01  1.0140081726637755e+00  9.9740437335725340e-01  1.0327153806986749e+00  9.9177645563558237e-01  1.0563666391081525e+00  1.0192596830888432e+00  1.2637809783843013e+00  8.9007263605944487e-01  9.4239603379573889e-01  9.7026689447421932e-01  9.8879794283683353e-01  9.9675032511939343e-01  9.9993217147971292e-01  1.0009806771921472e+00  1.0011507860588205e+00  1.0010050007620832e+00  1.0007812858035110e+00  1.0005706610724618e+00  1.0004012567709677e+00  1.0002730597490694e+00  1.0001874577036842e+00  1.0001014520146740e+00  1.0001614045343135e+00  0.0000000000000000e+00  -1.8718466705127404e-02  -1.0170793987973187e-01  6.5390199418974948e-02  6.2680350269838403e-01  9.0464445175899022e-01  9.6998966144818510e-01  9.2654695907630191e-01  9.4138567968793163e-01  3.0983985145310244e-01  1.3932587547131811e-01  8.3861469975247793e-02  4.7690318017319273e-02  3.4964115369091310e-02  1.4033292736480093e-02  2.2501398276556991e-02  -7.6308215318526629e-03  1.9475383222332523e-02  9.6148176814228169e-03  -2.1335836052561757e-02  2.4758530921515077e-02  -1.7311542388968960e-02  1.4268335444664828e-02  -1.9308826398682009e-02  2.9416415956668739e-02  -1.4119078864497972e-02  3.8525171195524324e-03  -4.4772945312666077e-03  1.4986517485615395e-02  -1.5492476496967439e-02  2.4046589507892749e-02  -2.1263873532794540e-02  3.5526504212911862e-02  -2.9369470099910498e-02  4.2330329454912399e-02  -1.9132459812224001e-02  3.3285638240089892e-02  -1.1609603263712498e-02  5.3691552376138790e-02  -2.8614955065163355e-02  7.2952235119865361e-01  2.9991289852643599e-01  8.1585369910117578e-01  3.1054518701452122e-01  8.1090375107750656e-01  3.0917942037605139e-01  8.0610228614866886e-01  3.1079836854768877e-01  8.0348153382889764e-01  3.1511782120166543e-01  8.0526146253953645e-01  3.2509683732604211e-01  8.1584489136055227e-01  3.4722137404666015e-01  7.4445105199553530e-01  3.1058380833948873e-01  7.6596057044175891e-01  3.3266283081018194e-01  8.1518854401769825e-01  1.0621014711541545e+00  9.8985295431700671e-01  1.0312677372259520e+00  9.8164421859668438e-01  9.8913285142619489e-01  1.0344814533943214e+00  1.0392218544231862e+00  9.0960592044133903e-01  9.7551549442099283e-01  8.8430023811598280e-01  1.0776492573346375e+00  1.0013299531905280e+00  1.0000763145142828e+00  8.2285010465240915e-01  2.9977276788423124e-01  2.3510219430410789e-02  1.1329088429989172e-01  9.5458903566948430e-02  7.3387990170566391e-03  7.0401793894134951e-02  -1.4875152952415258e-01  1.6202667069593887e-01  -1.5356319202781821e-01  8.8200501528081024e-02  -1.8506041333581616e-01  1.5559814084794674e-01  -2.6298021141041067e-01  2.4202244311507257e-01  -2.7202914964669611e-01  2.5395519233211078e-01  -2.4606851080323067e-01  2.4573826086042039e-01  -2.2988934004212794e-01  2.4314547425226865e-01  -2.1867564491644079e-01  2.4025891988737524e-01  -2.0041114866157514e-01  2.3544536009255690e-01  -1.5555594419038807e-01  2.0219166436043709e-01  -1.4985897480702653e-01  1.8622839760295914e-01  -1.5785724797837883e-01  1.7810499660113749e-01  -1.6210518297393464e-01  1.7351966573778654e-01  -1.6428781381644900e-01  1.7092879449710607e-01  -1.6541384801459633e-01  1.6944255437498676e-01  -1.6600456477573983e-01  1.6857621907275583e-01  -1.6631072712036277e-01  1.6807326508390757e-01  -1.6644510804368962e-01  1.6779824660587950e-01  -1.6644998968667943e-01  1.6767825392738295e-01  -1.6632569166282060e-01  1.6767048158443110e-01  -1.6603670886569066e-01  1.6773910675685069e-01  -1.6550222384578342e-01  1.6782696026216090e-01  -1.6457013118840999e-01  1.6780212587972271e-01  -1.6296704119985753e-01  1.6734061926494237e-01  -1.6020959804571799e-01  1.6565832211978271e-01  -1.5545546933675047e-01  1.6088978218159472e-01  -1.4727572334676739e-01  1.4863467567790764e-01  -1.3338267963140918e-01  1.1873635425098190e-01  -1.1065187837822565e-01  4.9705059775671419e-02  -7.5822906112234453e-02  2.1472165854234317e-02  -3.8785062107418923e-02  3.8988824683452701e-04  -2.4168599012686399e-02  -1.5468066881833178e-02  -2.1605654341268501e-02  -2.3408090965118054e-02  -1.5636212137154992e-02  -2.2584944387352802e-02  4.6751883988102559e-03  3.6426753113143868e-03  4.5573361660706642e-02  2.0170862136138935e-02  8.9582580602604614e-02  4.7488358544591387e-03  2.2332382654664398e-01  4.2998302455570997e-01  6.4200592847643756e-01  7.7882923825715766e-01  8.6213097602857836e-01  9.1362207646608906e-01  9.4572460105747524e-01  9.6583890149779050e-01  9.7847771736665168e-01  9.8643260190794524e-01  9.9144445309056184e-01  9.9460358223425038e-01  9.9659619360028540e-01  9.9785071177549911e-01  9.9864428600024879e-01  9.9914672355208545e-01  0.0000000000000000e+00  5.9880183934391408e-04  -1.5844458901166140e-02  1.7261822993734588e-01  5.8496165162033098e-02  6.2638273674588754e-02  5.3131643006502048e-02  7.2329630304052941e-02  2.1984070232320543e-02  -4.0532085630609296e-02  -3.6815649255873752e-02  -2.7520135112247296e-02  -1.4471479969318973e-02  -1.4661875275747830e-02  -2.0727915893785096e-03  -1.4072002762843087e-02  1.1896853820763950e-02  -2.0980410541185605e-02  8.7286710040544995e-04  2.4172843681041518e-02  -2.6123786873027868e-02  2.2446919378529932e-02  -1.4614269618388086e-02  1.7122478933096458e-02  -3.1182879516091961e-02  2.3832307844599949e-02  -1.7985908441396274e-03  5.3898435215677370e-03  -1.1340037523896505e-02  1.9381885197518361e-02  -2.0675381071220331e-02  2.5909332893296784e-02  -3.0416056098104181e-02  3.7296418453076997e-02  -3.8808155765945845e-02  3.2528070674373272e-02  -2.7225771228720535e-02  1.8944956214314086e-02  -3.6146176106299152e-02  4.6221289081330150e-02  -1.0327616989837804e-01  -3.4070396121709964e-02  -8.4853678684324682e-02  -1.5056431036963653e-02  -7.3001472079246191e-02  -7.5088880833117004e-03  -6.7782416919387245e-02  -6.8714573861353937e-03  -6.4705093794481222e-02  -8.3957765001790169e-03  -6.1614424378855878e-02  -7.3362340654683786e-03  -5.1916373529182436e-02  7.2334395960334088e-03  -6.7002545484847829e-03  3.0951610929437361e-02  -2.8261845418622828e-02  1.1265663390276624e-02  -9.8642097282833907e-03  -3.9396868133012436e-02  5.0481361018936428e-03  -2.4713245687676876e-02  1.5303498249789427e-02  7.9468825393739226e-04  -3.0459382904475606e-02  5.7110565756610309e-03  8.3782003899049245e-02  1.3092833434776017e-02  4.0778668336666525e-02  -8.3290637154125075e-02  -3.1627791219420893e-02  -6.2481606068051226e-02  -1.9863051589571391e-02  -1.1808881891749751e-01  2.7847328641686840e-02  -1.1095311497441572e-01  -7.7471248407608648e-02  5.0726881642026078e-03  -6.9668250309230309e-02  1.3221141497533026e-01  -2.0162300340914260e-01  1.3680568872397264e-01  -1.1233623986893229e-01  1.6142984430062388e-01  -1.9040534712420681e-01  2.2983704143575454e-01  -2.9759662998436920e-01  2.3441214158724780e-01  -3.0670538046402046e-01  2.1685803916884208e-01  -2.8589273680399757e-01  2.1287098733990995e-01  -2.7266322311811547e-01  2.1149761248283919e-01  -2.6349168601045925e-01  2.0038258914139043e-01  -2.5213931925577032e-01  1.7108171633260047e-01  -2.0210587122861079e-01  1.6714583534558225e-01  -1.8245382164729099e-01  1.7871069115491764e-01  -1.7323827655613042e-01  1.8308949160283200e-01  -1.6969863875300048e-01  1.8404334304829048e-01  -1.6876237009829900e-01  1.8366970542516489e-01  -1.6885448094509117e-01  1.8294223540831042e-01  -1.6924112578233522e-01  1.8226007109985073e-01  -1.6961063185514172e-01  1.8175810227816580e-01  -1.6984112889731609e-01  1.8146467907799177e-01  -1.6987989009203772e-01  1.8137474914236143e-01  -1.6968020525959551e-01  1.8147908696262310e-01  -1.6916115951151736e-01  1.8176944931648428e-01  -1.6816677873123190e-01  1.8222443160362012e-01  -1.6640249569846172e-01  1.8276686097207756e-01  -1.6331700627180762e-01  1.8316362194521413e-01  -1.5786940430207005e-01  1.8280074635796681e-01  -1.4805678941755637e-01  1.8018730631471039e-01  -1.2993980884307030e-01  1.7185928643889997e-01  -9.5820651051632469e-02  1.4991809162993580e-01  -3.2512160725540307e-02  9.5786930403934573e-02  -1.6694222387195840e-02  4.4219078458029956e-02  -3.0926986928317387e-03  2.0022322190246057e-02  5.6443345733901053e-03  7.6901375447827828e-03  3.9810853424899432e-03  -8.2058454903016585e-03  -4.7266806075124783e-03  -3.3087456145380466e-02  -2.7515272457577344e-02  -5.9895430200485024e-02  -2.1846517436354320e-02  -7.3372286600513328e-02  3.1282578541913020e-02  -7.2729664626045146e-02  1.2233016915284073e-01  4.4282405042024930e-01  6.5446947618149143e-01  7.8539327998255337e-01  8.6637420770096640e-01  9.1655008304843266e-01  9.4774238293413371e-01  9.6719946156062331e-01  9.7937327487704340e-01  9.8700933831625437e-01  9.9180887658828498e-01  9.9482983430754968e-01  9.9673390617189472e-01  9.9793660538069684e-01  9.9868778416799597e-01  0.0000000000000000e+00  -4.8976325143333926e-03  3.6126773167572929e-02  -8.7536372560348880e-02  -5.6124033589555590e-03  -9.8541591682810119e-03  -7.2502469264028972e-03  -3.8760800936622944e-02  -4.0691575415135593e-02  -1.1046145771770807e-02  1.1508829598936403e-03  6.0156134393243976e-03  1.8539436327693842e-03  6.8368682642911951e-03  -1.9680236558253707e-03  9.2247071561250005e-03  -1.3334526857154342e-02  2.4589305496341651e-02  -1.9250505940744667e-02  -2.5293222286443554e-02  3.0433567501170333e-02  -2.9525812689074678e-02  1.8112387765219558e-02  -1.1653191778076687e-02  3.2663833102432219e-02  -4.0308319026296467e-02  2.9172735842116072e-03  -2.0148382185260182e-03  1.0035555040149559e-02  -1.9480696013057477e-02  2.2086030986867504e-02  -2.5233277683182710e-02  3.0854166840636157e-02  -3.8888337912583920e-02  4.4252663202746324e-02  -4.2192745470481907e-02  3.1051980594597600e-02  -2.2355438313221340e-02  2.4533070260212408e-02  -4.5626719320537489e-02  5.9408260162509892e-02  -2.0257581010570233e-03  3.9498247142056749e-02  -1.7048029989270515e-02  2.9778985723206891e-02  -2.4003015290413526e-02  2.2885226014173695e-02  -2.7723795472742733e-02  1.5203918507083105e-02  -3.2302504596499575e-02  4.7256537632459125e-03  -4.3790690641951888e-02  -1.5030329010101469e-02  -7.2643121199586561e-02  -7.7551885277948762e-02  -6.5270192985557501e-02  1.7576971907047222e-02  3.2352435052747937e-02  6.3133697056143051e-02  6.7436867000288836e-02  6.5114521665599308e-03  3.0758654547826687e-02  -2.3786893882117067e-02  -1.8300023169135595e-03  1.8582322109249622e-02  -4.4987694346688957e-02  -1.3309105393770981e-01  -3.3909018721792326e-02  -2.0650821188506776e-02  1.1589865132782909e-01  1.9163357128643671e-02  3.6139996296562643e-02  -4.3975893073613596e-02  7.9306730439337711e-02  1.4171716679765323e-02  1.8245985458691677e-01  5.4242171503493468e-02  -2.1437274542984920e-02  6.5171753471387664e-02  -9.3025916501151884e-02  2.7843318773562875e-01  -9.4556872013725451e-02  1.6637555908844689e-01  -1.1822864688529341e-01  2.3620583654817884e-01  -2.1184987189468812e-01  3.3341992959301620e-01  -2.5927240597304191e-01  2.8699618394785531e-01  -3.1041012043785632e-01  1.9817156054812146e-01  -3.6584645081252598e-01  1.3555319403981411e-01  -4.0645824190945651e-01  9.2395809102659515e-02  -4.3008521100056585e-01  4.7581816921259942e-02  -4.4429881326590431e-01  -5.1311149168807149e-02  -4.0354213113241671e-01  7.0936730759443957e-03  -3.5629719682814115e-01  4.4268098066040457e-02  -3.2515689337896037e-01  6.9009111173309698e-02  -3.0415763869133111e-01  8.5794911957250100e-02  -2.8986828823581662e-01  9.7241330221820479e-02  -2.8014151582809371e-01  1.0503539309779328e-01  -2.7353650132197083e-01  1.1032809984627544e-01  -2.6905219920181972e-01  1.1392264099029908e-01  -2.6598187607944401e-01  1.1638141429997946e-01  -2.6381730064198899e-01  1.1809584843740895e-01  -2.6217454149480096e-01  1.1933356276093358e-01  -2.6072598552569021e-01  1.2026661418660015e-01  -2.5912176448385515e-01  1.2097934348583843e-01  -2.5687140781925444e-01  1.2144950969749509e-01  -2.5312591832190490e-01  1.2149070230703848e-01  -2.4622890411029835e-01  1.2064065881040446e-01  -2.3273665304152832e-01  1.1800376515041663e-01  -2.0518518235945613e-01  1.1232436397702128e-01  -1.4681923927891960e-01  1.0457085968141820e-01  -1.7869473357740327e-02  1.3838796356770319e-01  8.6826349667132027e-02  1.6106751660633359e-01  1.5068481832601885e-01  1.8686791030296501e-01  2.0337589771176898e-01  2.2922997282324983e-01  2.6187470377912431e-01  2.7803942716090552e-01  3.2181006765966880e-01  2.7290224152189912e-01  2.5837067204415209e-01  2.0369910525118889e-01  2.0335804441517383e-01  6.3945637463685895e-02  1.9254873204281478e-01  3.5424640194574963e-01  5.6658879725649980e-01  7.2673420384600729e-01  8.3026277314236385e-01  8.9485515943493488e-01  9.3476009848277453e-01  9.5939856858063377e-01  9.7465270332480058e-01  9.8413122936278363e-01  9.9004177662023296e-01  9.9373861447727541e-01  9.9605662377182469e-01  9.9751311418042332e-01  9.9842614697199572e-01  9.9900555574922156e-01  0.0000000000000000e+00  9.2726378937089890e-03  -3.4167963252658272e-02  4.8374822204792660e-02  -7.6702450799126234e-03  -5.7641040627740706e-03  -1.5355147660388112e-02  1.3028295770442712e-03  1.5235582758179794e-02  8.7934343135677318e-03  4.2274228096568960e-03  -1.0872678248448737e-03  1.6274083211455749e-03  -3.0260823689480642e-03  5.3179609975808400e-03  -1.8314984323886381e-03  1.6985218927127513e-02  -2.3530885841355705e-02  5.0948031267725055e-02  2.3072700041931713e-02  -3.7059422188027998e-02  4.0226473830793558e-02  -2.4751301818758224e-02  6.1174835266838276e-03  -2.7054477528542013e-02  6.7654601007019116e-02  -9.0068627678996909e-03  -5.6631160796186590e-03  -1.0315656740405054e-02  1.5813735057559036e-02  -2.8503359509632998e-02  1.9673842526034994e-02  -3.5469620941919258e-02  3.5678810620515013e-02  -5.4807789432937862e-02  5.0801401488526764e-02  -4.4234154674908849e-02  2.4328243600002665e-02  -2.1891202048227244e-02  3.4886202764734676e-02  -4.0944448981274431e-02  8.6882621653234706e-03  -2.8427837933081696e-02  1.3890637837540538e-02  -2.6316239079071081e-02  1.3082799546334607e-02  -2.6503966427890470e-02  8.2775450384079737e-03  -2.8522789772322928e-02  -4.9708054039591986e-04  -3.5105140965006831e-02  -1.3201945838529247e-02  -5.1711607441993018e-02  -3.7989607217842482e-02  -9.2560284039650803e-02  -5.6646492619785757e-02  8.6016261328991823e-03  -1.8434875793703800e-02  1.0384288218350042e-01  7.7909343289060840e-03  2.9727728001814804e-02  -3.4178471166506519e-02  -7.6441687478443984e-04  -6.8066548668371724e-02  -1.1071018999359400e-01  -3.7677067186200147e-02  -3.3944399449443018e-02  -4.5576753222668881e-02  6.5202445800643103e-04  3.1816290160949827e-02  5.3958002766102735e-02  -2.0404714954135629e-02  5.0496072796048404e-02  -1.1367889332808676e-01  -1.5528779562467276e-01  -9.5852964871126725e-02  2.6772406695053711e-02  3.0046173850541237e-02  -9.5976035719115074e-02  -5.8001006471255841e-02  -1.1826484703132711e-01  5.6674769008192794e-01  2.8559603926946214e-01  7.6500399184885115e-01  2.8681848350475275e-01  1.0007861334623440e+00  5.0463210045807970e-02  1.0729385353759335e+00  -3.4297138803331462e-02  9.2692588919245511e-01  -1.8678472540846622e-02  8.6557443256619138e-01  -2.1445771193561870e-02  8.3696602036191448e-01  -2.7953175640030165e-02  8.2658838287456482e-01  -3.2385545488655326e-02  8.0867568397939937e-01  -1.4357515874140350e-01  1.0763073512009125e+00  -1.1928700154389051e-01  1.0801112198941216e+00  -1.2371915175416617e-01  1.0747709725401959e+00  -1.2940791320122016e-01  1.0693358680744685e+00  -1.3421692779654132e-01  1.0649493742846921e+00  -1.3784653476505801e-01  1.0616958893349080e+00  -1.4043387261334686e-01  1.0593879350809488e+00  -1.4221283792053141e-01  1.0577919748597620e+00  -1.4339831857278704e-01  1.0567016101418960e+00  -1.4415226260099701e-01  1.0559526692026460e+00  -1.4457717796661382e-01  1.0554156957406031e+00  -1.4471252724554537e-01  1.0549783829535071e+00  -1.4451943865085048e-01  1.0545188035557993e+00  -1.4383783850827392e-01  1.0538610341009333e+00  -1.4228891261995183e-01  1.0526902507382112e+00  -1.3907266919704192e-01  1.0503682525004365e+00  -1.3258135803702176e-01  1.0454695492408976e+00  -1.1976139727160039e-01  1.0344085317970693e+00  -9.5695163357254170e-02  1.0064174158200949e+00  -5.6918135287927447e-02  9.3799968605462136e-01  4.2407653801278095e-01  1.0639564122427756e+00  8.178167535374271