<?xml version="1.0"?>
<VTKFile type="UnstructuredGrid"  version="0.1"  >
<UnstructuredGrid>
<Piece  NumberOfPoints="21400" NumberOfCells="42336">
<Points>
<DataArray  type="Float64"  NumberOfComponents="3"  format="ascii">0 0 0  0.004583333333333333 0 0  0.009166666666666667 0 0  0.01375 0 0  0.01833333333333333 0 0  0.02291666666666667 0 0  0.0275 0 0  0.03208333333333334 0 0  0.03666666666666667 0 0  0.04125 0 0  0.04583333333333334 0 0  0.05041666666666667 0 0  0.055 0 0  0.05958333333333334 0 0  0.06416666666666668 0 0  0.06875000000000001 0 0  0.07333333333333333 0 0  0.07791666666666666 0 0  0.08249999999999999 0 0  0.08708333333333333 0 0  0.09166666666666667 0 0  0.09625000000000002 0 0  0.1008333333333333 0 0  0.1054166666666667 0 0  0.11 0 0  0.1145833333333333 0 0  0.1191666666666667 0 0  0.12375 0 0  0.1283333333333334 0 0  0.1329166666666667 0 0  0.1375 0 0  0.1420833333333333 0 0  0.1466666666666667 0 0  0.15125 0 0  0.1558333333333333 0 0  0.1604166666666667 0 0  0.165 0 0  0.1695833333333333 0 0  0.1741666666666667 0 0  0.17875 0 0  0.1833333333333333 0 0  0.1879166666666667 0 0  0.1925 0 0  0.1970833333333333 0 0  0.2016666666666667 0 0  0.20625 0 0  0.2108333333333333 0 0  0.2154166666666666 0 0  0.22 0 0  0.2245833333333334 0 0  0.2291666666666667 0 0  0.23375 0 0  0.2383333333333333 0 0  0.2429166666666667 0 0  0.2475 0 0  0.2520833333333333 0 0  0.2566666666666667 0 0  0.26125 0 0  0.2658333333333334 0 0  0.2704166666666666 0 0  0.275 0 0  0.2795833333333334 0 0  0.2841666666666667 0 0  0.28875 0 0  0.2933333333333333 0 0  0.2979166666666667 0 0  0.3025 0 0  0.3070833333333334 0 0  0.3116666666666666 0 0  0.31625 0 0  0.3208333333333333 0 0  0.3254166666666667 0 0  0.33 0 0  0.3345833333333333 0 0  0.3391666666666667 0 0  0.34375 0 0  0.3483333333333333 0 0  0.3529166666666667 0 0  0.3575 0 0  0.3620833333333333 0 0  0.3666666666666667 0 0  0.37125 0 0  0.3758333333333334 0 0  0.3804166666666667 0 0  0.3850000000000001 0 0  0.3895833333333333 0 0  0.3941666666666667 0 0  0.39875 0 0  0.4033333333333334 0 0  0.4079166666666666 0 0  0.4125 0 0  0.4170833333333334 0 0  0.4216666666666667 0 0  0.42625 0 0  0.4308333333333333 0 0  0.4354166666666667 0 0  0.44 0 0  0.4445833333333333 0 0  0.4491666666666667 0 0  0.45375 0 0  0.4583333333333333 0 0  0.4629166666666666 0 0  0.4675 0 0  0.4720833333333334 0 0  0.4766666666666667 0 0  0.4812500000000001 0 0  0.4858333333333333 0 0  0.4904166666666667 0 0  0.495 0 0  0.4995833333333334 0 0  0.5041666666666667 0 0  0.50875 0 0  0.5133333333333334 0 0  0.5179166666666667 0 0  0.5225 0 0  0.5270833333333333 0 0  0.5316666666666667 0 0  0.53625 0 0  0.5408333333333333 0 0  0.5454166666666667 0 0  0.55 0 0  0.5545833333333333 0 0  0.5591666666666667 0 0  0.5637500000000001 0 0  0.5683333333333334 0 0  0.5729166666666666 0 0  0.5775 0 0  0.5820833333333334 0 0  0.5866666666666667 0 0  0.5912499999999999 0 0  0.5958333333333334 0 0  0.6004166666666667 0 0  0.605 0 0  0.6095833333333334 0 0  0.6141666666666667 0 0  0.61875 0 0  0.6233333333333333 0 0  0.6279166666666667 0 0  0.6325000000000001 0 0  0.6370833333333333 0 0  0.6416666666666666 0 0  0.64625 0 0  0.6508333333333334 0 0  0.6554166666666666 0 0  0.6599999999999999 0 0  0.6645833333333334 0 0  0.6691666666666667 0 0  0.67375 0 0  0.6783333333333333 0 0  0.6829166666666667 0 0  0.6875 0 0  0.6920833333333333 0 0  0.6966666666666667 0 0  0.70125 0 0  0.7058333333333333 0 0  0.7104166666666667 0 0  0.7150000000000001 0 0  0.7195833333333334 0 0  0.7241666666666666 0 0  0.72875 0 0  0.7333333333333334 0 0  0.7379166666666667 0 0  0.7425 0 0  0.7470833333333333 0 0  0.7516666666666667 0 0  0.75625 0 0  0.7608333333333334 0 0  0.7654166666666666 0 0  0.7700000000000001 0 0  0 0.002380952380952381 0  0.004583333333333333 0.002380952380952381 0  0.009166666666666667 0.002380952380952381 0  0.01375 0.002380952380952381 0  0.01833333333333333 0.002380952380952381 0  0.02291666666666667 0.002380952380952381 0  0.0275 0.002380952380952381 0  0.03208333333333334 0.002380952380952381 0  0.03666666666666667 0.002380952380952381 0  0.04125 0.002380952380952381 0  0.04583333333333334 0.002380952380952381 0  0.05041666666666667 0.002380952380952381 0  0.055 0.002380952380952381 0  0.05958333333333334 0.002380952380952381 0  0.06416666666666668 0.002380952380952381 0  0.06875000000000001 0.002380952380952381 0  0.07333333333333333 0.002380952380952381 0  0.07791666666666666 0.002380952380952381 0  0.08249999999999999 0.002380952380952381 0  0.08708333333333333 0.002380952380952381 0  0.09166666666666667 0.002380952380952381 0  0.09625000000000002 0.002380952380952381 0  0.1008333333333333 0.002380952380952381 0  0.1054166666666667 0.002380952380952381 0  0.11 0.002380952380952381 0  0.1145833333333333 0.002380952380952381 0  0.1191666666666667 0.002380952380952381 0  0.12375 0.002380952380952381 0  0.1283333333333334 0.002380952380952381 0  0.1329166666666667 0.002380952380952381 0  0.1375 0.002380952380952381 0  0.1420833333333333 0.002380952380952381 0  0.1466666666666667 0.002380952380952381 0  0.15125 0.002380952380952381 0  0.1558333333333333 0.002380952380952381 0  0.1604166666666667 0.002380952380952381 0  0.165 0.002380952380952381 0  0.1695833333333333 0.002380952380952381 0  0.1741666666666667 0.002380952380952381 0  0.17875 0.002380952380952381 0  0.1833333333333333 0.002380952380952381 0  0.1879166666666667 0.002380952380952381 0  0.1925 0.002380952380952381 0  0.1970833333333333 0.002380952380952381 0  0.2016666666666667 0.002380952380952381 0  0.20625 0.002380952380952381 0  0.2108333333333333 0.002380952380952381 0  0.2154166666666666 0.002380952380952381 0  0.22 0.002380952380952381 0  0.2245833333333334 0.002380952380952381 0  0.2291666666666667 0.002380952380952381 0  0.23375 0.002380952380952381 0  0.2383333333333333 0.002380952380952381 0  0.2429166666666667 0.002380952380952381 0  0.2475 0.002380952380952381 0  0.2520833333333333 0.002380952380952381 0  0.2566666666666667 0.002380952380952381 0  0.26125 0.002380952380952381 0  0.2658333333333334 0.002380952380952381 0  0.2704166666666666 0.002380952380952381 0  0.275 0.002380952380952381 0  0.2795833333333334 0.002380952380952381 0  0.2841666666666667 0.002380952380952381 0  0.28875 0.002380952380952381 0  0.2933333333333333 0.002380952380952381 0  0.2979166666666667 0.002380952380952381 0  0.3025 0.002380952380952381 0  0.3070833333333334 0.002380952380952381 0  0.3116666666666666 0.002380952380952381 0  0.31625 0.002380952380952381 0  0.3208333333333333 0.002380952380952381 0  0.3254166666666667 0.002380952380952381 0  0.33 0.002380952380952381 0  0.3345833333333333 0.002380952380952381 0  0.3391666666666667 0.002380952380952381 0  0.34375 0.002380952380952381 0  0.3483333333333333 0.002380952380952381 0  0.3529166666666667 0.002380952380952381 0  0.3575 0.002380952380952381 0  0.3620833333333333 0.002380952380952381 0  0.3666666666666667 0.002380952380952381 0  0.37125 0.002380952380952381 0  0.3758333333333334 0.002380952380952381 0  0.3804166666666667 0.002380952380952381 0  0.3850000000000001 0.002380952380952381 0  0.3895833333333333 0.002380952380952381 0  0.3941666666666667 0.002380952380952381 0  0.39875 0.002380952380952381 0  0.4033333333333334 0.002380952380952381 0  0.4079166666666666 0.002380952380952381 0  0.4125 0.002380952380952381 0  0.4170833333333334 0.002380952380952381 0  0.4216666666666667 0.002380952380952381 0  0.42625 0.002380952380952381 0  0.4308333333333333 0.002380952380952381 0  0.4354166666666667 0.002380952380952381 0  0.44 0.002380952380952381 0  0.4445833333333333 0.002380952380952381 0  0.4491666666666667 0.002380952380952381 0  0.45375 0.002380952380952381 0  0.4583333333333333 0.002380952380952381 0  0.4629166666666666 0.002380952380952381 0  0.4675 0.002380952380952381 0  0.4720833333333334 0.002380952380952381 0  0.4766666666666667 0.002380952380952381 0  0.4812500000000001 0.002380952380952381 0  0.4858333333333333 0.002380952380952381 0  0.4904166666666667 0.002380952380952381 0  0.495 0.002380952380952381 0  0.4995833333333334 0.002380952380952381 0  0.5041666666666667 0.002380952380952381 0  0.50875 0.002380952380952381 0  0.5133333333333334 0.002380952380952381 0  0.5179166666666667 0.002380952380952381 0  0.5225 0.002380952380952381 0  0.5270833333333333 0.002380952380952381 0  0.5316666666666667 0.002380952380952381 0  0.53625 0.002380952380952381 0  0.5408333333333333 0.002380952380952381 0  0.5454166666666667 0.002380952380952381 0  0.55 0.002380952380952381 0  0.5545833333333333 0.002380952380952381 0  0.5591666666666667 0.002380952380952381 0  0.5637500000000001 0.002380952380952381 0  0.5683333333333334 0.002380952380952381 0  0.5729166666666666 0.002380952380952381 0  0.5775 0.002380952380952381 0  0.5820833333333334 0.002380952380952381 0  0.5866666666666667 0.002380952380952381 0  0.5912499999999999 0.002380952380952381 0  0.5958333333333334 0.002380952380952381 0  0.6004166666666667 0.002380952380952381 0  0.605 0.002380952380952381 0  0.6095833333333334 0.002380952380952381 0  0.6141666666666667 0.002380952380952381 0  0.61875 0.002380952380952381 0  0.6233333333333333 0.002380952380952381 0  0.6279166666666667 0.002380952380952381 0  0.6325000000000001 0.002380952380952381 0  0.6370833333333333 0.002380952380952381 0  0.6416666666666666 0.002380952380952381 0  0.64625 0.002380952380952381 0  0.6508333333333334 0.002380952380952381 0  0.6554166666666666 0.002380952380952381 0  0.6599999999999999 0.002380952380952381 0  0.6645833333333334 0.002380952380952381 0  0.6691666666666667 0.002380952380952381 0  0.67375 0.002380952380952381 0  0.6783333333333333 0.002380952380952381 0  0.6829166666666667 0.002380952380952381 0  0.6875 0.002380952380952381 0  0.6920833333333333 0.002380952380952381 0  0.6966666666666667 0.002380952380952381 0  0.70125 0.002380952380952381 0  0.7058333333333333 0.002380952380952381 0  0.7104166666666667 0.002380952380952381 0  0.7150000000000001 0.002380952380952381 
[...]
<PointData  Scalars="concentration"> 
<DataArray  type="Float64"  Name="concentration"  format="ascii">0.0000000000000000e+00  8.0094781367245682e-02  2.3033480305814616e-01  1.7610283985590375e-01  -2.3244103781455101e-02  -1.3068240035140008e-01  -1.7182848874531473e-01  -1.8854544302196091e-01  -1.7742714559679343e-01  -8.0022928721981898e-02  1.0980473717558380e-02  6.7973724737158733e-03  7.2860981451098351e-03  -1.5984404292880288e-03  6.6859656336987665e-03  -1.0315789260906722e-02  1.5783456198194712e-02  -1.3623309977098749e-02  -8.9975697690007142e-03  2.2810035285343398e-02  -2.4154353365094850e-02  1.6598896749289310e-02  -1.5084323731656675e-02  1.9722243630264136e-02  -3.0637971015577529e-02  1.0621352135610473e-02  -7.4635624240411988e-03  1.5743925044778139e-03  -2.1460931069517727e-02  9.7997477733209829e-03  -3.5338109638876798e-02  1.1135311536968902e-02  -5.7204968504077892e-02  8.1172696184360210e-03  -8.3768131317476444e-02  -3.8973930190430023e-02  -2.9122848569775156e-01  7.8418122232843057e-01  1.0204704556695137e+00  1.1498962869731442e+00  8.7844053706497072e-01  1.0899741466572386e+00  8.7791773391329153e-01  1.0809729600348346e+00  8.8062106170751675e-01  1.0797780680128362e+00  8.8151075918344524e-01  1.0797014951751549e+00  8.8175732152278752e-01  1.0806531422791927e+00  8.8144701136749892e-01  1.0825600445855714e+00  8.7428727619963464e-01  1.0545761382048986e+00  8.7150931611780036e-01  1.1072580284909133e+00  8.5093952880166135e-01  1.1599457622634923e+00  1.0024251542764215e+00  9.6355907610854974e-01  1.0095491630049103e+00  9.7475837370533647e-01  1.0137656694117549e+00  1.0348136927188731e+00  9.4589907983643196e-01  9.8802149513554460e-01  9.7102595413585580e-01  1.1055045368091874e+00  8.6896105334963170e-01  1.1179531108388159e+00  9.2248719362173037e-01  9.5817346326820663e-01  6.3713812859611796e-01  1.1442034074946836e+00  7.4921312814671492e-01  1.2742059606892602e+00  6.8709353112570148e-01  1.2962579063913549e+00  6.9434221772854043e-01  1.2962130509239216e+00  7.1612347684667876e-01  1.2860480282698183e+00  7.4704880406949892e-01  1.2282422908241195e+00  7.6581279347047648e-01  1.2180903702372987e+00  7.8296179634718122e-01  1.2153096023666232e+00  7.8834935460411448e-01  1.2116151714071874e+00  7.9177975087124186e-01  1.2087131454794413e+00  7.9423945048575317e-01  1.2063189776460235e+00  7.9638778365514551e-01  1.2039080184838824e+00  7.9892350420560543e-01  1.2005932056279010e+00  8.0284277443602992e-01  1.1946876432931111e+00  8.0987817371615456e-01  1.1827183208911070e+00  8.2337736513541837e-01  1.1575509418134255e+00  8.5078245170968470e-01  1.1081537942350010e+00  9.1692856718625559e-01  1.0627978511698049e+00  9.5292450590782984e-01  1.0245189359323135e+00  9.7748857232820963e-01  1.0035311525244666e+00  9.9100952394257980e-01  9.9639214389260611e-01  1.0007707704500968e+00  9.9373075018978230e-01  1.0140285585187478e+00  9.9739650231859689e-01  1.0327185608942118e+00  9.9179195102151296e-01  1.0563657756876310e+00  1.0193004934398662e+00  1.2638071901566530e+00  8.9004179656857596e-01  9.4234978942399450e-01  9.7023272914426839e-01  9.8877568046053255e-01  9.9673680816297394e-01  9.9992461213368122e-01  1.0009769329356331e+00  1.0011494613501388e+00  1.0010052226732731e+00  1.0007825298993656e+00  1.0005727820367598e+00  1.0004037209742065e+00  1.0002774552336544e+00  1.0001872856799734e+00  1.0001247500500241e+00  1.0000822563218030e+00  1.0000538093238271e+00  1.0000349795402423e+00  1.0000226241737347e+00  1.0000145728478060e+00  1.0000093551621152e+00  1.0000059889329906e+00  1.0000038251172443e+00  1.0000024383967010e+00  1.0000015519046268e+00  1.0000009863687882e+00  1.0000006262106078e+00  1.0000003971785218e+00  1.0000002517096995e+00  1.0000001594105219e+00  1.0000001008979227e+00  1.0000000638312549e+00  1.0000000403647817e+00  1.0000000255161559e+00  1.0000000161248004e+00  1.0000000101871427e+00  1.0000000064343821e+00  1.0000000040629839e+00  1.0000000025649816e+00  1.0000000016186068e+00  1.0000000010209664e+00  1.0000000006435916e+00  1.0000000004039911e+00  1.0000000002586242e+00  1.0000000001400697e+00  1.0000000001862765e+00  0.0000000000000000e+00  -1.8723196375742053e-02  -1.0170966163411135e-01  6.5375587496789692e-02  6.2678796064393161e-01  9.0462395865311462e-01  9.6996593892627525e-01  9.2650206281490999e-01  9.4134868608195699e-01  3.0978048263326002e-01  1.3924234826695800e-01  8.3736628922601170e-02  4.7538859802507445e-02  3.4753049375789623e-02  1.3784482197961806e-02  2.2158997028171510e-02  -8.0297465164119383e-03  1.8904452732405343e-02  9.0055100169144590e-03  -2.2225016271958012e-02  2.3740435149574447e-02  -1.8709750187827397e-02  1.2660706731126610e-02  -2.1607387289401238e-02  2.6887924871878327e-02  -1.7697818896166926e-02  3.4982519054431121e-06  -1.0348243673517856e-02  9.1427507566023882e-03  -2.4634098019588383e-02  1.5569146831160124e-02  -3.5471115902458522e-02  2.3779010264911870e-02  -5.1134133473232771e-02  2.4787750098326920e-02  -4.5405057271214841e-02  4.9607884098819013e-02  4.8565102365976318e-02  1.0092169538025175e-01  8.5227295650691995e-02  7.5001571358304508e-01  3.0246385971435041e-01  8.0980160946532809e-01  3.1029140284734918e-01  8.0721224507038958e-01  3.1083991934273042e-01  8.0364591815517372e-01  3.1423343680620264e-01  8.0110979399353688e-01  3.2090764045567011e-01  8.0146043925909982e-01  3.3182882438002692e-01  8.0859627949135204e-01  3.4157066686800980e-01  7.1957715541039746e-01  3.0500325674344320e-01  7.4448225563543824e-01  3.2614316475241906e-01  8.2383256250765458e-01  1.0644827206111553e+00  9.7648968219711219e-01  1.0098876694413041e+00  9.4022274699904640e-01  9.5469499414538905e-01  1.0663678267357335e+00  9.5188452846694027e-01  9.3343560607180298e-01  8.1157428966065170e-01  1.1027078629139164e+00  7.8347825654523973e-01  1.0531222410856917e+00  9.3122794770533035e-01  1.0638963977248168e+00  2.0712303787938235e-01  3.1832625067450476e-01  -1.1036102361429605e-01  3.0675246166167663e-01  -1.8330136124605095e-01  2.6987813820475198e-01  -1.9896700902668926e-01  2.5112810100197452e-01  -1.9396353560984350e-01  2.4029829340385506e-01  -1.5382454246145325e-01  2.0551794252022532e-01  -1.4889344899882723e-01  1.8868487666198289e-01  -1.5678674681437080e-01  1.7986644039557254e-01  -1.6087288367622390e-01  1.7488598724598811e-01  -1.6262124632370281e-01  1.7211300020533857e-01  -1.6287567195256694e-01  1.7044543414104649e-01  -1.6190909128393374e-01  1.6901138088408849e-01  -1.5951305805346294e-01  1.6673155828765338e-01  -1.5497832574979251e-01  1.6158178198615017e-01  -1.4694182146352677e-01  1.4907205855406855e-01  -1.3315240315916213e-01  1.1898513833039158e-01  -1.1051444873454287e-01  4.9750283924685418e-02  -7.5783478388875836e-02  2.1538973975704232e-02  -3.8769851047374966e-02  4.0235069784051969e-04  -2.4164253704286605e-02  -1.5468485128540368e-02  -2.1607898259256377e-02  -2.3411811132757105e-02  -1.5628336346832881e-02  -2.2575156046055103e-02  4.7062015684977074e-03  3.6630031837016088e-03  4.5584311792053689e-02  2.0198213225558356e-02  8.9583695302643013e-02  4.7793497934880361e-03  2.2327581640614522e-01  4.2988980849824454e-01  6.4189168800546792e-01  7.7871743654060388e-01  8.6203114292611127e-01  9.1353723089930261e-01  9.4565473125861987e-01  9.6578258495248503e-01  9.7843307751598618e-01  9.8639775306800892e-01  9.9141760793539768e-01  9.9458355691693046e-01  9.9658111187541476e-01  9.9784179726360445e-01  9.9863755882631033e-01  9.9913989905080969e-01  9.9945702539463877e-01  9.9965722968844994e-01  9.9978361977261265e-01  9.9986340932917128e-01  9.9991377904046197e-01  9.9994557570257159e-01  9.9996564727835258e-01  9.9997831705842588e-01  9.9998631437950292e-01  9.9999136225054364e-01  9.9999454836060953e-01  9.9999655931729026e-01  9.9999782853081365e-01  9.9999862957659169e-01  9.9999913513483607e-01  9.9999945419816516e-01  9.9999965555888204e-01  9.9999978263545752e-01  9.9999986283074560e-01  9.9999991343957628e-01  9.9999994537666259e-01  9.9999996553063997e-01  9.9999997824843234e-01  9.9999998627381059e-01  9.9999999133771811e-01  9.9999999453295429e-01  9.9999999654923799e-01  9.9999999781948901e-01  9.9999999862308908e-01  9.9999999913308946e-01  0.0000000000000000e+00  5.9683765679333024e-04  -1.5853338463965541e-02  1.7260595778014978e-01  5.8479762716150539e-02  6.2617948266194517e-02  5.3102441120478586e-02  7.2298045153019630e-02  2.1936421233684632e-02  -4.0597931743106566e-02  -3.6892656952266019e-02  -2.7600427827136738e-02  -1.4579965755718018e-02  -1.4779689230306772e-02  -2.2399963768874715e-03  -1.4253420593397202e-02  1.1638766714664184e-02  -2.1239373999328039e-02  4.5388534414492470e-04  2.3785528551075217e-02  -2.6719047459077588e-02  2.1842102333447428e-02  -1.5479293903648670e-02  1.6346552771676719e-02  -3.2463334843568038e-02  2.2752034900790551e-02  -3.6236688432822453e-03  4.2902249337983013e-03  -1.3823705836755722e-02  1.8788824709929892e-02  -2.3234594341944057e-02  2.7536875616470089e-02  -3.2299754826276152e-02  4.4391864953738008e-02  -3.5686548454374724e-02  4.9314418954887369e-02  -1.8851634427561777e-02  1.5701276788279067e-02  -2.1624538841760452e-02  3.3908901926301402e-02  -8.1921340611707194e-02  -1.3195424477845356e-02  -7.3184476508191085e-02  -4.8909086820059112e-03  -6.6899444565270513e-02  -1.1627611509620458e-03  -6.2801362226466886e-02  -2.7668954118053148e-04  -5.8262591753249819e-02  7.0504394662304127e-04  -5.1367736619407620e-02  7.0919658702134807e-03  -3.7564630941699012e-02  3.5709885166345393e-02  6.0869300274769287e-03  4.1938386845322140e-02  -2.9633151687932367e-02  3.3417942587032571e-03  -3.3733543081869814e-02  -5.2346619136440724e-02  8.6578256776326462e-04  -2.0953499118044634e-02  2.1407166508289881e-02  4.8519329421499175e-04  -5.9387055760334727e-02  3.4718805345286617e-02  2.4614735369116174e-02  4.6535324782676288e-02  -1.1174532687619093e-01  6.0116929404142726e-02  -1.0697122770537354e-01  -2.7740163080602905e-02  -1.4425397214666794e-01  2.4352601701120882e-02  -1.7143517020965504e-01  2.0780733209529667e-01  -2.6155608126641289e-01  2.2250571950421039e-01  -2.6258173952821312e-01  2.1555139784131749e-01  -2.5967140915538928e-01  2.0238587074323147e-01  -2.5237365985215088e-01  1.7134368599531286e-01  -2.0436110245418596e-01  1.6693965197281502e-01  -1.8394804257351766e-01  1.7894872384974120e-01  -1.7321111244538068e-01  1.8410075393274714e-01  -1.6826036444196132e-01  1.8573114041958766e-01  -1.6588475787566884e-01  1.8595200639640935e-01  -1.6405073820759614e-01  1.8576239021319302e-01  -1.6134489017228781e-01  1.8539595000584866e-01  -1.5635017000087204e-01  1.8440158809290663e-01  -1.4692589350534774e-01  1.8131879120523026e-01  -1.2909853355329881e-01  1.7266590457865261e-01  -9.5171164887005444e-02  1.5051557448330483e-01  -3.1945617587358713e-02  9.6229300447310567e-02  -1.6364814677512819e-02  4.4528130008469773e-02  -2.8473617466694694e-03  2.0218332727008185e-02  5.7959759379986580e-03  7.8015359380284571e-03  4.0583378907482837e-03  -8.1687159010239534e-03  -4.7127718085250491e-03  -3.3108083492615605e-02  -2.7530359043115623e-02  -5.9907825235270301e-02  -2.1881841457507639e-02  -7.3387347946900522e-02  3.1237028267196914e-02  -7.2721058847234690e-02  1.2228395410307515e-01  4.4271842962034824e-01  6.5434766824880475e-01  7.8527843776377704e-01  8.6627496249775793e-01  9.1646811074095857e-01  9.4767649592685432e-01  9.6714745561971216e-01  9.7933282786585740e-01  9.8697840944556603e-01  9.9178558538262951e-01  9.9481313441989594e-01  9.9672237404452046e-01  9.9792761810303576e-01  9.9868906295032478e-01  9.9917042935968459e-01  9.9947488837302934e-01  9.9966753106729411e-01  9.9978946143626379e-01  9.9986665472735015e-01  9.9991553505912978e-01  9.9994649205322106e-01  9.9996610036078792e-01  9.9997852167299839e-01  9.9998639090523100e-01  9.9999137662548976e-01  9.9999453561780560e-01  9.9999653727573168e-01  9.9999780565200613e-01  9.9999860940083307e-01  9.9999911873649860e-01  9.9999944150964659e-01  9.9999964605913927e-01  9.9999977568931242e-01  9.9999985784137113e-01  9.9999990990518006e-01  9.9999994290063621e-01  9.9999996381178669e-01  9.9999997706413624e-01  9.9999998546293312e-01  9.9999999078532620e-01  9.9999999415816010e-01  9.9999999629491720e-01  9.9999999765148473e-01  9.9999999850066468e-01  0.0000000000000000e+00  -4.9016856901442267e-03  3.6120984427093078e-02  -8.7545761011726175e-02  -5.6242293675164562e-03  -9.8728692652104919e-03  -7.2719400850085126e-03  -3.8794016045214215e-02  -4.0727392934987776e-02  -1.1081894350878970e-02  1.1205215929035624e-03  5.9720295840829723e-03  1.8142646383019563e-03  6.7750840294905053e-03  -2.0201740108102182e-03  9.1369853929239870e-03  -1.3403297879779770e-02  2.4474719134189058e-02  -1.9279189281273357e-02  -2.5457859855490084e-02  3.0362808336558102e-02  -2.9730413845263266e-02  1.8038530740688886e-02  -1.1895673036294295e-02  3.2839069515356652e-02  -4.0427409792424610e-02  3.3807997113355125e-03  -2.2758974568676165e-03  1.1249003436596390e-02  -1.9735514109892004e-02  2.4208996316799240e-02  -2.6239045105553385e-02  3.3989642880267734e-02  -4.2437541863486888e-02  4.7521968809295344e-02  -4.8591106048051690e-02  2.7772073278006810e-02  -1.8427785536165749e-02  1.6658448251978458e-02  -3.9963398978298342e-02  4.3743628207429809e-02  -1.4817903003546103e-02  3.4171577701933208e-02  -2.1894569774643522e-02  2.8614734722772917e-02  -2.5512406491652654e-02  2.3962317174407683e-02  -2.7506431882438939e-02  1.8279070621450115e-02  -2.9944131438196013e-02  1.0490597941607976e-02  -3.6798552408007688e-02  -9.9521349410159948e-04  -5.8285201943782373e-02  -2.9905754458938789e-02  -1.0535996815587941e-03  9.5275131005862976e-02  1.2348726425200439e-01  1.4055677965111005e-01  1.1238065840884230e-01  4.6678821386929081e-02  5.9779150377006422e-02  2.9905828483623637e-03  2.4377109068269898e-02  6.8080255179663360e-02  -5.2422675696471854e-02  -5.4583864619824958e-02  -7.9922831191695437e-02  8.0414067040296744e-02  -1.0202960478236198e-01  8.4977160864697407e-02  -1.6760202365094897e-02  8.9771413806133196e-02  -7.8852590374533904e-02  1.1950588010546713e-01  -2.1787398068448882e-01  2.7501023137000269e-01  -2.8220339211165479e-01  2.0023932663816146e-01  -3.5490737693206642e-01  1.3181481747624441e-01  -4.0018737822907957e-01  7.1361198099188353e-02  -4.2804749543800796e-01  -3.6282134444092312e-02  -3.9487600895985475e-01  1.3887194481959474e-02  -3.5313840380390610e-01  4.6400203049651374e-02  -3.2452060906754243e-01  6.9156022869750172e-02  -3.0400152452884094e-01  8.5464626197482393e-02  -2.8885617492859950e-01  9.7108540136821409e-02  -2.7709007333090852e-01  1.0524087857988303e-01  -2.6675151354328874e-01  1.1057165216519631e-01  -2.5534808151179766e-01  1.1332373956896599e-01  -2.3881320669854145e-01  1.1310954936052882e-01  -2.0923319451967626e-01  1.0903427980659361e-01  -1.4953752944541424e-01  1.0229125323621079e-01  -1.9792911754288545e-02  1.3676959463864727e-01  8.5406468393739526e-02  1.5988849952476852e-01  1.4971119383784159e-01  1.8607741101281230e-01  2.0274473495050732e-01  2.2873566079871363e-01  2.6150581518314581e-01  2.7776371341538558e-01  3.2162421439815042e-01  2.7277378120819445e-01  2.5829756772097956e-01  2.0368567347183758e-01  2.0335572836863838e-01  6.3998273657227267e-02  1.9253165126319377e-01  3.5418762842020401e-01  5.6651096141460655e-01  7.2665682330435877e-01  8.3019537743935090e-01  8.9480068371744426e-01  9.3471798158668418e-01  9.5936688915433610e-01  9.7462938504623031e-01  9.8411442338907806e-01  9.9003001968604709e-01  9.9373088764343720e-01  9.9605210966334279e-01  9.9751097414100942e-01  9.9842932488633618e-01  9.9900814514841518e-01  9.9937331848595046e-01  9.9960387658956440e-01  9.9974952815385154e-01  9.9984158320317584e-01  9.9989978480785280e-01  9.9993659297593673e-01  9.9995987656050012e-01  9.9997460755435774e-01  9.9998392882954357e-01  9.9998982768167721e-01  9.9999356103390014e-01  9.9999592402483650e-01  9.9999741974610978e-01  9.9999836654977403e-01  9.9999896590715665e-01  9.9999934533162349e-01  9.9999958553307189e-01  9.9999973760003291e-01  9.9999983387220448e-01  9.9999989482208862e-01  9.9999993340967774e-01  9.9999995783993445e-01  9.9999997330684254e-01  9.9999998309922911e-01  9.9999998929857037e-01  9.9999999322346012e-01  9.9999999570768905e-01  9.9999999728105193e-01  9.9999999827237285e-01  9.9999999890582647e-01  0.0000000000000000e+00  9.2719391175163143e-03  -3.4170980258173694e-02  4.8370336534992960e-02  -7.6785703929597576e-03  -5.7723993523572928e-03  -1.5368156513993770e-02  1.2925256724199651e-03  1.5223960183595670e-02  8.7831303882534295e-03  4.2080730364647484e-03  -1.1010434433414229e-03  1.6005062272536382e-03  -3.0415726356385637e-03  5.2823665433850983e-03  -1.8413014970770352e-03  1.6948294759752080e-02  -2.3538028237729627e-02  5.0877040761378604e-02  2.3150733702341084e-02  -3.7081415626569914e-02  4.0381706586351297e-02  -2.4683581868503723e-02  6.3634572673135449e-03  -2.7143445726408113e-02  6.8011733725382870e-02  -8.9646878490529970e-03  -4.7198809900320235e-03  -1.0465204771393601e-02  1.7345931556294179e-02  -2.8947225981423366e-02  2.1920166677841371e-02  -3.7155997054764363e-02  3.8814169703590320e-02  -5.9684373194403159e-02  5.2629900070044672e-02  -4.2471648389410907e-02  2.0752177680629529e-02  -1.8839542357005818e-02  3.0384804617121768e-02  -3.2323231090376096e-02  1.4296059103054225e-02  -2.7631757699790694e-02  1.5473530325247592e-02  -2.7395901141983824e-02  1.3279664835828450e-02  -2.8984719637981379e-02  7.5962288695283747e-03  -3.2924304226123406e-02  -2.8819726506754567e-03  -4.2335937524388786e-02  -2.0745032055461333e-02  -6.6426708257852046e-02  -5.4475596323322155e-02  -1.4222655636606010e-01  -1.1571618706541659e-01  -7.0938271793556246e-02  -9.5241441650358097e-02  4.0891628074063664e-02  -9.2301931685243675e-03  1.7592539328562744e-02  -2.8685150321754328e-02  1.0218579514059382e-02  -4.1100268792734332e-02  -9.0424785516962120e-02  4.0439274471411331e-02  -2.7039391002744122e-04  4.8255093536034216e-01  6.7340488877017468e-01  1.1893529651508690e+00  6.3247742275721019e-01  1.1276068856350367e+00  5.7048692157458125e-01  1.1535058118998542e+00  3.8736963154212439e-01  9.3273436213589123e-01  1.4284311003461508e-01  1.0184220542328486e+00  1.8327589703200951e-02  8.8281454656975122e-01  -1.4262077716421469e-02  8.5645829779672578e-01  -2.4180856758636817e-02  8.2582498415818362e-01  -1.3987861901540197e-01  1.0770232456173991e+00  -1.1846485337832727e-01  1.0799969577224455e+00  -1.2276691560345006e-01  1.0749997273529242e+00  -1.2813135658522021e-01  1.0696751886513904e+00  -1.3257444842761734e-01  1.0650496499493591e+00  -1.3551058270660349e-01  1.0611881916769463e+00  -1.3660090385859402e-01  1.0576936462073276e+00  -1.3523538820003544e-01  1.0537468793108509e+00  -1.3001143785424374e-01  1.0477404913098143e+00  -1.1804983116753674e-01  1.0359395311978861e+00  -9.4570227019818112e-02  1.0074501341417479e+00  -5.6263454055010598e-02  9.3877919538388910e-01  4.2474027546092002e-01  1.0645370882967009e+00  8.1809400219723449e-01  1.0677667063854521e+00  9.4252191358175863e-01  1.0099240827597449e+00  9.5599913052094376e-01  9.6678224372697641e-01  9.6506375815126288e-01  9.5652815979711714e-01  1.1456291555944906e+00  1.0994035993415310e+00  1.1619247773415691e+00  1.0233598336718943e+00  6.2977103583662764e-01  5.2883847554601571e-01  6.3048597290614383e-01  7.4765311517966204e-01  8.4136884312548921e-01  9.0267916184003849e-01  9.4060149467280285e-01  9.6366618754866262e-01  9.7766649512047876e-01  9.8619896893797954e-01  9.9143001090893101e-01  9.9465635448973322e-01  9.9665692134783157e-01  9.9790296031230286e-01  9.9868184002284732e-01  9.9917008948951191e-01  9.9947683381035446e-01  9.9966987966830767e-01  9.9979153368839868e-01  9.9986827783702215e-01  9.9991673048697516e-01  9.999473407