<?xml version="1.0"?>
<VTKFile type="UnstructuredGrid"  version="0.1"  >
<UnstructuredGrid>
<Piece  NumberOfPoints="21400" NumberOfCells="42336">
<Points>
<DataArray  type="Float64"  NumberOfComponents="3"  format="ascii">0 0 0  0.004583333333333333 0 0  0.009166666666666667 0 0  0.01375 0 0  0.01833333333333333 0 0  0.02291666666666667 0 0  0.0275 0 0  0.03208333333333334 0 0  0.03666666666666667 0 0  0.04125 0 0  0.04583333333333334 0 0  0.05041666666666667 0 0  0.055 0 0  0.05958333333333334 0 0  0.06416666666666668 0 0  0.06875000000000001 0 0  0.07333333333333333 0 0  0.07791666666666666 0 0  0.08249999999999999 0 0  0.08708333333333333 0 0  0.09166666666666667 0 0  0.09625000000000002 0 0  0.1008333333333333 0 0  0.1054166666666667 0 0  0.11 0 0  0.1145833333333333 0 0  0.1191666666666667 0 0  0.12375 0 0  0.1283333333333334 0 0  0.1329166666666667 0 0  0.1375 0 0  0.1420833333333333 0 0  0.1466666666666667 0 0  0.15125 0 0  0.1558333333333333 0 0  0.1604166666666667 0 0  0.165 0 0  0.1695833333333333 0 0  0.1741666666666667 0 0  0.17875 0 0  0.1833333333333333 0 0  0.1879166666666667 0 0  0.1925 0 0  0.1970833333333333 0 0  0.2016666666666667 0 0  0.20625 0 0  0.2108333333333333 0 0  0.2154166666666666 0 0  0.22 0 0  0.2245833333333334 0 0  0.2291666666666667 0 0  0.23375 0 0  0.2383333333333333 0 0  0.2429166666666667 0 0  0.2475 0 0  0.2520833333333333 0 0  0.2566666666666667 0 0  0.26125 0 0  0.2658333333333334 0 0  0.2704166666666666 0 0  0.275 0 0  0.2795833333333334 0 0  0.2841666666666667 0 0  0.28875 0 0  0.2933333333333333 0 0  0.2979166666666667 0 0  0.3025 0 0  0.3070833333333334 0 0  0.3116666666666666 0 0  0.31625 0 0  0.3208333333333333 0 0  0.3254166666666667 0 0  0.33 0 0  0.3345833333333333 0 0  0.3391666666666667 0 0  0.34375 0 0  0.3483333333333333 0 0  0.3529166666666667 0 0  0.3575 0 0  0.3620833333333333 0 0  0.3666666666666667 0 0  0.37125 0 0  0.3758333333333334 0 0  0.3804166666666667 0 0  0.3850000000000001 0 0  0.3895833333333333 0 0  0.3941666666666667 0 0  0.39875 0 0  0.4033333333333334 0 0  0.4079166666666666 0 0  0.4125 0 0  0.4170833333333334 0 0  0.4216666666666667 0 0  0.42625 0 0  0.4308333333333333 0 0  0.4354166666666667 0 0  0.44 0 0  0.4445833333333333 0 0  0.4491666666666667 0 0  0.45375 0 0  0.4583333333333333 0 0  0.4629166666666666 0 0  0.4675 0 0  0.4720833333333334 0 0  0.4766666666666667 0 0  0.4812500000000001 0 0  0.4858333333333333 0 0  0.4904166666666667 0 0  0.495 0 0  0.4995833333333334 0 0  0.5041666666666667 0 0  0.50875 0 0  0.5133333333333334 0 0  0.5179166666666667 0 0  0.5225 0 0  0.5270833333333333 0 0  0.5316666666666667 0 0  0.53625 0 0  0.5408333333333333 0 0  0.5454166666666667 0 0  0.55 0 0  0.5545833333333333 0 0  0.5591666666666667 0 0  0.5637500000000001 0 0  0.5683333333333334 0 0  0.5729166666666666 0 0  0.5775 0 0  0.5820833333333334 0 0  0.5866666666666667 0 0  0.5912499999999999 0 0  0.5958333333333334 0 0  0.6004166666666667 0 0  0.605 0 0  0.6095833333333334 0 0  0.6141666666666667 0 0  0.61875 0 0  0.6233333333333333 0 0  0.6279166666666667 0 0  0.6325000000000001 0 0  0.6370833333333333 0 0  0.6416666666666666 0 0  0.64625 0 0  0.6508333333333334 0 0  0.6554166666666666 0 0  0.6599999999999999 0 0  0.6645833333333334 0 0  0.6691666666666667 0 0  0.67375 0 0  0.6783333333333333 0 0  0.6829166666666667 0 0  0.6875 0 0  0.6920833333333333 0 0  0.6966666666666667 0 0  0.70125 0 0  0.7058333333333333 0 0  0.7104166666666667 0 0  0.7150000000000001 0 0  0.7195833333333334 0 0  0.7241666666666666 0 0  0.72875 0 0  0.7333333333333334 0 0  0.7379166666666667 0 0  0.7425 0 0  0.7470833333333333 0 0  0.7516666666666667 0 0  0.75625 0 0  0.7608333333333334 0 0  0.7654166666666666 0 0  0.7700000000000001 0 0  0 0.002380952380952381 0  0.004583333333333333 0.002380952380952381 0  0.009166666666666667 0.002380952380952381 0  0.01375 0.002380952380952381 0  0.01833333333333333 0.002380952380952381 0  0.02291666666666667 0.002380952380952381 0  0.0275 0.002380952380952381 0  0.03208333333333334 0.002380952380952381 0  0.03666666666666667 0.002380952380952381 0  0.04125 0.002380952380952381 0  0.04583333333333334 0.002380952380952381 0  0.05041666666666667 0.002380952380952381 0  0.055 0.002380952380952381 0  0.05958333333333334 0.002380952380952381 0  0.06416666666666668 0.002380952380952381 0  0.06875000000000001 0.002380952380952381 0  0.07333333333333333 0.002380952380952381 0  0.07791666666666666 0.002380952380952381 0  0.08249999999999999 0.002380952380952381 0  0.08708333333333333 0.002380952380952381 0  0.09166666666666667 0.002380952380952381 0  0.09625000000000002 0.002380952380952381 0  0.1008333333333333 0.002380952380952381 0  0.1054166666666667 0.002380952380952381 0  0.11 0.002380952380952381 0  0.1145833333333333 0.002380952380952381 0  0.1191666666666667 0.002380952380952381 0  0.12375 0.002380952380952381 0  0.1283333333333334 0.002380952380952381 0  0.1329166666666667 0.002380952380952381 0  0.1375 0.002380952380952381 0  0.1420833333333333 0.002380952380952381 0  0.1466666666666667 0.002380952380952381 0  0.15125 0.002380952380952381 0  0.1558333333333333 0.002380952380952381 0  0.1604166666666667 0.002380952380952381 0  0.165 0.002380952380952381 0  0.1695833333333333 0.002380952380952381 0  0.1741666666666667 0.002380952380952381 0  0.17875 0.002380952380952381 0  0.1833333333333333 0.002380952380952381 0  0.1879166666666667 0.002380952380952381 0  0.1925 0.002380952380952381 0  0.1970833333333333 0.002380952380952381 0  0.2016666666666667 0.002380952380952381 0  0.20625 0.002380952380952381 0  0.2108333333333333 0.002380952380952381 0  0.2154166666666666 0.002380952380952381 0  0.22 0.002380952380952381 0  0.2245833333333334 0.002380952380952381 0  0.2291666666666667 0.002380952380952381 0  0.23375 0.002380952380952381 0  0.2383333333333333 0.002380952380952381 0  0.2429166666666667 0.002380952380952381 0  0.2475 0.002380952380952381 0  0.2520833333333333 0.002380952380952381 0  0.2566666666666667 0.002380952380952381 0  0.26125 0.002380952380952381 0  0.2658333333333334 0.002380952380952381 0  0.2704166666666666 0.002380952380952381 0  0.275 0.002380952380952381 0  0.2795833333333334 0.002380952380952381 0  0.2841666666666667 0.002380952380952381 0  0.28875 0.002380952380952381 0  0.2933333333333333 0.002380952380952381 0  0.2979166666666667 0.002380952380952381 0  0.3025 0.002380952380952381 0  0.3070833333333334 0.002380952380952381 0  0.3116666666666666 0.002380952380952381 0  0.31625 0.002380952380952381 0  0.3208333333333333 0.002380952380952381 0  0.3254166666666667 0.002380952380952381 0  0.33 0.002380952380952381 0  0.3345833333333333 0.002380952380952381 0  0.3391666666666667 0.002380952380952381 0  0.34375 0.002380952380952381 0  0.3483333333333333 0.002380952380952381 0  0.3529166666666667 0.002380952380952381 0  0.3575 0.002380952380952381 0  0.3620833333333333 0.002380952380952381 0  0.3666666666666667 0.002380952380952381 0  0.37125 0.002380952380952381 0  0.3758333333333334 0.002380952380952381 0  0.3804166666666667 0.002380952380952381 0  0.3850000000000001 0.002380952380952381 0  0.3895833333333333 0.002380952380952381 0  0.3941666666666667 0.002380952380952381 0  0.39875 0.002380952380952381 0  0.4033333333333334 0.002380952380952381 0  0.4079166666666666 0.002380952380952381 0  0.4125 0.002380952380952381 0  0.4170833333333334 0.002380952380952381 0  0.4216666666666667 0.002380952380952381 0  0.42625 0.002380952380952381 0  0.4308333333333333 0.002380952380952381 0  0.4354166666666667 0.002380952380952381 0  0.44 0.002380952380952381 0  0.4445833333333333 0.002380952380952381 0  0.4491666666666667 0.002380952380952381 0  0.45375 0.002380952380952381 0  0.4583333333333333 0.002380952380952381 0  0.4629166666666666 0.002380952380952381 0  0.4675 0.002380952380952381 0  0.4720833333333334 0.002380952380952381 0  0.4766666666666667 0.002380952380952381 0  0.4812500000000001 0.002380952380952381 0  0.4858333333333333 0.002380952380952381 0  0.4904166666666667 0.002380952380952381 0  0.495 0.002380952380952381 0  0.4995833333333334 0.002380952380952381 0  0.5041666666666667 0.002380952380952381 0  0.50875 0.002380952380952381 0  0.5133333333333334 0.002380952380952381 0  0.5179166666666667 0.002380952380952381 0  0.5225 0.002380952380952381 0  0.5270833333333333 0.002380952380952381 0  0.5316666666666667 0.002380952380952381 0  0.53625 0.002380952380952381 0  0.5408333333333333 0.002380952380952381 0  0.5454166666666667 0.002380952380952381 0  0.55 0.002380952380952381 0  0.5545833333333333 0.002380952380952381 0  0.5591666666666667 0.002380952380952381 0  0.5637500000000001 0.002380952380952381 0  0.5683333333333334 0.002380952380952381 0  0.5729166666666666 0.002380952380952381 0  0.5775 0.002380952380952381 0  0.5820833333333334 0.002380952380952381 0  0.5866666666666667 0.002380952380952381 0  0.5912499999999999 0.002380952380952381 0  0.5958333333333334 0.002380952380952381 0  0.6004166666666667 0.002380952380952381 0  0.605 0.002380952380952381 0  0.6095833333333334 0.002380952380952381 0  0.6141666666666667 0.002380952380952381 0  0.61875 0.002380952380952381 0  0.6233333333333333 0.002380952380952381 0  0.6279166666666667 0.002380952380952381 0  0.6325000000000001 0.002380952380952381 0  0.6370833333333333 0.002380952380952381 0  0.6416666666666666 0.002380952380952381 0  0.64625 0.002380952380952381 0  0.6508333333333334 0.002380952380952381 0  0.6554166666666666 0.002380952380952381 0  0.6599999999999999 0.002380952380952381 0  0.6645833333333334 0.002380952380952381 0  0.6691666666666667 0.002380952380952381 0  0.67375 0.002380952380952381 0  0.6783333333333333 0.002380952380952381 0  0.6829166666666667 0.002380952380952381 0  0.6875 0.002380952380952381 0  0.6920833333333333 0.002380952380952381 0  0.6966666666666667 0.002380952380952381 0  0.70125 0.002380952380952381 0  0.7058333333333333 0.002380952380952381 0  0.7104166666666667 0.002380952380952381 0  0.7150000000000001 0.002380952380952381 
[...]
<PointData  Scalars="concentration"> 
<DataArray  type="Float64"  Name="concentration"  format="ascii">0.0000000000000000e+00  8.0096309953779310e-02  2.3034538443323477e-01  1.7610282636420541e-01  -2.3239508851308332e-02  -1.3067153879982779e-01  -1.7180381519300630e-01  -1.8850773076394176e-01  -1.7735152823846506e-01  -7.9890779874120688e-02  1.1120198170900519e-02  6.9581492843054675e-03  7.4971994967400358e-03  -1.3464162935576112e-03  7.0251722601731336e-03  -9.9064085251094319e-03  1.6339166454857976e-02  -1.2987073860162113e-02  -8.0670106403239183e-03  2.3872777265101612e-02  -2.2696203450395542e-02  1.8365351124549806e-02  -1.2681358966448035e-02  2.2507848574137138e-02  -2.6725319432480740e-02  1.5235830945592806e-02  -8.9357213831589718e-04  8.9308441283759629e-03  -1.0421176685366648e-02  2.2096927416390751e-02  -1.6356735180917650e-02  3.2086956532938950e-02  -2.3000103777491839e-02  4.6730474550079976e-02  -1.9948628646309141e-02  4.7826835285465795e-02  6.0510844730858743e-03  6.7018525431858780e-02  2.5279546347957794e-02  6.6037290189715780e-01  8.8280825835537702e-01  1.0964594942950625e+00  8.7600851530730817e-01  1.0806367919309530e+00  8.8211173108640817e-01  1.0776373830407984e+00  8.8507981399577107e-01  1.0762002717140911e+00  8.8707135217444499e-01  1.0762117514566978e+00  8.8911132353761380e-01  1.0773213170271718e+00  8.9034823007950237e-01  1.0470564066196253e+00  8.8713905073278720e-01  1.0901954798524167e+00  8.7343334691824415e-01  1.1133657341030863e+00  1.0237107034492965e+00  9.7885171142354199e-01  1.0091545523995420e+00  9.8773214455306269e-01  1.0004558212932610e+00  1.0210718477177714e+00  9.7868758117951193e-01  9.7276679078884087e-01  1.0066169116241679e+00  1.0002132374312549e+00  1.0389254466157656e+00  1.0046091214606678e+00  9.3985041410011827e-01  9.4440781279309449e-01  8.0259881202347994e-01  9.6981563304080920e-01  9.6017969091556310e-01  1.0754440851295730e+00  7.7852469899758026e-01  1.2320716220574304e+00  7.1488045863610450e-01  1.3161098192811675e+00  6.6236767465590929e-01  1.3331472940994540e+00  6.5987837220221590e-01  1.3363317345620589e+00  6.7012721205516801e-01  1.3305786817155043e+00  6.8247560204521918e-01  1.3201714965248958e+00  6.9843128176264480e-01  1.3073728354433369e+00  7.1979532144861003e-01  1.2880497670941622e+00  7.5134574842579549e-01  1.2264312001678288e+00  7.6990629157061741e-01  1.2153805323961073e+00  7.8567380447067636e-01  1.2132230969687705e+00  7.8989899536056907e-01  1.2102141549634231e+00  7.9241788504806332e-01  1.2079983364265547e+00  7.9401958434873721e-01  1.2064360131106657e+00  7.9507570778777570e-01  1.2053439115290248e+00  7.9583184765853798e-01  1.2045461271750446e+00  7.9647577363235067e-01  1.2038625539788033e+00  7.9719672373140782e-01  1.2030613557700196e+00  7.9825695585780754e-01  1.2017567996439920e+00  8.0010529803265928e-01  1.1991957739895771e+00  8.0358492468206133e-01  1.1937997937108660e+00  8.1033593347597066e-01  1.1821770802231619e+00  8.2364984902979343e-01  1.1572534868427680e+00  8.5093094813329773e-01  1.1080378205897532e+00  9.1691559660878663e-01  1.0627083676753728e+00  9.5294349308260251e-01  1.0244819297148942e+00  9.7747680984334606e-01  1.0035148420468338e+00  9.9099758282793105e-01  9.9637938737117093e-01  1.0007542270141896e+00  9.9371941666080510e-01  1.0140106306512875e+00  9.9739757899286208e-01  1.0327151881825802e+00  9.9178415650138363e-01  1.0563644583763097e+00  1.0193010532450697e+00  1.2638031859377763e+00  8.9004821649878796e-01  9.4234690137693244e-01  9.7023154405018053e-01  9.8877519107425249e-01  9.9673658862998349e-01  9.9992449862195953e-01  1.0009768651304629e+00  1.0011494164255959e+00  1.0010051910366107e+00  1.0007825067928715e+00  1.0005727647715121e+00  1.0004037077765584e+00  1.0002774449601957e+00  1.0001872774243805e+00  1.0001247432573426e+00  1.0000822504201843e+00  1.0000538040421527e+00  1.0000349744187904e+00  1.0000226190921173e+00  1.0000145673567715e+00  1.0000093491861792e+00  1.0000059821034664e+00  1.0000038169573022e+00  1.0000024300480324e+00  1.0000015369258421e+00  1.0000009912476056e+00  1.0000005362429549e+00  1.0000007299501315e+00  0.0000000000000000e+00  -1.8718458439950545e-02  -1.0170781072754269e-01  6.5390622292474609e-02  6.2680366927576170e-01  9.0464403351139211e-01  9.6998939444511156e-01  9.2654578957005751e-01  9.4138421192425670e-01  3.0983892057039980e-01  1.3932634839576516e-01  8.3861264579911013e-02  4.7691535629318590e-02  3.4963939292789549e-02  1.4035125880641142e-02  2.2500644120444509e-02  -7.6285424067146406e-03  1.9478423788915775e-02  9.6127586419093615e-03  -2.1335490614099138e-02  2.4764211322568137e-02  -1.7317761408339731e-02  1.4276815664866375e-02  -1.9304331773264377e-02  2.9429251058763591e-02  -1.4128618598269409e-02  3.8602990830752669e-03  -4.4650236804497671e-03  1.4991653377496894e-02  -1.5480643712694007e-02  2.4059759951372713e-02  -2.1239969768782653e-02  3.5529874631167649e-02  -2.9352526570545281e-02  4.2410852033933508e-02  -1.9175910256688210e-02  3.3402896272745369e-02  -1.1590774400802575e-02  5.3740756676196426e-02  -2.8392478951076206e-02  7.2917008002885353e-01  2.9999680062643103e-01  8.1554386799797840e-01  3.1079367673993158e-01  8.1049300832773996e-01  3.0956722054747537e-01  8.0553665599734814e-01  3.1137085831629224e-01  8.0273574271958037e-01  3.1597854642975848e-01  8.0440906063154871e-01  3.2608432253862213e-01  8.1526890358378545e-01  3.4773642896290430e-01  7.4325593667099055e-01  3.1082383327332108e-01  7.6574741912924682e-01  3.3237482127932161e-01  8.1739903812522885e-01  1.0594238598651979e+00  9.9555618843163984e-01  1.0268198487016786e+00  9.8827600307136898e-01  9.8144140894396303e-01  1.0547838702363812e+00  1.0008500847298623e+00  9.1326906624775339e-01  9.3107143179795415e-01  9.1842212960989478e-01  1.0231318429388168e+00  1.0647783652460203e+00  9.2185018472908908e-01  8.6225663998564550e-01  2.4819320492724445e-01  9.3263733053522729e-02  1.7693908406443172e-02  1.9562161970304742e-01  -1.8408268724576121e-01  2.0003943276735850e-01  -2.5240823424744208e-01  2.4350939906013791e-01  -2.5026936497509428e-01  2.4968914918948185e-01  -2.4351286702690669e-01  2.4902834914473393e-01  -2.3402901604122817e-01  2.4832687163346828e-01  -2.2458082249909367e-01  2.4538653963437124e-01  -2.1604705909166419e-01  2.4061415335736094e-01  -1.9918569339168721e-01  2.3442794804927006e-01  -1.5542101886978799e-01  2.0087515094654956e-01  -1.4979869827901879e-01  1.8512044349530082e-01  -1.5791292088788944e-01  1.7736199705717728e-01  -1.6210504164902503e-01  1.7311067061807431e-01  -1.6418084493054999e-01  1.7078020972894956e-01  -1.6516746331756293e-01  1.6950130939126892e-01  -1.6556022990451183e-01  1.6881506490002871e-01  -1.6555939746833909e-01  1.6847159536090309e-01  -1.6519487962323193e-01  1.6830159190435781e-01  -1.6436772477954109e-01  1.6811193900010266e-01  -1.6283145979659580e-01  1.6754351124375896e-01  -1.6011741748128711e-01  1.6579097878467747e-01  -1.5539198118690289e-01  1.6097547044690080e-01  -1.4723189871252451e-01  1.4868762553813794e-01  -1.3335371575948882e-01  1.1876372967742886e-01  -1.1063707565395242e-01  4.9705310265595479e-02  -7.5822448614326077e-02  2.1474037666594850e-02  -3.8790078140310491e-02  3.8394855488821687e-04  -2.4176457266887885e-02  -1.5476677894642819e-02  -2.1612793829155912e-02  -2.3414235254990680e-02  -1.5636970710908488e-02  -2.2584154436918726e-02  4.6822562600203456e-03  3.6446374363450908e-03  4.5571005443192911e-02  2.0180569780400837e-02  8.9568662450554976e-02  4.7697080182941146e-03  2.2326357061256899e-01  4.2989266360436906e-01  6.4189491511434971e-01  7.7872013701979792e-01  8.6203329046930166e-01  9.1353888896405422e-01  9.4565598900298575e-01  9.6578352897093112e-01  9.7843378202577258e-01  9.8639827763234378e-01  9.9141799844621159e-01  9.9458384800461286e-01  9.9658132921081621e-01  9.9784195988174285e-01  9.9863768061803737e-01  9.9913999036815127e-01  9.9945709367067093e-01  9.9965728060436354e-01  9.9978365723593099e-01  9.9986343649611775e-01  9.9991379786980261e-01  9.9994558785089926e-01  9.9996565383324665e-01  9.9997831795175063e-01  9.9998631249291492e-01  9.9999134925422006e-01  9.9999453739178035e-01  9.9999655768980755e-01  0.0000000000000000e+00  5.9885774656850716e-04  -1.5844415283483178e-02  1.7261840474801057e-01  5.8496463456121341e-02  6.2638889631347283e-02  5.3132116799555873e-02  7.2330505292837202e-02  2.1984581642603106e-02  -4.0531067798949189e-02  -3.6815840550466550e-02  -2.7519632030940318e-02  -1.4472392580388165e-02  -1.4661269247174801e-02  -2.0740314501757674e-03  -1.4070581133186764e-02  1.1895122664728353e-02  -2.0980445476419259e-02  8.7751289483335953e-04  2.4173712330687238e-02  -2.6126175286920253e-02  2.2454696672172345e-02  -1.4622682286068913e-02  1.7123101879230974e-02  -3.1184215926059418e-02  2.3851924068664158e-02  -1.8002174033274730e-03  5.3889871596712116e-03  -1.1331613275999896e-02  1.9383752362216004e-02  -2.0672153374512538e-02  2.5907302945539803e-02  -3.0398246465277067e-02  3.7287003292360531e-02  -3.8852241325808244e-02  3.2591245974984272e-02  -2.7325435700491736e-02  1.8977207993225768e-02  -3.6165308479320479e-02  4.6211972055090145e-02  -1.0316658293327977e-01  -3.3993404903807062e-02  -8.4733221028467753e-02  -1.4978484467025344e-02  -7.2797398516422959e-02  -7.3758931527385082e-03  -6.7460413048927442e-02  -6.6672000787905764e-03  -6.4208081873144834e-02  -8.1390025801204822e-03  -6.0879702299299981e-02  -6.7715917963745839e-03  -5.1115485150159450e-02  8.7204789921709359e-03  -5.8551405529041487e-03  3.2489759458793642e-02  -2.7717644254332346e-02  1.3737980243694086e-02  -9.9612415971003874e-03  -3.5417408025658133e-02  4.2565711754885081e-03  -1.7745341640713775e-02  1.5594698643314387e-02  1.1037747995210541e-02  -3.3540909574179961e-02  3.7329445489471147e-02  7.6979941342367991e-02  2.5053993784505273e-02  1.4094559741261448e-04  -6.8441265264136172e-02  -8.8377611579569290e-02  -2.6344423536431370e-02  -5.8131793052239096e-02  -6.1453695761833009e-02  -2.8868672196556231e-02  -7.2632061006624301e-03  -1.9234204437054714e-01  1.7939137080900691e-01  -2.2841803916473763e-01  2.2786276228990407e-01  -2.8860697657757295e-01  2.2078167669123189e-01  -2.9152164513644635e-01  2.2188176070295368e-01  -2.8208628359532767e-01  2.2177352644630491e-01  -2.7257636486339565e-01  2.2116877157452394e-01  -2.6340485848273637e-01  2.1855705416448826e-01  -2.5626561744231818e-01  2.0531018214314417e-01  -2.4668040929337925e-01  1.7429293539702015e-01  -1.9844574311038388e-01  1.6876057679455528e-01  -1.8033291242088015e-01  1.7942168748443982e-01  -1.7217256398547917e-01  1.8330713872813748e-01  -1.6917554152127187e-01  1.8410671145680477e-01  -1.6839600226573562e-01  1.8380184732973973e-01  -1.6837625702457779e-01  1.8328152283572213e-01  -1.6843183005622053e-01  1.8290278748325622e-01  -1.6821929255903786e-01  1.8278301305564348e-01  -1.6749046252784935e-01  1.8292642774209758e-01  -1.6592960478860555e-01  1.8324551029277397e-01  -1.6299028420984815e-01  1.8348767653801040e-01  -1.5764354079086182e-01  1.8302039157325742e-01  -1.4789831208683960e-01  1.8033796754532250e-01  -1.2982474276231751e-01  1.7196558573163367e-01  -9.5731711814147510e-02  1.4999703645852763e-01  -3.2435229432617105e-02  9.5845414387950245e-02  -1.6649194601516818e-02  4.4259447154915706e-02  -3.0617886236542508e-03  2.0045349492695600e-02  5.6596456347184076e-03  7.6966448295097394e-03  3.9810774722597846e-03  -8.2148598471214855e-03  -4.7385376782814606e-03  -3.3104812046978557e-02  -2.7525271845693915e-02  -5.9901219755603384e-02  -2.1864763515452079e-02  -7.3369642409696692e-02  3.1250491327045833e-02  -7.2707692562417797e-02  1.2229497287780464e-01  4.4272824383293319e-01  6.5435538224825507e-01  7.8528417660395089e-01  8.6627910073027892e-01  9.1647104342067709e-01  9.4767855627405551e-01  9.6714889865784504e-01  9.7933383915516581e-01  9.8697912038681423e-01  9.9178608752544428e-01  9.9481349115427686e-01  9.9672262898948560e-01  9.9792780144737103e-01  9.9868919541463008e-01  9.9917052548620722e-01  9.9947495806154407e-01  9.9966758148680646e-01  9.9978949727142774e-01  9.9986667956226949e-01  9.9991555099239626e-01  9.9994650062911206e-01  9.9996610265284935e-01  9.9997851710819341e-01  9.9998638027527464e-01  9.9999136815820810e-01  9.9999449261544615e-01  0.0000000000000000e+00  -4.8976294092885715e-03  3.6126962242485690e-02  -8.7536379588220900e-02  -5.6124481475929629e-03  -9.8543493896041147e-03  -7.2501151892800098e-03  -3.8761051057030774e-02  -4.0691484002734847e-02  -1.1046861090936048e-02  1.1510655482092013e-03  6.0149540607095557e-03  1.8545815581869488e-03  6.8357867059785629e-03  -1.9674245692093847e-03  9.2227287504725135e-03  -1.3333101977917762e-02  2.4585825810909224e-02  -1.9256750854357407e-02  -2.5293090997932831e-02  3.0434980028009533e-02  -2.9530392615953378e-02  1.8125530126002411e-02  -1.1656866106196971e-02  3.2656098886400989e-02  -4.0330572264414111e-02  2.9241540183895538e-03  -2.0138780372957956e-03  1.0028685936608564e-02  -1.9478038850372248e-02  2.2086121853382254e-02  -2.5232875454897805e-02  3.0841078156413803e-02  -3.8859586658723390e-02  4.4264681513154047e-02  -4.2262227632309655e-02  3.1126103580990300e-02  -2.2457836673942289e-02  2.4534747636386123e-02  -4.5684700752462643e-02  5.9364902201794960e-02  -2.0594602203365493e-03  3.9506404941332972e-02  -1.7062081747532890e-02  2.9766053538222103e-02  -2.4035935067514530e-02  2.2848182506288207e-02  -2.7755621311223517e-02  1.5150667868109809e-02  -3.2222471957987685e-02  4.6911156801295491e-03  -4.3561227917912455e-02  -1.4541911668991769e-02  -7.2438831436940201e-02  -7.5701310567020480e-02  -6.3998877996385484e-02  2.0217810413332666e-02  3.3470948381667469e-02  6.6659444160643372e-02  6.7231848785170051e-02  1.2834465126949848e-02  2.9823174449327416e-02  -1.5377424057262147e-02  -2.6372665142053312e-03  3.2895665608783459e-02  -6.0441776602100587e-02  -9.5565602855695111e-02  -1.4839992723989113e-02  4.8675383458424260e-02  1.1723392246631055e-01  9.6099302549973550e-02  8.2944285070848268e-03  2.0413361244226869e-02  4.0091131481441084e-02  9.4444907085341645e-02  1.2419443496608609e-01  2.4790447987531258e-01  -1.1373767412179962e-01  3.0603325468868903e-01  -1.9052226637851938e-01  3.3533317613255442e-01  -2.3545242827890153e-01  2.7666102557457467e-01  -3.0537075384254314e-01  2.0565100162960062e-01  -3.6056538507768465e-01  1.4873337595861949e-01  -3.9999557990280737e-01  1.0820862755144565e-01  -4.2534144180866307e-01  7.8432736559517380e-02  -4.3857864262168522e-01  4.1494154477514027e-02  -4.4665537013205336e-01  -5.3306571491106715e-02  -4.0286481766232085e-01  7.8947546553377653e-03  -3.5407339994814530e-01  4.6299230021283840e-02  -3.2248480183975620e-01  7.1349937647012390e-02  -3.0160051991877368e-01  8.7992585085724648e-02  -2.8762368244931596e-01  9.9147519056327280e-02  -2.7817810542162713e-01  1.0666815097684071e-01  -2.7167861772455115e-01  1.1177580461979451e-01  -2.6699933081998156e-01  1.1528034526277332e-01  -2.6325292582627685e-01  1.1769624014952805e-01  -2.5958635989064183e-01  1.1929124808831011e-01  -2.5490677801370271e-01  1.2007373645640930e-01  -2.4739455181349659e-01  1.1971164034371881e-01  -2.3349723329463712e-01  1.1739594068446393e-01  -2.0567871259305859e-01  1.1192815368532796e-01  -1.4713588306932388e-01  1.0431240732266558e-01  -1.8073476668039833e-02  1.3822827527682052e-01  8.6702939310006319e-02  1.6098370526580641e-01  1.5063773511627318e-01  1.8685467746954193e-01  2.0339540474233905e-01  2.2927698821078313e-01  2.6194953849966895e-01  2.7813327393887416e-01  3.2192418925577465e-01  2.7300510811408707e-01  2.5847164850692256e-01  2.0382406881269879e-01  2.0346300358040834e-01  6.4086190339486385e-02  1.9258831437586105e-01  3.5421336749386462e-01  5.6652891850715281e-01  7.2666960607793185e-01  8.3020425386976560e-01  8.9480672941399009e-01  9.3472204307614271e-01  9.5936959268062227e-01  9.7463117437451430e-01  9.8411560407322807e-01  9.9003079798313964e-01  9.9373140105011459e-01  9.9605244894226841e-01  9.9751119900718499e-01  9.9842947433057772e-01  9.9900824479742789e-01  9.9937338490195393e-01  9.9960392080125304e-01  9.9974955707862601e-01  9.9984160164675684e-01  9.9989979547266794e-01  9.9993659793135226e-01  9.9995987663189545e-01  9.9997460334063226e-01  9.9998392020987403e-01  9.9998981654151431e-01  9.9999353252631917e-01  9.9999590342512090e-01  0.0000000000000000e+00  9.2727864916697239e-03  -3.4168025624965605e-02  4.8375007626444373e-02  -7.6700431579633434e-03  -5.7637987330594678e-03  -1.5355267724899105e-02  1.3030663409308091e-03  1.5235528811593856e-02  8.7945085271386638e-03  4.2281443885836016e-03  -1.0851906092347551e-03  1.6285277325817234e-03  -3.0230254647159371e-03  5.3192371276033837e-03  -1.8281091318842779e-03  1.6984706098527900e-02  -2.3523825200943281e-02  5.0953754289617827e-02  2.3068524352307797e-02  -3.7064568814108106e-02  4.0220957825845727e-02  -2.4773808854439340e-02  6.1213381839667095e-03  -2.7045505890486543e-02  6.7666782021592028e-02  -9.0327440485686340e-03  -5.6810070905939447e-03  -1.0335752672574586e-02  1.5774617955298303e-02  -2.8543218155740343e-02  1.9636046001566054e-02  -3.5503781721170524e-02  3.5601164239907210e-02  -5.4807468412257185e-02  5.0832364387819025e-02  -4.4320333471081462e-02  2.4422011515048133e-02  -2.1978418899167518e-02  3.4908073674207930e-02  -4.1008602755536014e-02  8.6354990746327683e-03  -2.8590057039927098e-02  1.3792747949269593e-02  -2.6521544993975858e-02  1.2961365057788200e-02  -2.6766118154700768e-02  8.1136200707704331e-03  -2.8863770290128252e-02  -7.9534509971778159e-04  -3.5486950729859114e-02  -1.3721557893747493e-02  -5.2502458764337297e-02  -3.8220068685701249e-02  -9.4210859431557423e-02  -5.7568689469059214e-02  5.3454038448294810e-03  -1.8724621112746191e-02  9.9937321886883548e-02  9.8232829086395707e-03  2.5873048913902557e-02  -2.9153852526774188e-02  -5.7849850790126422e-03  -6.2662957062488950e-02  -1.2307499612121342e-01  -2.7058022980164628e-02  -7.9036015623877659e-02  -6.0443795143659433e-02  -7.0308079956235933e-02  4.3305502368862221e-02  -1.9327679027924358e-02  3.1801371156363639e-02  -5.6942269652109087e-03  -5.9642899732602360e-02  -2.0244519598855851e-01  -1.2415002853731975e-02  -8.8483351273361308e-02  4.4329518403297336e-01  8.9160370922372362e-02  9.7217887596036034e-01  -3.2118110229750036e-03  9.0016274638041827e-01  -7.2411772385578312e-03  9.0857125790519122e-01  -1.8681211436861279e-02  8.8220124306192216e-01  -1.9558462151958077e-02  8.4302493741714279e-01  -2.8265904870674236e-02  8.2385814120759104e-01  -3.2318765396805268e-02  8.2123793061904382e-01  -3.3636409644715960e-02  8.0788664075176331e-01  -1.4459084307031786e-01  1.0764816679380276e+00  -1.2015615806103480e-01  1.0797104970113249e+00  -1.2473863615298268e-01  1.0740126464076047e+00  -1.3037956240294499e-01  1.0685128632758347e+00  -1.3499698582668940e-01  1.0642161177741272e+00  -1.3837381351279232e-01  1.0610893562263350e+00  -1.4067597305137020e-01  1.0588734577352563e+00  -1.4210869884279168e-01  1.0572830185214881e+00  -1.4279397994984294e-01  1.0560447455350208e+00  -1.4269945546591298e-01  1.0548668440794531e+00  -1.4153960612692995e-01  1.0533511164175624e+00  -1.3857975216271179e-01  1.0508013442840312e+00  -1.3225683032834390e-01  1.0457524030211038e+00  -1.1954756558896050e-01  1.0345917472358459e+00  -9.5555161092057625e-02  1.0065311527175207e+00  -5.6835357061007688e-02  9.3806794098778667e-01  4.2414189664560120e-01  1.0639932111945618e+00  8.1783365391215457e-01  1.0675875187909871e+00  9.4243238814848906e-01  1.0098508412912908e+00  9.5595308404376034e-01  9.6675660857863011e-01  9.6503910438289942e-01  9.5648448286610510e-01  1.1455701806354788e+00  1.0993725912102816e+00  1.1619045938790145e+00  1.0233748267655132e+00  6.2982821885742690e-01  5.28894355882