<?xml version="1.0"?>
<VTKFile type="UnstructuredGrid"  version="0.1"  >
<UnstructuredGrid>
<Piece  NumberOfPoints="21400" NumberOfCells="42336">
<Points>
<DataArray  type="Float64"  NumberOfComponents="3"  format="ascii">0 0 0  0.004583333333333333 0 0  0.009166666666666667 0 0  0.01375 0 0  0.01833333333333333 0 0  0.02291666666666667 0 0  0.0275 0 0  0.03208333333333334 0 0  0.03666666666666667 0 0  0.04125 0 0  0.04583333333333334 0 0  0.05041666666666667 0 0  0.055 0 0  0.05958333333333334 0 0  0.06416666666666668 0 0  0.06875000000000001 0 0  0.07333333333333333 0 0  0.07791666666666666 0 0  0.08249999999999999 0 0  0.08708333333333333 0 0  0.09166666666666667 0 0  0.09625000000000002 0 0  0.1008333333333333 0 0  0.1054166666666667 0 0  0.11 0 0  0.1145833333333333 0 0  0.1191666666666667 0 0  0.12375 0 0  0.1283333333333334 0 0  0.1329166666666667 0 0  0.1375 0 0  0.1420833333333333 0 0  0.1466666666666667 0 0  0.15125 0 0  0.1558333333333333 0 0  0.1604166666666667 0 0  0.165 0 0  0.1695833333333333 0 0  0.1741666666666667 0 0  0.17875 0 0  0.1833333333333333 0 0  0.1879166666666667 0 0  0.1925 0 0  0.1970833333333333 0 0  0.2016666666666667 0 0  0.20625 0 0  0.2108333333333333 0 0  0.2154166666666666 0 0  0.22 0 0  0.2245833333333334 0 0  0.2291666666666667 0 0  0.23375 0 0  0.2383333333333333 0 0  0.2429166666666667 0 0  0.2475 0 0  0.2520833333333333 0 0  0.2566666666666667 0 0  0.26125 0 0  0.2658333333333334 0 0  0.2704166666666666 0 0  0.275 0 0  0.2795833333333334 0 0  0.2841666666666667 0 0  0.28875 0 0  0.2933333333333333 0 0  0.2979166666666667 0 0  0.3025 0 0  0.3070833333333334 0 0  0.3116666666666666 0 0  0.31625 0 0  0.3208333333333333 0 0  0.3254166666666667 0 0  0.33 0 0  0.3345833333333333 0 0  0.3391666666666667 0 0  0.34375 0 0  0.3483333333333333 0 0  0.3529166666666667 0 0  0.3575 0 0  0.3620833333333333 0 0  0.3666666666666667 0 0  0.37125 0 0  0.3758333333333334 0 0  0.3804166666666667 0 0  0.3850000000000001 0 0  0.3895833333333333 0 0  0.3941666666666667 0 0  0.39875 0 0  0.4033333333333334 0 0  0.4079166666666666 0 0  0.4125 0 0  0.4170833333333334 0 0  0.4216666666666667 0 0  0.42625 0 0  0.4308333333333333 0 0  0.4354166666666667 0 0  0.44 0 0  0.4445833333333333 0 0  0.4491666666666667 0 0  0.45375 0 0  0.4583333333333333 0 0  0.4629166666666666 0 0  0.4675 0 0  0.4720833333333334 0 0  0.4766666666666667 0 0  0.4812500000000001 0 0  0.4858333333333333 0 0  0.4904166666666667 0 0  0.495 0 0  0.4995833333333334 0 0  0.5041666666666667 0 0  0.50875 0 0  0.5133333333333334 0 0  0.5179166666666667 0 0  0.5225 0 0  0.5270833333333333 0 0  0.5316666666666667 0 0  0.53625 0 0  0.5408333333333333 0 0  0.5454166666666667 0 0  0.55 0 0  0.5545833333333333 0 0  0.5591666666666667 0 0  0.5637500000000001 0 0  0.5683333333333334 0 0  0.5729166666666666 0 0  0.5775 0 0  0.5820833333333334 0 0  0.5866666666666667 0 0  0.5912499999999999 0 0  0.5958333333333334 0 0  0.6004166666666667 0 0  0.605 0 0  0.6095833333333334 0 0  0.6141666666666667 0 0  0.61875 0 0  0.6233333333333333 0 0  0.6279166666666667 0 0  0.6325000000000001 0 0  0.6370833333333333 0 0  0.6416666666666666 0 0  0.64625 0 0  0.6508333333333334 0 0  0.6554166666666666 0 0  0.6599999999999999 0 0  0.6645833333333334 0 0  0.6691666666666667 0 0  0.67375 0 0  0.6783333333333333 0 0  0.6829166666666667 0 0  0.6875 0 0  0.6920833333333333 0 0  0.6966666666666667 0 0  0.70125 0 0  0.7058333333333333 0 0  0.7104166666666667 0 0  0.7150000000000001 0 0  0.7195833333333334 0 0  0.7241666666666666 0 0  0.72875 0 0  0.7333333333333334 0 0  0.7379166666666667 0 0  0.7425 0 0  0.7470833333333333 0 0  0.7516666666666667 0 0  0.75625 0 0  0.7608333333333334 0 0  0.7654166666666666 0 0  0.7700000000000001 0 0  0 0.002380952380952381 0  0.004583333333333333 0.002380952380952381 0  0.009166666666666667 0.002380952380952381 0  0.01375 0.002380952380952381 0  0.01833333333333333 0.002380952380952381 0  0.02291666666666667 0.002380952380952381 0  0.0275 0.002380952380952381 0  0.03208333333333334 0.002380952380952381 0  0.03666666666666667 0.002380952380952381 0  0.04125 0.002380952380952381 0  0.04583333333333334 0.002380952380952381 0  0.05041666666666667 0.002380952380952381 0  0.055 0.002380952380952381 0  0.05958333333333334 0.002380952380952381 0  0.06416666666666668 0.002380952380952381 0  0.06875000000000001 0.002380952380952381 0  0.07333333333333333 0.002380952380952381 0  0.07791666666666666 0.002380952380952381 0  0.08249999999999999 0.002380952380952381 0  0.08708333333333333 0.002380952380952381 0  0.09166666666666667 0.002380952380952381 0  0.09625000000000002 0.002380952380952381 0  0.1008333333333333 0.002380952380952381 0  0.1054166666666667 0.002380952380952381 0  0.11 0.002380952380952381 0  0.1145833333333333 0.002380952380952381 0  0.1191666666666667 0.002380952380952381 0  0.12375 0.002380952380952381 0  0.1283333333333334 0.002380952380952381 0  0.1329166666666667 0.002380952380952381 0  0.1375 0.002380952380952381 0  0.1420833333333333 0.002380952380952381 0  0.1466666666666667 0.002380952380952381 0  0.15125 0.002380952380952381 0  0.1558333333333333 0.002380952380952381 0  0.1604166666666667 0.002380952380952381 0  0.165 0.002380952380952381 0  0.1695833333333333 0.002380952380952381 0  0.1741666666666667 0.002380952380952381 0  0.17875 0.002380952380952381 0  0.1833333333333333 0.002380952380952381 0  0.1879166666666667 0.002380952380952381 0  0.1925 0.002380952380952381 0  0.1970833333333333 0.002380952380952381 0  0.2016666666666667 0.002380952380952381 0  0.20625 0.002380952380952381 0  0.2108333333333333 0.002380952380952381 0  0.2154166666666666 0.002380952380952381 0  0.22 0.002380952380952381 0  0.2245833333333334 0.002380952380952381 0  0.2291666666666667 0.002380952380952381 0  0.23375 0.002380952380952381 0  0.2383333333333333 0.002380952380952381 0  0.2429166666666667 0.002380952380952381 0  0.2475 0.002380952380952381 0  0.2520833333333333 0.002380952380952381 0  0.2566666666666667 0.002380952380952381 0  0.26125 0.002380952380952381 0  0.2658333333333334 0.002380952380952381 0  0.2704166666666666 0.002380952380952381 0  0.275 0.002380952380952381 0  0.2795833333333334 0.002380952380952381 0  0.2841666666666667 0.002380952380952381 0  0.28875 0.002380952380952381 0  0.2933333333333333 0.002380952380952381 0  0.2979166666666667 0.002380952380952381 0  0.3025 0.002380952380952381 0  0.3070833333333334 0.002380952380952381 0  0.3116666666666666 0.002380952380952381 0  0.31625 0.002380952380952381 0  0.3208333333333333 0.002380952380952381 0  0.3254166666666667 0.002380952380952381 0  0.33 0.002380952380952381 0  0.3345833333333333 0.002380952380952381 0  0.3391666666666667 0.002380952380952381 0  0.34375 0.002380952380952381 0  0.3483333333333333 0.002380952380952381 0  0.3529166666666667 0.002380952380952381 0  0.3575 0.002380952380952381 0  0.3620833333333333 0.002380952380952381 0  0.3666666666666667 0.002380952380952381 0  0.37125 0.002380952380952381 0  0.3758333333333334 0.002380952380952381 0  0.3804166666666667 0.002380952380952381 0  0.3850000000000001 0.002380952380952381 0  0.3895833333333333 0.002380952380952381 0  0.3941666666666667 0.002380952380952381 0  0.39875 0.002380952380952381 0  0.4033333333333334 0.002380952380952381 0  0.4079166666666666 0.002380952380952381 0  0.4125 0.002380952380952381 0  0.4170833333333334 0.002380952380952381 0  0.4216666666666667 0.002380952380952381 0  0.42625 0.002380952380952381 0  0.4308333333333333 0.002380952380952381 0  0.4354166666666667 0.002380952380952381 0  0.44 0.002380952380952381 0  0.4445833333333333 0.002380952380952381 0  0.4491666666666667 0.002380952380952381 0  0.45375 0.002380952380952381 0  0.4583333333333333 0.002380952380952381 0  0.4629166666666666 0.002380952380952381 0  0.4675 0.002380952380952381 0  0.4720833333333334 0.002380952380952381 0  0.4766666666666667 0.002380952380952381 0  0.4812500000000001 0.002380952380952381 0  0.4858333333333333 0.002380952380952381 0  0.4904166666666667 0.002380952380952381 0  0.495 0.002380952380952381 0  0.4995833333333334 0.002380952380952381 0  0.5041666666666667 0.002380952380952381 0  0.50875 0.002380952380952381 0  0.5133333333333334 0.002380952380952381 0  0.5179166666666667 0.002380952380952381 0  0.5225 0.002380952380952381 0  0.5270833333333333 0.002380952380952381 0  0.5316666666666667 0.002380952380952381 0  0.53625 0.002380952380952381 0  0.5408333333333333 0.002380952380952381 0  0.5454166666666667 0.002380952380952381 0  0.55 0.002380952380952381 0  0.5545833333333333 0.002380952380952381 0  0.5591666666666667 0.002380952380952381 0  0.5637500000000001 0.002380952380952381 0  0.5683333333333334 0.002380952380952381 0  0.5729166666666666 0.002380952380952381 0  0.5775 0.002380952380952381 0  0.5820833333333334 0.002380952380952381 0  0.5866666666666667 0.002380952380952381 0  0.5912499999999999 0.002380952380952381 0  0.5958333333333334 0.002380952380952381 0  0.6004166666666667 0.002380952380952381 0  0.605 0.002380952380952381 0  0.6095833333333334 0.002380952380952381 0  0.6141666666666667 0.002380952380952381 0  0.61875 0.002380952380952381 0  0.6233333333333333 0.002380952380952381 0  0.6279166666666667 0.002380952380952381 0  0.6325000000000001 0.002380952380952381 0  0.6370833333333333 0.002380952380952381 0  0.6416666666666666 0.002380952380952381 0  0.64625 0.002380952380952381 0  0.6508333333333334 0.002380952380952381 0  0.6554166666666666 0.002380952380952381 0  0.6599999999999999 0.002380952380952381 0  0.6645833333333334 0.002380952380952381 0  0.6691666666666667 0.002380952380952381 0  0.67375 0.002380952380952381 0  0.6783333333333333 0.002380952380952381 0  0.6829166666666667 0.002380952380952381 0  0.6875 0.002380952380952381 0  0.6920833333333333 0.002380952380952381 0  0.6966666666666667 0.002380952380952381 0  0.70125 0.002380952380952381 0  0.7058333333333333 0.002380952380952381 0  0.7104166666666667 0.002380952380952381 0  0.7150000000000001 0.002380952380952381 
[...]
<PointData  Scalars="concentration"> 
<DataArray  type="Float64"  Name="concentration"  format="ascii">0.0000000000000000e+00  8.0098417146382675e-02  2.3034267845708942e-01  1.7611386014870237e-01  -2.3233379162306885e-02  -1.3065874305395983e-01  -1.7179830955059350e-01  -1.8850058152668303e-01  -1.7737233393025295e-01  -7.9911239390689975e-02  1.1072544204604981e-02  6.9443778399853962e-03  7.4304258706259958e-03  -1.3571852008334151e-03  6.9218060428593367e-03  -9.9205737596009449e-03  1.6164422553418226e-02  -1.2925946158389059e-02  -8.4297021868241333e-03  2.3910820659131270e-02  -2.3155177848193150e-02  1.8342495101457097e-02  -1.3492107769679032e-02  2.2785637004491634e-02  -2.7979204315583033e-02  1.5418832211477537e-02  -3.4129125446844227e-03  1.0180826333583866e-02  -1.5365254556573203e-02  2.4430129339059897e-02  -2.5977235677132209e-02  4.0167370885061976e-02  -4.8513233989572788e-02  4.4641629090157553e-01  9.6668126572663804e-01  1.0439461082637655e+00  9.9167666036896640e-01  1.0423740314770138e+00  1.0235602066693006e+00  1.1506690069570171e+00  8.7506145499344690e-01  1.0951575536536484e+00  8.6958525027945366e-01  1.0885721248122722e+00  8.6733353682264136e-01  1.0910292785685300e+00  8.6180453433051007e-01  1.0960474859815377e+00  8.5370585449014902e-01  1.1031399449732933e+00  8.4352773149013449e-01  1.1086882062265702e+00  8.2471511710306855e-01  1.0821119709701295e+00  8.2851269257779148e-01  1.1586056539995566e+00  7.9907153425397281e-01  1.2471125008818209e+00  9.6505972030776266e-01  9.5617412851798378e-01  1.0231970032359419e+00  9.8178367904823105e-01  9.2724613702077119e-01  1.1421313105187247e+00  9.8013454522344801e-01  9.7532037619827239e-01  9.3682106571543400e-01  1.0799919412864016e+00  9.2147033600002981e-01  1.0219493525670629e+00  1.0134551351654406e+00  9.6640256707569194e-01  7.0074340565518578e-01  1.1380411335638214e+00  7.7490943585990124e-01  1.2394670034523123e+00  6.9349669040277051e-01  1.2314623056146059e+00  7.1759673445745664e-01  1.2761762299609749e+00  7.4973845078610291e-01  1.2607664914949199e+00  7.7040749487957738e-01  1.2073402120131358e+00  7.8743692337872173e-01  1.1971202952438500e+00  8.0577615054421203e-01  1.1855361031340133e+00  8.2112084495417814e-01  1.1592274039781936e+00  8.4957466689268357e-01  1.1087795676410732e+00  9.1691772908218361e-01  1.0633617928378647e+00  9.5274865183710411e-01  1.0247537376067388e+00  9.7755477816291370e-01  1.0036358318879262e+00  9.9108664825309722e-01  9.9647755855858500e-01  1.0008843353764960e+00  9.9380884482905629e-01  1.0141547172087682e+00  9.9739246933011139e-01  1.0327443278628217e+00  9.9184573426749090e-01  1.0563762518203306e+00  1.0192942286815567e+00  1.2638345118164653e+00  8.8999777579494621e-01  9.4237482126914185e-01  9.7024419691114283e-01  9.8878107756092160e-01  9.9673953405131743e-01  9.9992609736866078e-01  1.0009777918023406e+00  1.0011499765878717e+00  1.0010055378870062e+00  1.0007827245540144e+00  1.0005729027167058e+00  1.0004037958916072e+00  1.0002775017517143e+00  1.0001873145596738e+00  1.0001247679764298e+00  1.0000822674490693e+00  1.0000538162320616e+00  1.0000349838308480e+00  1.0000226268401264e+00  1.0000145745060629e+00  1.0000093561943004e+00  1.0000059895761075e+00  1.0000038255183743e+00  1.0000024386471891e+00  1.0000015520612413e+00  1.0000009864668560e+00  1.0000006262721084e+00  1.0000003972171791e+00  1.0000002517340596e+00  1.0000001594259531e+00  1.0000001009077519e+00  1.0000000638376147e+00  1.0000000403689571e+00  1.0000000255190353e+00  1.0000000161268587e+00  1.0000000101888085e+00  1.0000000064357852e+00  1.0000000040644141e+00  1.0000000025664015e+00  1.0000000016202830e+00  1.0000000010228385e+00  1.0000000006456198e+00  1.0000000004074832e+00  1.0000000002571632e+00  1.0000000001622857e+00  1.0000000001024054e+00  1.0000000000646181e+00  1.0000000000407716e+00  1.0000000000257245e+00  1.0000000000162317e+00  1.0000000000102416e+00  1.0000000000064599e+00  1.0000000000040752e+00  1.0000000000025695e+00  1.0000000000016209e+00  1.0000000000010214e+00  1.0000000000006413e+00  1.0000000000004110e+00  1.0000000000002234e+00  1.0000000000002949e+00  0.0000000000000000e+00  -1.8722288969562004e-02  -1.0170771046952409e-01  6.5380766195003326e-02  6.2680398540327176e-01  9.0463834544397392e-01  9.6999658808116762e-01  9.2654011621720878e-01  9.4140689560307178e-01  3.0982376965608999e-01  1.3932856725448778e-01  8.3819302618851538e-02  4.7688969371721873e-02  3.4890950991800576e-02  1.4033304027095420e-02  2.2385305320791651e-02  -7.6202935743762742e-03  1.9223541474348616e-02  9.7202949467696705e-03  -2.1692010338975335e-02  2.4818066982923784e-02  -1.7805940089156456e-02  1.4416028156171852e-02  -2.0378057497440278e-02  2.9686657387159775e-02  -1.5540408944618630e-02  4.7256064431875772e-03  -7.6564025043859988e-03  1.7293001913797679e-02  -2.0965066301502685e-02  2.9145793392470781e-02  -3.4075669699901515e-02  5.0132649710134772e-02  -7.0676669048904781e-02  1.9553880616314537e-02  -2.6806984986709161e-02  3.9176393937653847e-02  1.3493281124869796e-02  8.0366548763386447e-02  7.4493288342519753e-02  7.4005129643395473e-01  3.0094331155511306e-01  8.0374108621934603e-01  3.1312197989477319e-01  8.0021020320626146e-01  3.1569699164267634e-01  7.9371656448503891e-01  3.1993734638889409e-01  7.8708747461726658e-01  3.2627532683253341e-01  7.8140811672160304e-01  3.3522488034644310e-01  7.7490938851762414e-01  3.3604640606742797e-01  6.6863270184917689e-01  2.9843123701936403e-01  7.1716817857825876e-01  3.1658003479890773e-01  8.1195350491487439e-01  1.0401589159653661e+00  9.6778509038578509e-01  1.0293536908526120e+00  1.0286316767518080e+00  7.8911099857228306e-01  1.1106778925069469e+00  1.0919026394795042e+00  1.0664231018139643e+00  8.7213188552878818e-01  1.0934259141371803e+00  9.0516658371315661e-01  9.4397158317921714e-01  9.9317879767480166e-01  1.0600911014066940e+00  1.4074771972975794e-01  3.0338879830151494e-01  -1.2564715531210005e-01  3.2110177663079331e-01  -1.6419959429190931e-01  2.2843731950188997e-01  -2.0825795726717092e-01  2.2094624915964936e-01  -1.9990268805379099e-01  2.1676654069158552e-01  -1.5569565053591980e-01  1.8566232366046828e-01  -1.4393720934279616e-01  1.7073361248477822e-01  -1.4119967882408230e-01  1.5400250978412250e-01  -1.3007581591197162e-01  1.2155865405400333e-01  -1.0890086669930304e-01  5.0530524609948689e-02  -7.5218169117633016e-02  2.2174877404366349e-02  -3.8518088799121636e-02  5.9776769457446080e-04  -2.4040046319651114e-02  -1.5389452899088810e-02  -2.1563473576076495e-02  -2.3392170198815846e-02  -1.5570034603625438e-02  -2.2517834069926586e-02  4.8662923920741417e-03  3.7867217543384188e-03  4.5675582733569767e-02  2.0318426812033989e-02  8.9688101977008147e-02  4.8436405620883539e-03  2.2336467043235014e-01  4.2987314334042487e-01  6.4187527933516497e-01  7.7870541065578980e-01  8.6202260673252429e-01  9.1353132484187372e-01  9.4565072399786743e-01  9.6577990897351396e-01  9.7843131302243247e-01  9.8639660104068616e-01  9.9141686152153807e-01  9.9458307615828379e-01  9.9658080363619872e-01  9.9784160033419567e-01  9.9863743335570265e-01  9.9913981927837470e-01  9.9945697475890871e-01  9.9965719758686045e-01  9.9978359943958339e-01  9.9986339645847078e-01  9.9991377089661637e-01  9.9994557055055888e-01  9.9996564401900345e-01  9.9997831499600476e-01  9.9998631307392682e-01  9.9999136142355005e-01  9.9999454783632713e-01  9.9999655898454243e-01  9.9999782831935047e-01  9.9999862944197637e-01  9.9999913504900317e-01  9.9999945414331481e-01  9.9999965552380632e-01  9.9999978261298650e-01  9.9999986281642994e-01  9.9999991343048300e-01  9.9999994537109160e-01  9.9999996552733283e-01  9.9999997824684383e-01  9.9999998627334286e-01  9.9999999133830786e-01  9.9999999453442467e-01  9.9999999655122707e-01  9.9999999782385007e-01  9.9999999862687938e-01  9.9999999913358928e-01  9.9999999945331686e-01  9.9999999965506114e-01  9.9999999978235687e-01  9.9999999986267618e-01  9.9999999991335509e-01  9.9999999994533273e-01  9.9999999996550781e-01  9.9999999997823819e-01  9.9999999998626865e-01  9.9999999999133549e-01  9.9999999999453260e-01  9.9999999999654554e-01  9.9999999999781874e-01  9.9999999999862843e-01  0.0000000000000000e+00  6.0084280258012495e-04  -1.5848119608428142e-02  1.7261790936002025e-01  5.8487626850423774e-02  6.2633323923656919e-02  5.3117003467263627e-02  7.2323055279057774e-02  2.1961394615508480e-02  -4.0537669561377478e-02  -3.6845436419909547e-02  -2.7511257546214050e-02  -1.4511886113674415e-02  -1.4641487446247131e-02  -2.1412962856669987e-03  -1.4040427768692675e-02  1.1780882842987462e-02  -2.0890742766723053e-02  5.7706227305688725e-04  2.4314720364220731e-02  -2.6480113635662033e-02  2.2605785056917734e-02  -1.5154638639707277e-02  1.7616856197246157e-02  -3.2275615490734780e-02  2.4306963856960191e-02  -3.6668069983114885e-03  7.1798275581067420e-03  -1.5109486361868292e-02  2.3132942882753294e-02  -2.6863064947423479e-02  3.5403952676724498e-02  -4.0957171616651883e-02  5.9254157844632262e-02  -2.9335850915557141e-02  4.0814002908173004e-02  -1.6087819858671915e-02  3.1064318601599854e-02  -1.3237815730987543e-02  3.8747907789818792e-02  -8.0596996794915027e-02  -9.8367753266945628e-03  -7.0135150569639829e-02  -4.1275742448529222e-04  -6.1727721585991047e-02  5.6513767026187874e-03  -5.5437778475974996e-02  9.4870443505780597e-03  -4.9024765825192766e-02  1.3399390110462140e-02  -4.0865478449746015e-02  2.0293157496249162e-02  -2.6769718193984965e-02  4.1935356827480480e-02  6.4763983145267115e-03  2.6126815796637014e-02  -4.6097561245224433e-02  -1.7023394843138279e-02  -5.4475082768819315e-02  -6.1557934154640871e-02  -1.5871643744963585e-02  -4.1494075030653339e-02  -1.5808647356658052e-02  7.6037422673130059e-02  -1.1380690614426152e-01  -4.0591674215241381e-02  -4.0439851015002075e-02  3.1423236444026774e-02  -9.4235574636160807e-02  2.5067398746973755e-02  -2.2696969518229741e-02  -5.7854110975031771e-02  -1.3826581161219725e-01  7.7907474077273803e-02  -2.2481158983565108e-01  1.4754912235669140e-01  -3.4536365363893573e-01  1.6726822061231714e-01  -2.4530041601389291e-01  2.0116615989615638e-01  -2.4737033084189827e-01  2.0165137194381533e-01  -2.3331439171962806e-01  1.7327140092020149e-01  -1.8213933442912686e-01  1.6766337003283452e-01  -1.5843037043526390e-01  1.7461408995399805e-01  -1.3339166239743469e-01  1.7069473126294799e-01  -9.6018358536349643e-02  1.5067804695656159e-01  -3.0932412542078336e-02  9.7181736131352378e-02  -1.5622615872914084e-02  4.5513843600180910e-02  -1.9906824578458126e-03  2.0964332923929484e-02  6.4134786676869789e-03  8.2915014622371580e-03  4.4212591917537946e-03  -7.9760880844916577e-03  -4.6285412497963909e-03  -3.3202775653955977e-02  -2.7621634993150679e-02  -5.9997806590839135e-02  -2.2033735375129433e-02  -7.3538301224830849e-02  3.1125659306451493e-02  -7.2829381195720272e-02  1.2219865453616408e-01  4.4264987071289297e-01  6.5429776604144896e-01  7.8524361119138442e-01  8.6625132172633779e-01  9.1645236193676116e-01  9.4766613902514230e-01  9.6714070595643498e-01  9.7932845757661491e-01  9.8697559325081996e-01  9.9178377712425203e-01  9.9481197650786546e-01  9.9672163413285964e-01  9.9792714606562394e-01  9.9868876219059755e-01  9.9917023792117809e-01  9.9947476661445123e-01  9.9966745367349030e-01  9.9978941226502649e-01  9.9986662349775479e-01  9.9991551522941258e-01  9.9994647946392279e-01  9.9996609236874456e-01  9.9997851659934445e-01  9.9998638768397996e-01  9.9999137457995291e-01  9.9999453431852658e-01  9.9999653645015596e-01  9.9999780512720526e-01  9.9999860906703741e-01  9.9999911852409251e-01  9.9999944137439023e-01  9.9999964597302737e-01  9.9999977563447784e-01  9.9999985780659706e-01  9.9999990988320320e-01  9.9999994288705674e-01  9.9999996380359624e-01  9.9999997705975263e-01  9.9999998546107904e-01  9.9999999078558821e-01  9.9999999416011831e-01  9.9999999629880965e-01  9.9999999765426206e-01  9.9999999851331700e-01  9.9999999905776926e-01  9.9999999940283080e-01  9.9999999962152475e-01  9.9999999976012854e-01  9.9999999984797394e-01  9.9999999990364741e-01  9.9999999993893340e-01  9.9999999996129496e-01  9.9999999997546862e-01  9.9999999998444999e-01  9.9999999999014166e-01  9.9999999999374767e-01  9.9999999999603728e-01  9.9999999999746936e-01  0.0000000000000000e+00  -4.9011813857383806e-03  3.6125934985911864e-02  -8.7541248162926771e-02  -5.6108309142210051e-03  -9.8601931123667424e-03  -7.2492577079522327e-03  -3.8771643931429699e-02  -4.0686292446427554e-02  -1.1059523963233559e-02  1.1637063222652870e-03  5.9891466120941487e-03  1.8747193968514455e-03  6.7950293246484723e-03  -1.9242139996290249e-03  9.1606896793108555e-03  -1.3260597698841935e-02  2.4492321224812062e-02  -1.8997357257330177e-02  -2.5521245692565035e-02  3.0700857491895814e-02  -2.9856837392387637e-02  1.8415062046334637e-02  -1.2282924577077354e-02  3.3675560652597608e-02  -4.1017234053485549e-02  4.1850894887439042e-03  -4.2695057342298070e-03  1.2818019093258687e-02  -2.4177974689742875e-02  2.6016885576055537e-02  -3.3633632014807908e-02  3.8569361888858511e-02  -4.9250292245802747e-02  4.4651342452702178e-02  -3.9168345621282373e-02  3.0523969880753694e-02  -2.6917469427352778e-02  1.3119274996675491e-02  -4.3123895605147122e-02  4.4432524501899918e-02  -1.5629868562400263e-02  3.5322154072667533e-02  -2.2216858573281383e-02  3.0105279532227660e-02  -2.6155559174855385e-02  2.6112978912613119e-02  -2.8735806699908228e-02  2.1741023656278460e-02  -3.1612377788739800e-02  1.5945355453620597e-02  -3.6396657410968730e-02  6.9415320947353726e-03  -4.7119260877418051e-02  -9.2093439006727482e-03  2.4437120934268829e-02  1.1323563976823497e-01  1.2950192983482736e-01  1.3641900367624410e-01  8.8641080588387253e-02  3.4026310791870178e-02  5.2343963918194146e-02  8.8175068680181601e-03  -6.7987011672465875e-02  1.2438259335160536e-01  -1.5289204894603703e-02  -2.2313433926339228e-02  -9.2848056412089264e-02  3.8067593057777085e-02  -9.9890259115561972e-02  -2.4391559673695652e-02  8.7555086716050671e-03  4.6167597130387247e-02  -1.4446581686695376e-01  2.4009712439795400e-01  -1.0216694860896389e-01  3.9273993023511344e-01  -2.2990482439900553e-01  2.0974522494486075e-01  -2.4212792637125388e-01  2.2690633684532416e-01  -3.1516258895421245e-01  1.2976748192871568e-01  -3.6297942148936818e-01  1.4769249936812298e-02  -3.2898609658804800e-01  5.5854660333437806e-02  -2.8389666974196182e-01  7.7581645385755738e-02  -2.3754158008889290e-01  8.6368435082074396e-02  -1.6786411069575766e-01  8.7072943989532317e-02  -3.2468412736928201e-02  1.2615074699770615e-01  7.6056059303943685e-02  1.5203422548701229e-01  1.4309253718066783e-01  1.8054004526024131e-01  1.9811727661919026e-01  2.2489023832614766e-01  2.5835579277931076e-01  2.7514210943106526e-01  3.1949769779403858e-01  2.7113025139462993e-01  2.5705766720501472e-01  2.0269774256948692e-01  2.0258952580345319e-01  6.3366364525077476e-02  1.9212397584433905e-01  3.5400243063063103e-01  5.6638429570853632e-01  7.2656859421944409e-01  8.3013535499184010e-01  8.9476058378662737e-01  9.3469154833637524e-01  9.5934963546255192e-01  9.7461820452652925e-01  9.8410721716680971e-01  9.9002539361184250e-01  9.9372792684592981e-01  9.9605021901036395e-01  9.9750976895327503e-01  9.9842855768294247e-01  9.9900765727241669e-01  9.9937300849395716e-01  9.9960367975124276e-01  9.9974940322978600e-01  9.9984150395188298e-01  9.9989973454728565e-01  9.9993656110909268e-01  9.9995985635983309e-01  9.9997459475088835e-01  9.9998392071541464e-01  9.9998982253978141e-01  9.9999355777565957e-01  9.9999592196024389e-01  9.9999741843789236e-01  9.9999836572081657e-01  9.9999896538190680e-01  9.9999934499881082e-01  9.9999958532226318e-01  9.9999973746653681e-01  9.9999983378780932e-01  9.9999989476881301e-01  9.9999993337629978e-01  9.9999995781917050e-01  9.9999997329435197e-01  9.9999998309199756e-01  9.9999998929510314e-01  9.9999999322244271e-01  9.9999999570894238e-01  9.9999999728321265e-01  9.9999999827992592e-01  9.9999999891097391e-01  9.9999999931050743e-01  9.9999999956346375e-01  9.9999999972361620e-01  9.9999999982501475e-01  9.9999999988921184e-01  9.9999999992985678e-01  9.9999999995558819e-01  9.9999999997188105e-01  9.9999999998219458e-01  9.9999999998872546e-01  9.9999999999285905e-01  9.9999999999547695e-01  9.9999999999712663e-01  9.9999999999818079e-01  0.0000000000000000e+00  9.2733136105395894e-03  -3.4170766499168358e-02  4.8374663043268269e-02  -7.6779568411135752e-03  -5.7643773807063026e-03  -1.5363453544935278e-02  1.3064428583346496e-03  1.5220202203001996e-02  8.7932730720701249e-03  4.1934613899514001e-03  -1.0901147629011525e-03  1.5714341730195432e-03  -3.0252294342699689e-03  5.2325122320290652e-03  -1.8061497550804176e-03  1.6877717497995208e-02  -2.3502413036507255e-02  5.0687241759194694e-02  2.3336785452034711e-02  -3.7265923410280566e-02  4.0724160171270937e-02  -2.4844043505293723e-02  6.8185243341767395e-03  -2.7942868928921710e-02  6.8721008902462799e-02  -9.4800666659952664e-03  -2.7787540339283723e-03  -1.1754913187231689e-02  2.1537474084897323e-02  -3.0329072532392108e-02  2.6209142861146565e-02  -4.2486188784748247e-02  3.9119505436971694e-02  -5.6975027576565272e-02  4.5069532471811127e-02  -4.5417027688197130e-02  2.6224032240741199e-02  -1.9053276262318071e-02  3.2176126000101557e-02  -3.3805198137983362e-02  1.4460577557033748e-02  -3.0325258361288816e-02  1.4902545341298973e-02  -3.1359412927193686e-02  1.2510241418751391e-02  -3.4891190750700449e-02  6.4992436442489806e-03  -4.2080884544181102e-02  -5.0469539287528436e-03  -5.6448695832806366e-02  -2.7063657294567316e-02  -8.5917115995584117e-02  -7.3211654679596200e-02  -1.7204383946617247e-01  -1.5496253162353230e-01  -1.2575257640078702e-01  -1.2178422661485722e-01  -2.5779930483610665e-02  -4.7157107744753325e-02  -4.1350392550492318e-02  -9.3989830981628761e-02  -5.9228884991972285e-02  -5.8639032897073430e-02  -2.0272894284605575e-02  9.6296704440477512e-02  2.1428343694440400e-02  7.0596951807374075e-01  7.7982531513904130e-01  1.3059478017888406e+00  7.8781891906737989e-01  1.0450368144802991e+00  5.8334727509751305e-01  1.0674862412332806e+00  1.3716418471991210e-01  7.8364291367812267e-01  -5.1724330794868024e-02  9.1670294488610660e-01  -1.6302939420708801e-01  1.0854146249185328e+00  6.9258190823856657e-03  8.8007839269052646e-01  -3.8150041235175034e-03  8.4609623352692498e-01  -1.3913611453150396e-01  1.0666836878697088e+00  -1.1675608362791599e-01  1.0612266676532141e+00  -1.0827733499562547e-01  1.0454205813899125e+00  -8.7916851179457994e-02  1.0139714497500312e+00  -5.2306402562100077e-02  9.4384398378684564e-01  4.2898223110605482e-01  1.0683885730131533e+00  8.1993673979763770e-01  1.0690395571198901e+00  9.4315839545321734e-01  1.0104481816468993e+00  9.5633163605310267e-01  9.6697145525926498e-01  9.6524560204900733e-01  9.5684243858474405e-01  1.1460552390963481e+00  1.0996261747740752e+00  1.1620667417719055e+00  1.0232433239002272e+00  6.2935643013222020e-01  5.2843957069878689e-01  6.3016468662897229e-01  7.4744102761161380e-01  8.4122836462655670e-01  9.0258687832433548e-01  9.4054147977193647e-01  9.6362747288596606e-01  9.7764166146433173e-01  9.8618309879603538e-01  9.9141989390262997e-01  9.9464991561201166e-01  9.9665282798597332e-01  9.9790036012191874e-01  9.9868018928375435e-01  9.9916904196910861e-01  9.9947616930178262e-01  9.9966945824002496e-01  9.9979126647728089e-01  9.9986810843825835e-01  9.9991662311181007e-01  9.9994727268350747e-01  9.9996664553715209e-01  9.9997889551455033e-01  9.9998664395387882e-01  9.9999154628830356e-01  9.9999464855965370e-01  9.9999661204530332e-01  9.9999785493689253e-01  9.9999864177528286e-01  9.9999913994342959e-01  9.9999945536946100e-01  9.9999965510007938e-01  9.9999978157742553e-01  9.9999986167108190e-01  9.9999991239324471e-01  9.999999445157