<?xml version="1.0"?>
<VTKFile type="UnstructuredGrid"  version="0.1"  >
<UnstructuredGrid>
<Piece  NumberOfPoints="21400" NumberOfCells="42336">
<Points>
<DataArray  type="Float64"  NumberOfComponents="3"  format="ascii">0 0 0  0.004583333333333333 0 0  0.009166666666666667 0 0  0.01375 0 0  0.01833333333333333 0 0  0.02291666666666667 0 0  0.0275 0 0  0.03208333333333334 0 0  0.03666666666666667 0 0  0.04125 0 0  0.04583333333333334 0 0  0.05041666666666667 0 0  0.055 0 0  0.05958333333333334 0 0  0.06416666666666668 0 0  0.06875000000000001 0 0  0.07333333333333333 0 0  0.07791666666666666 0 0  0.08249999999999999 0 0  0.08708333333333333 0 0  0.09166666666666667 0 0  0.09625000000000002 0 0  0.1008333333333333 0 0  0.1054166666666667 0 0  0.11 0 0  0.1145833333333333 0 0  0.1191666666666667 0 0  0.12375 0 0  0.1283333333333334 0 0  0.1329166666666667 0 0  0.1375 0 0  0.1420833333333333 0 0  0.1466666666666667 0 0  0.15125 0 0  0.1558333333333333 0 0  0.1604166666666667 0 0  0.165 0 0  0.1695833333333333 0 0  0.1741666666666667 0 0  0.17875 0 0  0.1833333333333333 0 0  0.1879166666666667 0 0  0.1925 0 0  0.1970833333333333 0 0  0.2016666666666667 0 0  0.20625 0 0  0.2108333333333333 0 0  0.2154166666666666 0 0  0.22 0 0  0.2245833333333334 0 0  0.2291666666666667 0 0  0.23375 0 0  0.2383333333333333 0 0  0.2429166666666667 0 0  0.2475 0 0  0.2520833333333333 0 0  0.2566666666666667 0 0  0.26125 0 0  0.2658333333333334 0 0  0.2704166666666666 0 0  0.275 0 0  0.2795833333333334 0 0  0.2841666666666667 0 0  0.28875 0 0  0.2933333333333333 0 0  0.2979166666666667 0 0  0.3025 0 0  0.3070833333333334 0 0  0.3116666666666666 0 0  0.31625 0 0  0.3208333333333333 0 0  0.3254166666666667 0 0  0.33 0 0  0.3345833333333333 0 0  0.3391666666666667 0 0  0.34375 0 0  0.3483333333333333 0 0  0.3529166666666667 0 0  0.3575 0 0  0.3620833333333333 0 0  0.3666666666666667 0 0  0.37125 0 0  0.3758333333333334 0 0  0.3804166666666667 0 0  0.3850000000000001 0 0  0.3895833333333333 0 0  0.3941666666666667 0 0  0.39875 0 0  0.4033333333333334 0 0  0.4079166666666666 0 0  0.4125 0 0  0.4170833333333334 0 0  0.4216666666666667 0 0  0.42625 0 0  0.4308333333333333 0 0  0.4354166666666667 0 0  0.44 0 0  0.4445833333333333 0 0  0.4491666666666667 0 0  0.45375 0 0  0.4583333333333333 0 0  0.4629166666666666 0 0  0.4675 0 0  0.4720833333333334 0 0  0.4766666666666667 0 0  0.4812500000000001 0 0  0.4858333333333333 0 0  0.4904166666666667 0 0  0.495 0 0  0.4995833333333334 0 0  0.5041666666666667 0 0  0.50875 0 0  0.5133333333333334 0 0  0.5179166666666667 0 0  0.5225 0 0  0.5270833333333333 0 0  0.5316666666666667 0 0  0.53625 0 0  0.5408333333333333 0 0  0.5454166666666667 0 0  0.55 0 0  0.5545833333333333 0 0  0.5591666666666667 0 0  0.5637500000000001 0 0  0.5683333333333334 0 0  0.5729166666666666 0 0  0.5775 0 0  0.5820833333333334 0 0  0.5866666666666667 0 0  0.5912499999999999 0 0  0.5958333333333334 0 0  0.6004166666666667 0 0  0.605 0 0  0.6095833333333334 0 0  0.6141666666666667 0 0  0.61875 0 0  0.6233333333333333 0 0  0.6279166666666667 0 0  0.6325000000000001 0 0  0.6370833333333333 0 0  0.6416666666666666 0 0  0.64625 0 0  0.6508333333333334 0 0  0.6554166666666666 0 0  0.6599999999999999 0 0  0.6645833333333334 0 0  0.6691666666666667 0 0  0.67375 0 0  0.6783333333333333 0 0  0.6829166666666667 0 0  0.6875 0 0  0.6920833333333333 0 0  0.6966666666666667 0 0  0.70125 0 0  0.7058333333333333 0 0  0.7104166666666667 0 0  0.7150000000000001 0 0  0.7195833333333334 0 0  0.7241666666666666 0 0  0.72875 0 0  0.7333333333333334 0 0  0.7379166666666667 0 0  0.7425 0 0  0.7470833333333333 0 0  0.7516666666666667 0 0  0.75625 0 0  0.7608333333333334 0 0  0.7654166666666666 0 0  0.7700000000000001 0 0  0 0.002380952380952381 0  0.004583333333333333 0.002380952380952381 0  0.009166666666666667 0.002380952380952381 0  0.01375 0.002380952380952381 0  0.01833333333333333 0.002380952380952381 0  0.02291666666666667 0.002380952380952381 0  0.0275 0.002380952380952381 0  0.03208333333333334 0.002380952380952381 0  0.03666666666666667 0.002380952380952381 0  0.04125 0.002380952380952381 0  0.04583333333333334 0.002380952380952381 0  0.05041666666666667 0.002380952380952381 0  0.055 0.002380952380952381 0  0.05958333333333334 0.002380952380952381 0  0.06416666666666668 0.002380952380952381 0  0.06875000000000001 0.002380952380952381 0  0.07333333333333333 0.002380952380952381 0  0.07791666666666666 0.002380952380952381 0  0.08249999999999999 0.002380952380952381 0  0.08708333333333333 0.002380952380952381 0  0.09166666666666667 0.002380952380952381 0  0.09625000000000002 0.002380952380952381 0  0.1008333333333333 0.002380952380952381 0  0.1054166666666667 0.002380952380952381 0  0.11 0.002380952380952381 0  0.1145833333333333 0.002380952380952381 0  0.1191666666666667 0.002380952380952381 0  0.12375 0.002380952380952381 0  0.1283333333333334 0.002380952380952381 0  0.1329166666666667 0.002380952380952381 0  0.1375 0.002380952380952381 0  0.1420833333333333 0.002380952380952381 0  0.1466666666666667 0.002380952380952381 0  0.15125 0.002380952380952381 0  0.1558333333333333 0.002380952380952381 0  0.1604166666666667 0.002380952380952381 0  0.165 0.002380952380952381 0  0.1695833333333333 0.002380952380952381 0  0.1741666666666667 0.002380952380952381 0  0.17875 0.002380952380952381 0  0.1833333333333333 0.002380952380952381 0  0.1879166666666667 0.002380952380952381 0  0.1925 0.002380952380952381 0  0.1970833333333333 0.002380952380952381 0  0.2016666666666667 0.002380952380952381 0  0.20625 0.002380952380952381 0  0.2108333333333333 0.002380952380952381 0  0.2154166666666666 0.002380952380952381 0  0.22 0.002380952380952381 0  0.2245833333333334 0.002380952380952381 0  0.2291666666666667 0.002380952380952381 0  0.23375 0.002380952380952381 0  0.2383333333333333 0.002380952380952381 0  0.2429166666666667 0.002380952380952381 0  0.2475 0.002380952380952381 0  0.2520833333333333 0.002380952380952381 0  0.2566666666666667 0.002380952380952381 0  0.26125 0.002380952380952381 0  0.2658333333333334 0.002380952380952381 0  0.2704166666666666 0.002380952380952381 0  0.275 0.002380952380952381 0  0.2795833333333334 0.002380952380952381 0  0.2841666666666667 0.002380952380952381 0  0.28875 0.002380952380952381 0  0.2933333333333333 0.002380952380952381 0  0.2979166666666667 0.002380952380952381 0  0.3025 0.002380952380952381 0  0.3070833333333334 0.002380952380952381 0  0.3116666666666666 0.002380952380952381 0  0.31625 0.002380952380952381 0  0.3208333333333333 0.002380952380952381 0  0.3254166666666667 0.002380952380952381 0  0.33 0.002380952380952381 0  0.3345833333333333 0.002380952380952381 0  0.3391666666666667 0.002380952380952381 0  0.34375 0.002380952380952381 0  0.3483333333333333 0.002380952380952381 0  0.3529166666666667 0.002380952380952381 0  0.3575 0.002380952380952381 0  0.3620833333333333 0.002380952380952381 0  0.3666666666666667 0.002380952380952381 0  0.37125 0.002380952380952381 0  0.3758333333333334 0.002380952380952381 0  0.3804166666666667 0.002380952380952381 0  0.3850000000000001 0.002380952380952381 0  0.3895833333333333 0.002380952380952381 0  0.3941666666666667 0.002380952380952381 0  0.39875 0.002380952380952381 0  0.4033333333333334 0.002380952380952381 0  0.4079166666666666 0.002380952380952381 0  0.4125 0.002380952380952381 0  0.4170833333333334 0.002380952380952381 0  0.4216666666666667 0.002380952380952381 0  0.42625 0.002380952380952381 0  0.4308333333333333 0.002380952380952381 0  0.4354166666666667 0.002380952380952381 0  0.44 0.002380952380952381 0  0.4445833333333333 0.002380952380952381 0  0.4491666666666667 0.002380952380952381 0  0.45375 0.002380952380952381 0  0.4583333333333333 0.002380952380952381 0  0.4629166666666666 0.002380952380952381 0  0.4675 0.002380952380952381 0  0.4720833333333334 0.002380952380952381 0  0.4766666666666667 0.002380952380952381 0  0.4812500000000001 0.002380952380952381 0  0.4858333333333333 0.002380952380952381 0  0.4904166666666667 0.002380952380952381 0  0.495 0.002380952380952381 0  0.4995833333333334 0.002380952380952381 0  0.5041666666666667 0.002380952380952381 0  0.50875 0.002380952380952381 0  0.5133333333333334 0.002380952380952381 0  0.5179166666666667 0.002380952380952381 0  0.5225 0.002380952380952381 0  0.5270833333333333 0.002380952380952381 0  0.5316666666666667 0.002380952380952381 0  0.53625 0.002380952380952381 0  0.5408333333333333 0.002380952380952381 0  0.5454166666666667 0.002380952380952381 0  0.55 0.002380952380952381 0  0.5545833333333333 0.002380952380952381 0  0.5591666666666667 0.002380952380952381 0  0.5637500000000001 0.002380952380952381 0  0.5683333333333334 0.002380952380952381 0  0.5729166666666666 0.002380952380952381 0  0.5775 0.002380952380952381 0  0.5820833333333334 0.002380952380952381 0  0.5866666666666667 0.002380952380952381 0  0.5912499999999999 0.002380952380952381 0  0.5958333333333334 0.002380952380952381 0  0.6004166666666667 0.002380952380952381 0  0.605 0.002380952380952381 0  0.6095833333333334 0.002380952380952381 0  0.6141666666666667 0.002380952380952381 0  0.61875 0.002380952380952381 0  0.6233333333333333 0.002380952380952381 0  0.6279166666666667 0.002380952380952381 0  0.6325000000000001 0.002380952380952381 0  0.6370833333333333 0.002380952380952381 0  0.6416666666666666 0.002380952380952381 0  0.64625 0.002380952380952381 0  0.6508333333333334 0.002380952380952381 0  0.6554166666666666 0.002380952380952381 0  0.6599999999999999 0.002380952380952381 0  0.6645833333333334 0.002380952380952381 0  0.6691666666666667 0.002380952380952381 0  0.67375 0.002380952380952381 0  0.6783333333333333 0.002380952380952381 0  0.6829166666666667 0.002380952380952381 0  0.6875 0.002380952380952381 0  0.6920833333333333 0.002380952380952381 0  0.6966666666666667 0.002380952380952381 0  0.70125 0.002380952380952381 0  0.7058333333333333 0.002380952380952381 0  0.7104166666666667 0.002380952380952381 0  0.7150000000000001 0.002380952380952381 
[...]
<PointData  Scalars="pressure"> 
<DataArray  type="Float64"  Name="pressure"  format="ascii">3.4023131450175795e+04  3.3993683859428624e+04  3.3968868776824216e+04  3.3931840303900302e+04  3.3883081605920466e+04  2.4576308320399636e+04  2.4436451846017539e+04  2.4289460308325550e+04  2.4140625280144326e+04  2.3990943227282776e+04  2.3840829270247603e+04  2.3690465824301191e+04  2.3539947163777411e+04  2.3389326257398468e+04  2.3238635031461279e+04  2.3087893779714526e+04  2.2937115968644259e+04  2.2786310853901239e+04  2.2635484985365387e+04  2.2484643112844180e+04  2.2333788752442135e+04  2.2182924552669720e+04  2.2032052538071726e+04  2.1881174275571739e+04  2.1730290990685713e+04  2.1579403650401775e+04  2.1428513023392421e+04  2.1277619724492448e+04  2.1126724248047671e+04  2.0975826993253220e+04  2.0824928283633806e+04  2.0674028382175835e+04  2.0523127503189029e+04  2.0372225821677475e+04  2.0221323480793544e+04  2.0070420597801134e+04  1.9919517268870270e+04  1.9768613572947957e+04  1.9617709574894532e+04  1.9466805328032468e+04  1.9315900876222713e+04  1.9164996255559778e+04  1.9014091495757937e+04  1.8863186621286579e+04  1.8712281652301044e+04  1.8561376605406669e+04  1.8410471494286365e+04  1.8259566330216614e+04  1.8108661122491718e+04  1.7957755878772965e+04  1.7806850605376072e+04  1.7655945307507827e+04  1.7505039989461064e+04  1.7354134654775222e+04  1.7203229306368645e+04  1.7052323946647699e+04  1.6901418577596600e+04  1.6750513200851539e+04  1.6599607817761695e+04  1.6448702429439662e+04  1.6297797036802891e+04  1.6146891640607952e+04  1.5995986241478737e+04  1.5845080839929744e+04  1.5694175436385263e+04  1.5543270031195165e+04  1.5392364624647978e+04  1.5241459216981662e+04  1.5090553808392438e+04  1.4939648399042120e+04  1.4788742989064147e+04  1.4637837578568577e+04  1.4486932167646160e+04  1.4336026756371732e+04  1.4185121344807021e+04  1.4034215933002932e+04  1.3883310521001426e+04  1.3732405108837127e+04  1.3581499696538591e+04  1.3430594284129360e+04  1.3279688871628836e+04  1.3128783459053064e+04  1.2977878046415242e+04  1.2826972633726258e+04  1.2676067220995119e+04  1.2525161808229235e+04  1.2374256395434735e+04  1.2223350982616676e+04  1.2072445569779231e+04  1.1921540156925868e+04  1.1770634744059440e+04  1.1619729331182332e+04  1.1468823918296514e+04  1.1317918505403652e+04  1.1167013092505131e+04  1.1016107679602124e+04  1.0865202266695656e+04  1.0714296853786602e+04  1.0563391440875752e+04  1.0412486027963831e+04  1.0261580615051522e+04  1.0110675202139479e+04  9.9597697892283886e+03  9.8088643763189557e+03  9.6579589634119675e+03  9.5070535505082735e+03  9.3561481376088723e+03  9.2052427247149026e+03  9.0543373118277177e+03  8.9034318989489202e+03  8.7525264860804346e+03  8.6016210732245509e+03  8.4507156603840449e+03  8.2998102475622618e+03  8.1489048347632397e+03  7.9979994219918763e+03  7.8470940092540841e+03  7.6961885965570509e+03  7.5452831839094661e+03  7.3943777713218624e+03  7.2434723588070292e+03  7.0925669463804597e+03  6.9416615340609405e+03  6.7907561218712517e+03  6.6398507098390410e+03  6.4889452979978159e+03  6.3380398863882265e+03  6.1871344750596018e+03  6.0362290640717656e+03  5.8853236534973057e+03  5.7344182434242994e+03  5.5835128339596531e+03  5.4326074252331091e+03  5.2817020174021891e+03  5.1307966106581835e+03  4.9798912052334608e+03  4.8289858014103838e+03  4.6780803995322231e+03  4.5271750000165403e+03  4.3762696033715656e+03  4.2253642102164085e+03  4.0744588213059496e+03  3.9235534375617235e+03  3.7726480601102749e+03  3.6217426903311289e+03  3.4708373299171085e+03  3.3199319809507115e+03  3.1690266460015073e+03  3.0181213282516815e+03  2.8672160316594427e+03  2.7163107611743758e+03  2.5654055230252302e+03  2.4145003251106350e+03  2.2635951775389726e+03  2.1126900933892980e+03  1.9617850898079532e+03  1.8108801896289438e+03  1.6599754238356754e+03  1.5090708354258270e+03  1.3581664856642908e+03  1.2072624649312270e+03  1.0563589098852972e+03  9.0545605297809516e+02  7.5455417554103576e+02  6.0365472289752586e+02  4.5275236541123695e+02  3.0190539317402562e+02  1.5056425481441551e+02  4.2690986893336502e+00  3.4021433439825138e+04  3.3993265428856190e+04  3.3968882984833450e+04  2.4717304898905411e+04  2.4681878695761210e+04  2.4579659580321608e+04  2.4436838346414861e+04  2.4289647673936597e+04  2.4140706844161603e+04  2.3990987504253735e+04  2.3840855226114334e+04  2.3690482202265714e+04  2.3539958046184500e+04  2.3389333790053312e+04  2.3238640416212678e+04  2.3087897730089957e+04  2.2937118928337815e+04  2.2786313109853079e+04  2.2635486729436394e+04  2.2484644477066857e+04  2.2333789829978683e+04  2.2182925410707619e+04  2.2032053226001077e+04  2.1881174830311764e+04  2.1730291440239034e+04  2.1579404016278844e+04  2.1428513322298815e+04  2.1277619969525247e+04  2.1126724449558198e+04  2.0975827159479326e+04  2.0824928421169792e+04  2.0674028496326544e+04  2.0523127598239735e+04  2.0372225901102014e+04  2.0221323547416134e+04  2.0070420653923517e+04  1.9919517316372134e+04  1.9768613613366946e+04  1.9617709609490263e+04  1.9466805357837984e+04  1.9315900902086050e+04  1.9164996278177645e+04  1.9014091515703130e+04  1.8863186639030257e+04  1.8712281668230931e+04  1.8561376619841940e+04  1.8410471507489881e+04  1.8259566342404883e+04  1.8108661133843096e+04  1.7957755889434437e+04  1.7806850615468775e+04  1.7655945317131602e+04  1.7505039998698205e+04  1.7354134663693556e+04  1.7203229315024113e+04  1.7052323955086420e+04  1.6901418585856591e+04  1.6750513208964141e+04  1.6599607825752762e+04  1.6448702437330510e+04  1.6297797044611087e+04  1.6146891648347992e+04  1.5995986249162575e+04  1.5845080847567240e+04  1.5694175443984534e+04  1.5543270038762914e+04  1.5392364632189743e+04  1.5241459224501990e+04  1.5090553815895088e+04  1.4939648406530188e+04  1.4788742996540199e+04  1.4637837586034711e+04  1.4486932175104119e+04  1.4336026763822947e+04  1.4185121352252680e+04  1.4034215940444001e+04  1.3883310528438715e+04  1.3732405116271302e+04  1.3581499703970188e+04  1.3430594291558835e+04  1.3279688879056572e+04  1.3128783466479352e+04  1.2977878053840335e+04  1.2826972641150373e+04  1.2676067228418418e+04  1.2525161815651867e+04  1.2374256402856814e+04  1.2223350990038300e+04  1.2072445577200477e+04  1.1921540164346801e+04  1.1770634751480116e+04  1.1619729338602787e+04  1.1468823925716797e+04  1.1317918512823777e+04  1.1167013099925129e+04  1.1016107687022011e+04  1.0865202274115445e+04  1.0714296861206305e+04  1.0563391448295379e+04  1.0412486035383386e+04  1.0261580622471000e+04  1.0110675209558884e+04  9.9597697966477153e+03  9.8088643837382060e+03  9.6579589708311159e+03  9.5070535579273164e+03  9.3561481450277915e+03  9.2052427321336745e+03  9.0543373192463205e+03  8.9034319063673156e+03  8.7525264934985807e+03  8.6016210806423987e+03  8.4507156678015308e+03  8.2998102549793111e+03  8.1489048421797661e+03  7.9979994294077596e+03  7.8470940166691953e+03  7.6961886039712244e+03  7.5452831913225018e+03  7.3943777787335212e+03  7.2434723662170172e+03  7.0925669537884223e+03  6.9416615414664439e+03  6.7907561292737782e+03  6.6398507172379514e+03  6.4889453053923417e+03  6.3380398937774398e+03  6.1871344824423604e+03  6.0362290714466972e+03  5.8853236608627412e+03  5.7344182507782098e+03  5.5835128412995737e+03  5.4326074325560467e+03  5.2817020247045029e+03  5.1307966179354462e+03  4.9798912124802837e+03  4.8289858086202030e+03  4.6780804066970331e+03  4.5271750071265669e+03  4.3762696104148699e+03  4.2253642171783604e+03  4.0744588281686060e+03  3.9235534443030087e+03  3.7726480667029618e+03  3.6217426967415099e+03  3.4708373361032804e+03  3.3199319868603211e+03  3.1690266515687563e+03  3.0181213333932869e+03  2.8672160362691134e+03  2.7163107651151204e+03  2.5654055261184676e+03  2.4145003271204450e+03  2.2635951781488352e+03  2.1126900921669080e+03  1.9617850861505838e+03  1.8108801826760166e+03  1.6599754123250350e+03  1.5090708174418087e+03  1.3581664582340875e+03  1.2072624228893885e+03  1.0563588467623586e+03  9.0545593701650989e+02  7.5455411130891207e+02  6.0365354201705259e+02  4.5275922198131747e+02  3.0184260143884950e+02  1.5112639411896089e+02  -2.3169241562008713e-01  3.4020122635592874e+04  3.3992156410001728e+04  3.3965214588546674e+04  3.3928195185294055e+04  3.3889704532020311e+04  2.4586173223568610e+04  2.4438320268935851e+04  2.4290222248158014e+04  2.4140980411208129e+04  2.3991135075683967e+04  2.3840942694157235e+04  2.3690537605172707e+04  2.3539994977291288e+04  2.3389359403889855e+04  2.3238658749494381e+04  2.3087911188951733e+04  2.2937129014038936e+04  2.2786320795755248e+04  2.2635492667703511e+04  2.2484649117235269e+04  2.2333793489666910e+04  2.2182928319231105e+04  2.2032055552085865e+04  2.1881176700177031e+04  2.1730292949680905e+04  2.1579405238923056e+04  2.1428514315350607e+04  2.1277620777849814e+04  2.1126725108626109e+04  2.0975827697526220e+04  2.0824928860802924e+04  2.0674028855735760e+04  2.0523127892121207e+04  2.0372226141370440e+04  2.0221323743759262e+04  2.0070420814237466e+04  1.9919517447105707e+04  1.9768613719795761e+04  1.9617709695936206e+04  1.9466805427845677e+04  1.9315900958565431e+04  1.9164996323519517e+04  1.9014091551873043e+04  1.8863186667645023e+04  1.8712281690621090e+04  1.8561376637102861e+04  1.8410471520523595e+04  1.8259566351954378e+04  1.8108661140520522e+04  1.7957755893744205e+04  1.7806850617826582e+04  1.7655945317880072e+04  1.7505039998119777e+04  1.7354134662021053e+04  1.7203229312449479e+04  1.7052323951767903e+04  1.6901418581924678e+04  1.6750513204526418e+04  1.6599607820897942e+04  1.6448702432131726e+04  1.6297797039128669e+04  1.6146891642631677e+04  1.5995986243253379e+04  1.5845080841498982e+04  1.5694175437785099e+04  1.5543270032455308e+04  1.5392364625792936e+04  1.5241459218031618e+04  1.5090553809364053e+04  1.4939648399949123e+04  1.4788742989917875e+04  1.4637837579378362e+04  1.4486932168419711e+04  1.4336026757115402e+04  1.4185121345526053e+04  1.4034215933701636e+04  1.3883310521683372e+04  1.3732405109505253e+04  1.3581499697195313e+04  1.3430594284776680e+04  1.3279688872268413e+04  1.3128783459686239e+04  1.2977878047043136e+04  1.2826972634349804e+04  1.2676067221615069e+04  1.2525161808846224e+04  1.2374256396049273e+04  1.2223350983229189e+04  1.2072445570390075e+04  1.1921540157535324e+04  1.1770634744667748e+04  1.1619729331789680e+04  1.1468823918903066e+04  1.1317918506009528e+04  1.1167013093110436e+04  1.1016107680206942e+04  1.0865202267300039e+04  1.0714296854390604e+04  1.0563391441479409e+04  1.0412486028567158e+04  1.0261580615654528e+04  1.0110675202742161e+04  9.9597697898307179e+03  9.8088643769209211e+03  9.6579589640135091e+03  9.5070535511093422e+03  9.3561481382093880e+03  9.2052427253147671e+03  9.0543373124268128e+03  8.9034318995470931e+03  8.7525264866774978e+03  8.6016210738202808e+03  8.4507156609781650e+03  8.2998102481544338e+03  8.1489048353530616e+03  7.9979994225788432e+03  7.8470940098375977e+03  7.6961885971363790e+03  7.5452831844837192e+03  7.3943777718899673e+03  7.2434723593676727e+03  7.0925669469320583e+03  6.9416615346015669e+03  6.7907561223985786e+03  6.6398507103502297e+03  6.4889452984894351e+03  6.3380398868561088e+03  6.1871344754986785e+03  6.0362290644759014e+03  5.8853236538590436e+03  5.7344182437345817e+03  5.5835128342074804e+03  5.4326074254051164e+03  5.2817020174821246e+03  5.1307966106262820e+03  4.9798912050656663e+03  4.8289858010773933e+03  4.6780803989983042e+03  4.5271749992380774e+03  4.3762696022952496e+03  4.2253642087769576e+03  4.0744588194232801e+03  3.9235534351373371e+03  3.7726480570226813e+03  3.6217426864299523e+03  3.4708373250154341e+03  3.3199319748150597e+03  3.1690266383385010e+03  3.0181213186900886e+03  2.8672160197256208e+03  2.7163107462581283e+03  2.5654055043314729e+03  2.4145003015895891e+03  2.2635951477831650e+03  2.1126900554779536e+03  1.9617850410656972e+03  1.8108801262406657e+03  1.6599753402119670e+03  1.5090707231161527e+03  1.3581663314403543e+03  1.2072622470560111e+03  1.0563585921060621e+03  9.0545556081969050e+02  7.5455344175591608e+02  6.0365294635511850e+02  4.5275398476690202e+02  3.0186470237609075e+02  1.5100001892827416e+02  3.0504532035034167e-02  3.4018830198747601e+04  3.3990665095949305e+04  3.3961500682817656e+04  3.3927768843107850e+04  3.3894755098489513e+04  2.4592564339005803e+04  2.4440336410843993e+04  2.4291081900680572e+04  2.4141406328577399e+04  2.3991371709350195e+04  2.3841085224111670e+04  2.3690628908841860e+04  2.3540056308883970e+04  2.3389402177128963e+04  2.3238689489744505e+04  2.3087933825261091e+04  2.2937146016694220e+04  2.2786333776037569e+04  2.2635502710364017e+04  2.2484656972895540e+04  2.2333799690365948e+04  2.2182933250106773e+04  2.2032059497139970e+04  2.1881179872255951e+04  2.1730295510578882e+04  2.1579407313152456e+04  2.1428515999760657e+04  2.1277622148468156e+04  2.1126726225607123e+04  2.0975828608785738e+04  2.0824929604726360e+04  2.0674029463222076e+04  2.0523128388144134e+04  2.0372226546183476e+04  2.0221324073834658e+04  2.0070421083004028e+04  1.9919517665532829e+04  1.9768613896858566e+04  1.9617709838988168e+04  1.9466805542918450e+04  1.9315901050611090e+04  1.9164996396606934e+04  1.9014091609347561e+04  1.8863186712258575e+04  1.8712281724638451e+04  1.8561376662388542e+04  1.8410471538613063e+04  1.8259566364112430e+04  1.8108661147789207e+04  1.7957755896982191e+04  1.7806850617741533e+04  1.7655945315055280e+04  1.7505039993036036e+04  1.7354134655074726e+04  1.7203229303967342e+04  1.7052323942019360e+04  1.6901418571131868e+04  1.6750513192872495e+04  1.6599607808533925e+04  1.6448702419182155e+04  1.6297797025696218e+04  1.6146891628801022e+04  1.5995986229094347e+04  1.5845080827069152e+04  1.5694175423131961e+04  1.5543270017618015e+04  1.5392364610803774e+04  1.5241459202917218e+04  1.5090553794146374e+04  1.4939648384646271e+04  1.4788742974544786e+04  1.4637837563947349e+04  1.4486932152940932e+04  1.4336026741597228e+04  1.4185121329975393e+04  1.4034215918124182e+04  1.3883310506083824e+04  1.3732405093887488e+04  1.3581499681562520e+04  1.3430594269131489e+04  1.3279688856612998e+04  1.3128783444022398e+04  1.2977878031372338e+04  1.2826972618673266e+04  1.2676067205933794e+04  1.2525161793161040e+04  1.2374256380360865e+04  1.2223350967538112e+04  1.2072445554696787e+04  1.1921540141840213e+04  1.1770634728971123e+04  1.1619729316091787e+04  1.1468823903204118e+04  1.1317918490309694e+04  1.1167013077409849e+04  1.1016107664505706e+04  1.0865202251598241e+04  1.0714296838688308e+04  1.0563391425776648e+04  1.0412486012863965e+04  1.0261580599950908e+04  1.0110675187038107e+04  9.9597697741262164e+03  9.8088643612159212e+03  9.6579589483079617e+03  9.5070535354031617e+03  9.3561481225024763e+03  9.2052427096069969e+03  9.0543372967180185e+03  8.9034318838370818e+03  8.7525264709660205e+03  8.6016210581070372e+03  8.4507156452627896e+03  8.2998102324364881e+03  8.1489048196319991e+03  7.9979994068540063e+03  7.8470939941081915e+03  7.6961885814014340e+03  7.5452831687420603e+03  7.3943777561401675e+03  7.2434723436080058e+03  7.0925669311604224e+03  6.9416615188154183e+03  6.7907561065948275e+03  6.6398506945251320e+03  6.4889452826384431e+03  6.3380398709737028e+03  6.1871344595781693e+03  6.0362290485091598e+03  5.8853236378362044e+03  5.7344182276436650e+03  5.5835128180339334e+03  5.4326074091312594e+03  5.2817020010864635e+03  5.1307965940826725e+03  4.9798911883422907e+03  4.8289857841354951e+03  4.6780803817906399e+03  4.5271749817069795e+03  4.3762695843702422e+03  4.2253641903717698e+03  4.0744588004320867e+03  3.9235534154300285e+03  3.7726480364388276e+03  3.6217426647710627e+03  3.4708373020349250e+03  3.3199319502050962e+03  3.1690266117125593e+03  3.0181212895595063e+03  2.8672159874675904e+03  2.7163107100713064e+03  2.5654054631732988e+03  2.4145002540860514e+03  2.2635950920961309e+03  2.1126899891055591e+03  1.9617849605343451e+03  1.8108800266162546e+03  1.6599752143000176e+03  1.5090705601043560e+03  1.3581661145188425e+03  1.2072619489301560e+03  1.0563581670912586e+03  9.0545492280803319e+02  7.5455245934517427e+02  6.0365113998479183e+02  4.5275160960569531e+02  3.0185741378591234e+02  1.5095887923064723e+02  -2.4393869725671249e-03  3.4017556793344498e+04  3.3989145537893994e+04  3.3959547444112839e+04  3.3927718177744129e+04  3.3897375753109445e+04  2.4596161816978241e+04  2.4442394717195031e+04  2.4292064032353512e+04  2.4141930826186417e+04  2.3991674690273056e+04  2.3841272408778652e+04  2.3690750839630284e+04  2.3540139180931372e+04  2.3389460466908211e+04  2.3238731649261470e+04  2.3087965022918179e+04  2.2937169540637551e+04  2.2786351790913890e+04  2.2635516684240571e+04  2.2484667927725252e+04  2.2333808354068420e+04  2.2182940151763349e+04  2.2032065028223918e+04  2.1881184326995473e+04  2.1730299113166573e+04  2.1579410236468837e+04  2.1428518378505349e+04  2.1277624088532619e+04  2.1126727810874818e+04  2.0975829906140902e+04  2.0824930667794881e+04  2.0674030335201307e+04  2.0523129103968142e+04  2.0372227134197277e+04  2.0221324557100666e+04  2.0070421480329904e+04  1.9919517992285942e+04  1.9768614165615356e+04  1.9617710060054691e+04  1.9466805724749520e+04  1.9315901200149121e+04  1.9164996519556793e+04  1.9014091710400084e+04  1.8863186795272788e+04  1.8712281792790422e+04  1.8561376718293188e+04  1.8410471584423874e+04  1.8259566401603366e+04  1.8108661178421833e+04  1.7957755921960910e+04  1.7806850638058957e+04  1.7655945331529565e+04  1.7505040006341598e+04  1.7354134665767553e+04  1.7203229312505795e+04  1.7052323948781366e+04  1.6901418576429009e+04  1.6750513196961692e+04  1.6599607811627029e+04  1.6448702421453854e+04  1.6297797027290548e+04  1.6146891629836766e+04  1.5995986229669455e+04  1.5845080827264397e+04  1.5694175423013947e+04  1.5543270017241670e+04  1.5392364610214396e+04  1.5241459202152160e+04  1.5090553793236435e+04  1.4939648383616857e+04  1.4788742973416838e+04  1.4637837562738154e+04  1.4486932151664721e+04  1.4336026740265765e+04  1.4185121328598350e+04  1.4034215916709560e+04  1.3883310504638206e+04  1.3732405092416311e+04  1.3581499680070261e+04  1.3430594267621846e+04  1.3279688855089013e+04  1.3128783442486589e+04  1.2977878029826772e+04  1.2826972617119647e+04  1.2676067204373538e+04  1.2525161791595299e+04  1.2374256378790593e+04  1.2223350965964097e+04  1.2072445553119682e+04  1.1921540140260538e+04  1.1770634727389319e+04  1.1619729314508215e+04  1.1468823901619066e+04  1.1317918488723395e+04  1.1167013075822493e+04  1.1016107662917442e+04  1.0865202250009188e+04  1.0714296837098549e+04  1.0563391424186246e+04  1.0412486011272955e+04  1.0261580598359300e+04  1.0110675185445894e+04  9.9597697725333674e+03  9.8088643596223792e+03  9.6579589467136448e+03  9.5070535338079644e+03  9.3561481209062495e+03  9.2052427080095640e+03  9.0543372951191523e+03  8.9034318822365003e+03  8.7525264693633853e+03  8.6016210565019246e+03  8.4507156436546866e+03  8.2998102308247690e+03  8.1489048180159061e+03  7.9979994052326192e+03  7.8470939924803879e+03  7.6961885797658579e+03  7.5452831670970590e+03  7.3943777544837421e+03  7.2434723419377251e+03  7.0925669294733461e+03  6.9416615171079711e+03  6.7907561048626731e+03  6.6398506927630133e+03  6.4889452808399765e+03  6.3380398691311511e+03  6.1871344576821311e+03  6.0362290465482329e+03  5.8853236357965434e+03  5.7344182255084597e+03  5.5835128157827658e+03  5.4326074067393147e+03  5.2817019985235847e+03  5.1307965913121807e+03  4.9798911853195514e+03  4.8289857808061506e+03  4.6780803780884298e+03  4.5271749775510507e+03  4.3762695796618018e+03  4.2253641849899086e+03  4.0744587942285502e+03  3.9235534082226113e+03  3.7726480280029759e+03  3.6217426548291114e+03  3.4708372902421715e+03  3.3199319361315911e+03  3.1690265948190054e+03  3.0181212691649325e+03  2.8672159627053807e+03  2.7163106798283989e+03  2.5654054260046728e+03  2.4145002080921568e+03  2.2635950