<?xml version="1.0"?>
<VTKFile type="UnstructuredGrid"  version="0.1"  >
<UnstructuredGrid>
<Piece  NumberOfPoints="21400" NumberOfCells="42336">
<Points>
<DataArray  type="Float64"  NumberOfComponents="3"  format="ascii">0 0 0  0.004583333333333333 0 0  0.009166666666666667 0 0  0.01375 0 0  0.01833333333333333 0 0  0.02291666666666667 0 0  0.0275 0 0  0.03208333333333334 0 0  0.03666666666666667 0 0  0.04125 0 0  0.04583333333333334 0 0  0.05041666666666667 0 0  0.055 0 0  0.05958333333333334 0 0  0.06416666666666668 0 0  0.06875000000000001 0 0  0.07333333333333333 0 0  0.07791666666666666 0 0  0.08249999999999999 0 0  0.08708333333333333 0 0  0.09166666666666667 0 0  0.09625000000000002 0 0  0.1008333333333333 0 0  0.1054166666666667 0 0  0.11 0 0  0.1145833333333333 0 0  0.1191666666666667 0 0  0.12375 0 0  0.1283333333333334 0 0  0.1329166666666667 0 0  0.1375 0 0  0.1420833333333333 0 0  0.1466666666666667 0 0  0.15125 0 0  0.1558333333333333 0 0  0.1604166666666667 0 0  0.165 0 0  0.1695833333333333 0 0  0.1741666666666667 0 0  0.17875 0 0  0.1833333333333333 0 0  0.1879166666666667 0 0  0.1925 0 0  0.1970833333333333 0 0  0.2016666666666667 0 0  0.20625 0 0  0.2108333333333333 0 0  0.2154166666666666 0 0  0.22 0 0  0.2245833333333334 0 0  0.2291666666666667 0 0  0.23375 0 0  0.2383333333333333 0 0  0.2429166666666667 0 0  0.2475 0 0  0.2520833333333333 0 0  0.2566666666666667 0 0  0.26125 0 0  0.2658333333333334 0 0  0.2704166666666666 0 0  0.275 0 0  0.2795833333333334 0 0  0.2841666666666667 0 0  0.28875 0 0  0.2933333333333333 0 0  0.2979166666666667 0 0  0.3025 0 0  0.3070833333333334 0 0  0.3116666666666666 0 0  0.31625 0 0  0.3208333333333333 0 0  0.3254166666666667 0 0  0.33 0 0  0.3345833333333333 0 0  0.3391666666666667 0 0  0.34375 0 0  0.3483333333333333 0 0  0.3529166666666667 0 0  0.3575 0 0  0.3620833333333333 0 0  0.3666666666666667 0 0  0.37125 0 0  0.3758333333333334 0 0  0.3804166666666667 0 0  0.3850000000000001 0 0  0.3895833333333333 0 0  0.3941666666666667 0 0  0.39875 0 0  0.4033333333333334 0 0  0.4079166666666666 0 0  0.4125 0 0  0.4170833333333334 0 0  0.4216666666666667 0 0  0.42625 0 0  0.4308333333333333 0 0  0.4354166666666667 0 0  0.44 0 0  0.4445833333333333 0 0  0.4491666666666667 0 0  0.45375 0 0  0.4583333333333333 0 0  0.4629166666666666 0 0  0.4675 0 0  0.4720833333333334 0 0  0.4766666666666667 0 0  0.4812500000000001 0 0  0.4858333333333333 0 0  0.4904166666666667 0 0  0.495 0 0  0.4995833333333334 0 0  0.5041666666666667 0 0  0.50875 0 0  0.5133333333333334 0 0  0.5179166666666667 0 0  0.5225 0 0  0.5270833333333333 0 0  0.5316666666666667 0 0  0.53625 0 0  0.5408333333333333 0 0  0.5454166666666667 0 0  0.55 0 0  0.5545833333333333 0 0  0.5591666666666667 0 0  0.5637500000000001 0 0  0.5683333333333334 0 0  0.5729166666666666 0 0  0.5775 0 0  0.5820833333333334 0 0  0.5866666666666667 0 0  0.5912499999999999 0 0  0.5958333333333334 0 0  0.6004166666666667 0 0  0.605 0 0  0.6095833333333334 0 0  0.6141666666666667 0 0  0.61875 0 0  0.6233333333333333 0 0  0.6279166666666667 0 0  0.6325000000000001 0 0  0.6370833333333333 0 0  0.6416666666666666 0 0  0.64625 0 0  0.6508333333333334 0 0  0.6554166666666666 0 0  0.6599999999999999 0 0  0.6645833333333334 0 0  0.6691666666666667 0 0  0.67375 0 0  0.6783333333333333 0 0  0.6829166666666667 0 0  0.6875 0 0  0.6920833333333333 0 0  0.6966666666666667 0 0  0.70125 0 0  0.7058333333333333 0 0  0.7104166666666667 0 0  0.7150000000000001 0 0  0.7195833333333334 0 0  0.7241666666666666 0 0  0.72875 0 0  0.7333333333333334 0 0  0.7379166666666667 0 0  0.7425 0 0  0.7470833333333333 0 0  0.7516666666666667 0 0  0.75625 0 0  0.7608333333333334 0 0  0.7654166666666666 0 0  0.7700000000000001 0 0  0 0.002380952380952381 0  0.004583333333333333 0.002380952380952381 0  0.009166666666666667 0.002380952380952381 0  0.01375 0.002380952380952381 0  0.01833333333333333 0.002380952380952381 0  0.02291666666666667 0.002380952380952381 0  0.0275 0.002380952380952381 0  0.03208333333333334 0.002380952380952381 0  0.03666666666666667 0.002380952380952381 0  0.04125 0.002380952380952381 0  0.04583333333333334 0.002380952380952381 0  0.05041666666666667 0.002380952380952381 0  0.055 0.002380952380952381 0  0.05958333333333334 0.002380952380952381 0  0.06416666666666668 0.002380952380952381 0  0.06875000000000001 0.002380952380952381 0  0.07333333333333333 0.002380952380952381 0  0.07791666666666666 0.002380952380952381 0  0.08249999999999999 0.002380952380952381 0  0.08708333333333333 0.002380952380952381 0  0.09166666666666667 0.002380952380952381 0  0.09625000000000002 0.002380952380952381 0  0.1008333333333333 0.002380952380952381 0  0.1054166666666667 0.002380952380952381 0  0.11 0.002380952380952381 0  0.1145833333333333 0.002380952380952381 0  0.1191666666666667 0.002380952380952381 0  0.12375 0.002380952380952381 0  0.1283333333333334 0.002380952380952381 0  0.1329166666666667 0.002380952380952381 0  0.1375 0.002380952380952381 0  0.1420833333333333 0.002380952380952381 0  0.1466666666666667 0.002380952380952381 0  0.15125 0.002380952380952381 0  0.1558333333333333 0.002380952380952381 0  0.1604166666666667 0.002380952380952381 0  0.165 0.002380952380952381 0  0.1695833333333333 0.002380952380952381 0  0.1741666666666667 0.002380952380952381 0  0.17875 0.002380952380952381 0  0.1833333333333333 0.002380952380952381 0  0.1879166666666667 0.002380952380952381 0  0.1925 0.002380952380952381 0  0.1970833333333333 0.002380952380952381 0  0.2016666666666667 0.002380952380952381 0  0.20625 0.002380952380952381 0  0.2108333333333333 0.002380952380952381 0  0.2154166666666666 0.002380952380952381 0  0.22 0.002380952380952381 0  0.2245833333333334 0.002380952380952381 0  0.2291666666666667 0.002380952380952381 0  0.23375 0.002380952380952381 0  0.2383333333333333 0.002380952380952381 0  0.2429166666666667 0.002380952380952381 0  0.2475 0.002380952380952381 0  0.2520833333333333 0.002380952380952381 0  0.2566666666666667 0.002380952380952381 0  0.26125 0.002380952380952381 0  0.2658333333333334 0.002380952380952381 0  0.2704166666666666 0.002380952380952381 0  0.275 0.002380952380952381 0  0.2795833333333334 0.002380952380952381 0  0.2841666666666667 0.002380952380952381 0  0.28875 0.002380952380952381 0  0.2933333333333333 0.002380952380952381 0  0.2979166666666667 0.002380952380952381 0  0.3025 0.002380952380952381 0  0.3070833333333334 0.002380952380952381 0  0.3116666666666666 0.002380952380952381 0  0.31625 0.002380952380952381 0  0.3208333333333333 0.002380952380952381 0  0.3254166666666667 0.002380952380952381 0  0.33 0.002380952380952381 0  0.3345833333333333 0.002380952380952381 0  0.3391666666666667 0.002380952380952381 0  0.34375 0.002380952380952381 0  0.3483333333333333 0.002380952380952381 0  0.3529166666666667 0.002380952380952381 0  0.3575 0.002380952380952381 0  0.3620833333333333 0.002380952380952381 0  0.3666666666666667 0.002380952380952381 0  0.37125 0.002380952380952381 0  0.3758333333333334 0.002380952380952381 0  0.3804166666666667 0.002380952380952381 0  0.3850000000000001 0.002380952380952381 0  0.3895833333333333 0.002380952380952381 0  0.3941666666666667 0.002380952380952381 0  0.39875 0.002380952380952381 0  0.4033333333333334 0.002380952380952381 0  0.4079166666666666 0.002380952380952381 0  0.4125 0.002380952380952381 0  0.4170833333333334 0.002380952380952381 0  0.4216666666666667 0.002380952380952381 0  0.42625 0.002380952380952381 0  0.4308333333333333 0.002380952380952381 0  0.4354166666666667 0.002380952380952381 0  0.44 0.002380952380952381 0  0.4445833333333333 0.002380952380952381 0  0.4491666666666667 0.002380952380952381 0  0.45375 0.002380952380952381 0  0.4583333333333333 0.002380952380952381 0  0.4629166666666666 0.002380952380952381 0  0.4675 0.002380952380952381 0  0.4720833333333334 0.002380952380952381 0  0.4766666666666667 0.002380952380952381 0  0.4812500000000001 0.002380952380952381 0  0.4858333333333333 0.002380952380952381 0  0.4904166666666667 0.002380952380952381 0  0.495 0.002380952380952381 0  0.4995833333333334 0.002380952380952381 0  0.5041666666666667 0.002380952380952381 0  0.50875 0.002380952380952381 0  0.5133333333333334 0.002380952380952381 0  0.5179166666666667 0.002380952380952381 0  0.5225 0.002380952380952381 0  0.5270833333333333 0.002380952380952381 0  0.5316666666666667 0.002380952380952381 0  0.53625 0.002380952380952381 0  0.5408333333333333 0.002380952380952381 0  0.5454166666666667 0.002380952380952381 0  0.55 0.002380952380952381 0  0.5545833333333333 0.002380952380952381 0  0.5591666666666667 0.002380952380952381 0  0.5637500000000001 0.002380952380952381 0  0.5683333333333334 0.002380952380952381 0  0.5729166666666666 0.002380952380952381 0  0.5775 0.002380952380952381 0  0.5820833333333334 0.002380952380952381 0  0.5866666666666667 0.002380952380952381 0  0.5912499999999999 0.002380952380952381 0  0.5958333333333334 0.002380952380952381 0  0.6004166666666667 0.002380952380952381 0  0.605 0.002380952380952381 0  0.6095833333333334 0.002380952380952381 0  0.6141666666666667 0.002380952380952381 0  0.61875 0.002380952380952381 0  0.6233333333333333 0.002380952380952381 0  0.6279166666666667 0.002380952380952381 0  0.6325000000000001 0.002380952380952381 0  0.6370833333333333 0.002380952380952381 0  0.6416666666666666 0.002380952380952381 0  0.64625 0.002380952380952381 0  0.6508333333333334 0.002380952380952381 0  0.6554166666666666 0.002380952380952381 0  0.6599999999999999 0.002380952380952381 0  0.6645833333333334 0.002380952380952381 0  0.6691666666666667 0.002380952380952381 0  0.67375 0.002380952380952381 0  0.6783333333333333 0.002380952380952381 0  0.6829166666666667 0.002380952380952381 0  0.6875 0.002380952380952381 0  0.6920833333333333 0.002380952380952381 0  0.6966666666666667 0.002380952380952381 0  0.70125 0.002380952380952381 0  0.7058333333333333 0.002380952380952381 0  0.7104166666666667 0.002380952380952381 0  0.7150000000000001 0.002380952380952381 
[...]
<PointData  Scalars="pressure"> 
<DataArray  type="Float64"  Name="pressure"  format="ascii">2.4865752715132789e+04  2.4836057061975393e+04  2.4808845364829333e+04  2.4780253236976368e+04  2.4750374721223678e+04  2.4714991092483295e+04  2.4682286210834773e+04  2.4649552360096728e+04  2.4613962787067259e+04  2.4584724801671236e+04  2.4560919091955591e+04  2.4534573548455191e+04  2.4507475928685824e+04  2.4480044265938246e+04  2.4452437661265547e+04  2.4424715366753524e+04  2.4396867886684169e+04  2.4368854630712103e+04  2.4340787438693464e+04  2.4313043523184035e+04  2.4290233928137306e+04  1.7667195589749117e+04  1.7643394958489393e+04  1.7619764638796089e+04  1.7595950461937053e+04  1.7571813843250133e+04  1.7547342410371602e+04  1.7522573571035275e+04  1.7497295861340157e+04  1.7471176048374527e+04  1.7443991380950913e+04  1.7415649089543462e+04  1.7386122081932353e+04  1.7355420734533767e+04  1.7323632932042023e+04  1.7290958564452416e+04  1.7257705816889069e+04  1.7224273544232026e+04  1.7191211241968755e+04  1.7160353750143968e+04  1.7121469535648863e+04  1.7084556539577759e+04  1.7047965469941013e+04  1.7011351795502833e+04  1.6974963460692063e+04  1.6938893019520252e+04  1.6903732045771922e+04  1.6869251968069668e+04  1.6836190872884868e+04  1.6804013130456948e+04  1.6773391918161866e+04  1.6743454310085101e+04  1.6712987341196327e+04  1.6680798385965518e+04  1.6645317164169919e+04  1.6608280429479906e+04  1.6568353591866911e+04  1.6527596761518093e+04  1.6487421052723894e+04  1.6426920166982163e+04  1.6318749660651045e+04  1.6170201594353122e+04  1.6014584155154311e+04  1.5860604362258147e+04  1.5707621022226771e+04  1.5555067687748853e+04  1.5402720538657764e+04  1.5250501529328225e+04  1.5098392640503263e+04  1.4946394312793398e+04  1.4794509323017102e+04  1.4642737474591000e+04  1.4491074770092911e+04  1.4339514171174536e+04  1.4188046722611210e+04  1.4036662569229029e+04  1.3885351726152481e+04  1.3734104598810476e+04  1.3582912296593451e+04  1.3431766793264593e+04  1.3280660981583593e+04  1.3129588659609090e+04  1.2978544476201472e+04  1.2827523854914825e+04  1.2676522909054884e+04  1.2525538356006693e+04  1.2374567435660696e+04  1.2223607835549694e+04  1.2072657623859091e+04  1.1921715190561459e+04  1.1770779196382731e+04  1.1619848529008879e+04  1.1468922265802090e+04  1.1317999642254945e+04  1.1167080025430032e+04  1.1016162891684437e+04  1.0865247808046182e+04  1.0714334416683383e+04  1.0563422421978876e+04  1.0412511579791208e+04  1.0261601688544113e+04  1.0110692581841411e+04  9.9597841223516389e+03  9.8088761967479095e+03  9.6579687115233573e+03  9.5070615895325118e+03  9.3561547671337339e+03  9.2052481918290741e+03  9.0543418203155379e+03  8.9034356168763825e+03  8.7525295520533964e+03  8.6016236015511731e+03  8.4507177453331205e+03  8.2998119668755880e+03  8.1489062525525887e+03  7.9980005911283233e+03  7.8470949733386269e+03  7.6961893915457867e+03  7.5452838394539431e+03  7.3943783118744395e+03  7.2434728045324682e+03  7.0925673139077016e+03  6.9416618371030754e+03  6.7907563717368012e+03  6.6398509158535662e+03  6.4889454678516422e+03  6.3380400264231730e+03  6.1871345905054304e+03  6.0362291592411921e+03  5.8853237319467971e+03  5.7344183080866878e+03  5.5835128872534870e+03  5.4326074691528411e+03  5.2817020535925321e+03  5.1307966404754452e+03  4.9798912297961169e+03  4.8289858216407783e+03  4.6780804161909637e+03  4.5271750137308509e+03  4.3762696146586932e+03  4.2253642195028888e+03  4.0744588289435278e+03  3.9235534438404570e+03  3.7726480652693576e+03  3.6217426945678094e+03  3.4708373333940394e+03  3.3199319838020169e+03  3.1690266483377886e+03  3.0181213301641374e+03  2.8672160332232716e+03  2.7163107624515733e+03  2.5654055240669109e+03  2.4145003259589334e+03  2.2635951782286124e+03  2.1126900939488901e+03  1.9617850902610614e+03  1.8108801899949653e+03  1.6599754241305641e+03  1.5090708356626878e+03  1.3581664858538729e+03  1.2072624650823282e+03  1.0563589100050945e+03  9.0545605307242613e+02  7.5455417561463742e+02  6.0365472295424263e+02  4.5275236545429453e+02  3.0190539320565398e+02  1.5056425485907687e+02  4.2690987426609688e+00  2.4864100361352026e+04  2.4835740562900137e+04  2.4809715724520163e+04  2.4778484122760674e+04  1.8028588076251232e+04  1.8003737209289015e+04  1.7980155537687981e+04  1.7956556097372628e+04  1.7931650989182381e+04  2.4585408733552093e+04  2.4561112099324509e+04  2.4534640509759403e+04  2.4507509173879491e+04  2.4480061610675526e+04  2.4452449009640135e+04  2.4424728157499751e+04  2.4396887180574322e+04  2.4368872916935608e+04  2.4340729676353145e+04  2.4313054648491809e+04  2.4287236595717484e+04  2.4252664180133324e+04  2.4220004652281921e+04  2.4187599558719176e+04  2.4154923373883830e+04  2.4121791536030534e+04  2.4088185670791601e+04  2.4054212714872734e+04  2.4019556236544835e+04  2.3983725934993567e+04  2.3946417677469384e+04  2.3907513393046618e+04  2.3866979960598390e+04  2.3824825120968035e+04  2.3781164923641223e+04  2.3736275434490159e+04  2.3690579389270933e+04  2.3644637504461756e+04  2.3599080739842848e+04  2.3556450567796175e+04  1.7121180087703953e+04  2.3452902034231607e+04  1.7047960802933376e+04  2.3352373933320283e+04  1.6974895185883368e+04  2.3252860821440692e+04  1.6903592149371598e+04  2.3157228925642336e+04  1.6836011825376907e+04  2.3067657521763842e+04  1.6773245091907254e+04  2.2984630390367904e+04  1.6713347711718241e+04  2.2898828991361141e+04  1.6645593705802534e+04  2.2799315019635622e+04  1.6568460104061371e+04  2.2688365937565326e+04  1.6486630817453344e+04  1.6433959454046981e+04  1.6323565941398512e+04  1.6170240128906411e+04  1.6014335120073789e+04  1.5860511905357900e+04  1.5707578756257713e+04  1.5555048127355802e+04  1.5402707843762917e+04  1.5250490138576406e+04  1.5098380906130467e+04  1.4946382154424269e+04  1.4794497137651626e+04  1.4642725705522891e+04  1.4491063758681890e+04  1.4339504128634137e+04  1.4188037746722614e+04  1.4036654673319414e+04  1.3885344867125541e+04  1.3734098699817312e+04  1.3582907263691568e+04  1.3431762526837449e+04  1.3280657383674943e+04  1.3129585638278813e+04  1.2978541947815562e+04  1.2827521745065211e+04  1.2676521152613743e+04  1.2525536896667059e+04  1.2374566225200924e+04  1.2223606832976659e+04  1.2072656794527280e+04  1.1921714505325614e+04  1.1770778630815554e+04  1.1619848062698487e+04  1.1468921881733171e+04  1.1317999326271356e+04  1.1167079765773196e+04  1.1016162678599951e+04  1.0865247633450846e+04  1.0714334273884699e+04  1.0563422305439735e+04  1.0412511484933091e+04  1.0261601611582970e+04  1.0110692519651029e+04  9.9597840723501158e+03  9.8088761568034406e+03  9.6579686798761722e+03  9.5070615647302020e+03  9.3561547479777346e+03  9.2052481773304316e+03  9.0543418096583173e+03  8.9034356093874649e+03  8.7525295471774971e+03  8.6016235988302524e+03  8.4507177443893524e+03  8.2998119673973179e+03  8.1489062542827442e+03  7.9980005938548547e+03  7.8470949768866030e+03  7.6961893957708917e+03  7.5452838442370894e+03  7.3943783171173473e+03  7.2434728101539858e+03  7.0925673198407994e+03  6.9416618432923324e+03  6.7907563781363460e+03  6.6398509224253703e+03  6.4889454745640978e+03  6.3380400332499130e+03  6.1871345974243468e+03  6.0362291662336174e+03  5.8853237389967999e+03  5.7344183151804755e+03  5.5835128943788995e+03  5.4326074762988837e+03  5.2817020607489694e+03  5.1307966476324118e+03  4.9798912369437367e+03  4.8289858287687894e+03  4.6780804232883102e+03  4.5271750207852456e+03  4.3762696216561180e+03  4.2253642264270084e+03  4.0744588357749831e+03  3.9235534505560136e+03  3.7726480718408279e+03  3.6217427009606931e+03  3.4708373395657823e+03  3.3199319896997281e+03  3.1690266538952255e+03  3.0181213352976520e+03  2.8672160378262683e+03  2.7163107663868177e+03  2.5654055271556131e+03  2.4145003279650045e+03  2.2635951788353941e+03  2.1126900927239612e+03  1.9617850866016015e+03  1.8108801830403181e+03  1.6599754126185089e+03  1.5090708176775088e+03  1.3581664584227192e+03  1.2072624230397116e+03  1.0563588468815210e+03  9.0545593711032257e+02  7.5455411138208501e+02  6.0365354207342034e+02  4.5275922202397521e+02  3.0184260147043506e+02  1.5112639415890970e+02  -2.3169241594641860e-01  2.4862945380440389e+04  2.4834878261894781e+04  2.4808251864673857e+04  2.4775528868354366e+04  2.4746504518262536e+04  2.4713999719737283e+04  2.4682301978216023e+04  2.4650600174227464e+04  2.4618106021826843e+04  2.4587716998396547e+04  2.4561650681878629e+04  2.4534871142245625e+04  2.4507619109398634e+04  2.4480119946225059e+04  2.4452486531500843e+04  2.4424770460072359e+04  2.4396956407685429e+04  2.4368939587241090e+04  2.4340630411288665e+04  2.4312413533417777e+04  2.4284060401529205e+04  2.4252315448751557e+04  2.4220000274619350e+04  2.4187655567117108e+04  2.4155016498624602e+04  2.4121893732273238e+04  2.4088237843591745e+04  2.4054342596257877e+04  2.4019793633107307e+04  2.3984020621828589e+04  2.3946732169056053e+04  2.3907832641143519e+04  2.3867300612028557e+04  2.3825124689771521e+04  2.3781409346221608e+04  2.3736437365342867e+04  2.3690630786483689e+04  2.3644556457204653e+04  2.3598861049080038e+04  2.3554336236971147e+04  2.3503083473719136e+04  2.3452864314913586e+04  2.3402653622816102e+04  2.3352309057212900e+04  2.3302211770479214e+04  2.3252677352438015e+04  2.3204188141823568e+04  2.3156964440730037e+04  2.3111339044522523e+04  2.3067365261946590e+04  2.3025202254554722e+04  2.2984601848854738e+04  2.2944141425813319e+04  2.2899398353777655e+04  2.2850667063140903e+04  2.2800029721805979e+04  2.2744402673883571e+04  2.2688702034434009e+04  2.2630332578938374e+04  2.2567365912521243e+04  1.6340297442604437e+04  1.6168835173681371e+04  1.6013663700384124e+04  1.5860187925874417e+04  1.5707442760674701e+04  1.5554982666801521e+04  1.5402664244094251e+04  1.5250450148309055e+04  1.5098339486291025e+04  1.4946339276516055e+04  1.4794454267749737e+04  1.4642684397878962e+04  1.4491025186256185e+04  1.4339469004612447e+04  1.4188006390645265e+04  1.4036627114548313e+04  1.3885320942741637e+04  1.3734078133006011e+04  1.3582889720976791e+04  1.3431747657112159e+04  1.3280644843134338e+04  1.3129575105121759e+04  1.2978533129875445e+04  1.2827514382768504e+04  1.2676515018998782e+04  1.2525531795668621e+04  1.2374561989011812e+04  1.2223603319014035e+04  1.2072653882333336e+04  1.1921712093597544e+04  1.1770776634670414e+04  1.1619846411220817e+04  1.1468920515817559e+04  1.1317998196750765e+04  1.1167078831812105e+04  1.1016161906326050e+04  1.0865246994797109e+04  1.0714333745614354e+04  1.0563421868328518e+04  1.0412511123085522e+04  1.0261601311862167e+04  1.0110692271204172e+04  9.9597838662141949e+03  9.8088759855781100e+03  9.6579685374526271e+03  9.5070614460666475e+03  9.3561546489136363e+03  9.2052480944328599e+03  9.0543417400949947e+03  8.9034355508218359e+03  8.7525294976820751e+03  8.6016235568150805e+03  8.4507177085429321e+03  8.2998119366378505e+03  8.1489062277179046e+03  7.9980005707485743e+03  7.8470949566316785e+03  7.6961893778663725e+03  7.5452838282696230e+03  7.3943783027457748e+03  7.2434727970966378e+03  7.0925673078649888e+03  6.9416618322056975e+03  6.7907563677796734e+03  6.6398509126666549e+03  6.4889454652936265e+03  6.3380400243761733e+03  6.1871345888706155e+03  6.0362291579350931e+03  5.8853237308981934e+03  5.7344183072339347e+03  5.5835128865422193e+03  5.4326074685339308e+03  5.2817020530202390e+03  5.1307966399056868e+03  4.9798912291847782e+03  4.8289858209420163e+03  4.6780804153554100e+03  4.5271750127036466e+03  4.3762696133772488e+03  4.2253642178942819e+03  4.0744588269213609e+03  3.9235534413010341e+03  3.7726480620869002e+03  3.6217426905884004e+03  3.4708373284278505e+03  3.3199319776131661e+03  3.1690266406309133e+03  3.0181213205663703e+03  2.8672160212596200e+03  2.7163107475107322e+03  2.5654055053528791e+03  2.4145003024211742e+03  2.2635951484590314e+03  2.1126900560261984e+03  1.9617850415094620e+03  1.8108801265989998e+03  1.6599753405005365e+03  1.5090707233478279e+03  1.3581663316256897e+03  1.2072622472036423e+03  1.0563585922230325e+03  9.0545556091172227e+02  7.5455344182763986e+02  6.0365294641027447e+02  4.5275398480850021e+02  3.0186470240736179e+02  1.5100001895460250e+02  3.0504525925260519e-02  2.4861825972426053e+04  2.4833762288655627e+04  2.4805469812342672e+04  2.4775111263145660e+04  2.4744949236584707e+04  2.4713656579953422e+04  2.4682303632435138e+04  2.4650976259242190e+04  2.4619674895903434e+04  2.4589930335038334e+04  2.4562431070394716e+04  2.4535217259828274e+04  2.4507792189893684e+04  2.4480212153719931e+04  2.4452543814731172e+04  2.4424834871559840e+04  2.4397077795015313e+04  2.4369103918689041e+04  2.4340550231270074e+04  2.4311457002974850e+04  2.4282402943147001e+04  2.4251768474870114e+04  2.4220038897627197e+04  2.4187787031940748e+04  2.4155240281713206e+04  2.4122176374579816e+04  2.4088299291966130e+04  2.4054650076327518e+04  2.4020376347582991e+04  2.3984731917275149e+04  2.3947484499727641e+04  2.3908590830629331e+04  2.3868070310896703e+04  2.3825848333276150e+04  2.3781997047967656e+04  2.3736832882189479e+04  2.3690752965561947e+04  2.3644390514258244e+04  2.3598287431442575e+04  2.3552046693661767e+04  2.3502846927361839e+04  2.3452922697122431e+04  2.3402691439631784e+04  2.3352249186170498e+04  2.3301985421607602e+04  2.3252324379537120e+04  2.3203703099636263e+04  2.3156411590068783e+04  2.3110714931601324e+04  2.3066730232254453e+04  2.3024600415213492e+04  2.2984365407013924e+04  2.2945900360226897e+04  2.2900895379790716e+04  2.2850829093079024e+04  2.2802769182581967e+04  2.2743448117239255e+04  2.2690200447981224e+04  2.2629422683664987e+04  2.2566825137613479e+04  1.6338132534465134e+04  1.6166550702196208e+04  1.6012527010330148e+04  1.5859700816819826e+04  1.5707239650212005e+04  1.5554882937250746e+04  1.5402593759848463e+04  1.5250382468208267e+04  1.5098268118024525e+04  1.4946265090970081e+04  1.4794380135826910e+04  1.4642613095421659e+04  1.4490958733873918e+04  1.4339408598490469e+04  1.4187952544126767e+04  1.4036579846583607e+04  1.3885279949100082e+04  1.3734042920808286e+04  1.3582859705797404e+04  1.3431722228616098e+04  1.3280623406652388e+04  1.3129557105906806e+04  1.2978518065466955e+04  1.2827501807544475e+04  1.2676504543843414e+04  1.2525523084782979e+04  1.2374554755225969e+04  1.2223597318480353e+04  1.2072648909147587e+04  1.1921707974668749e+04  1.1770773225011086e+04  1.1619843589733458e+04  1.1468918181593757e+04  1.1317996265864282e+04  1.1167077234568344e+04  1.1016160584921416e+04  1.0865245901339409e+04  1.0714332840456655e+04  1.0563421118672195e+04  1.0412510501812652e+04  1.0261600796562010e+04  1.0110691843363144e+04  9.9597835105429240e+03  9.8088756894531871e+03  9.6579682904539295e+03  9.5070612395942735e+03  9.3561544758709369e+03  9.2052479489643574e+03  9.0543416173697606e+03  8.9034354468544989e+03  8.7525294091850446e+03  8.6016234810764636e+03  8.4507176433257991e+03  8.2998118800970678e+03  8.1489061783314992e+03  7.9980005272611006e+03  7.8470949180074849e+03  7.6961893432510396e+03  7.5452837969581242e+03  7.3943782741562336e+03  7.2434727707486354e+03  7.0925672833616654e+03  6.9416618092189556e+03  6.7907563460379515e+03  6.6398508919448159e+03  6.4889454454045417e+03  6.3380400051637653e+03  6.1871345702040253e+03  6.0362291397038043e+03  5.8853237130079015e+03  5.7344182896030297e+03  5.5835128690987303e+03  5.4326074512128189e+03  5.2817020357609617e+03  5.1307966226498993e+03  4.9798912118741100e+03  4.8289858035158104e+03  4.6780803977483620e+03  4.5271749948431998e+03  4.3762695951806481e+03  4.2253641992651246e+03  4.0744588077454741e+03  3.9235534214414211e+03  3.7726480413774502e+03  3.6217426688259425e+03  3.4708373053619371e+03  3.3199319529327772e+03  3.1690266139469027e+03  3.0181212913879062e+03  2.8672159889621112e+03  2.7163107112913640e+03  2.5654054641678767e+03  2.4145002548955254e+03  2.2635950927537788e+03  2.1126899896387986e+03  1.9617849609657587e+03  1.8108800269644294e+03  1.6599752145802408e+03  1.5090705603291856e+03  1.3581661146985757e+03  1.2072619490732166e+03  1.0563581672045132e+03  9.0545492289705408e+02  7.5455245941445742e+02  6.0365114003793701e+02  4.5275160964561218e+02  3.0185741381536627e+02  1.5095887924882098e+02  -2.4393847578528150e-03  2.4860701619228894e+04  2.4832476272612115e+04  2.4803790993119641e+04  2.4774078218610448e+04  2.4743931806688066e+04  2.4713213573342593e+04  2.4682301421732038e+04  2.4651427999360563e+04  2.4620860572916892e+04  2.4591386370455362e+04  2.4563256436410607e+04  2.4535624729404917e+04  2.4508006906859515e+04  2.4480327444799357e+04  2.4452610546615062e+04  2.4424905347440672e+04  2.4397246703758196e+04  2.4369427754676646e+04  2.4340712345557360e+04  2.4310265308812170e+04  2.4281380922529963e+04  2.4251464810723479e+04  2.4220216275304534e+04  2.4187980045641369e+04  2.4155565700205458e+04  2.4122824129609780e+04  2.4088122896974692e+04  2.4055174962922185e+04  2.4021346171814421e+04  2.3985882111005289e+04  2.3948685584578125e+04  2.3909778851271771e+04  2.3869306959557747e+04  2.3827026020722169e+04  2.3782935094376095e+04  2.3737494426021196e+04  2.3690941238239204e+04  2.3644151291962364e+04  2.3597535745638408e+04  2.3550866642158973e+04  2.3502614478161118e+04  2.3453083488151722e+04  2.3402796776485775e+04  2.3352136568854814e+04  2.3301593938725840e+04  2.3251682007692401e+04  2.3202851953275349e+04  2.3155422703338230e+04  2.3109622244917238e+04  2.3065590840676014e+04  2.3023489063602727e+04  2.2983562379444509e+04  2.2947774181876302e+04  1.6684645326267066e+04  1.6646000930793081e+04  1.6613169705089094e+04  1.6573983560361798e+04  1.6533947357985136e+04  1.6486398769374799e+04  1.6430095666159435e+04  1.6314460637724827e+04  1.6163503676833170e+04  1.6011067103011828e+04  1.5859151613017744e+04  1.5707013278858918e+04  1.5554766731192603e+04  1.5402502464080129e+04  1.5250288390816122e+04  1.5098166381111676e+04  1.4946158761298038e+04  1.4794273984698802e+04  1.4642511266681086e+04  1.4490864100376204e+04  1.4339322795300974e+04  1.4187876225329572e+04  1.4036512973917703e+04  1.3885222040761044e+04  1.3733993241893153e+04  1.3582817403483048e+04  1.3431686422337603e+04  1.3280593244486334e+04  1.3129531796923635e+04  1.2978496895740296e+04  1.2827484145518634e+04  1.2676489839113137e+04  1.2525510863071520e+04  1.2374544611416071e+04  1.2223588908890875e+04  1.2072641943790957e+04  1.1921702209915920e+04  1.1770768456887639e+04  1.1619839647940949e+04  1.1468914924270544e+04  1.1317993575053568e+04  1.1167075012336325e+04  1.1016158750057370e+04  1.0865244386567094e+04  1.0714331590088743e+04  1.0563420086644743e+04  1.0412509650042934e+04  1.0261600093579809e+04  1.0110691263172163e+04  9.9597830316751752e+03  9.8088752941846051e+03  9.6579679641544371e+03  9.5070609701897138e+03  9.3561542533979082e+03  9.2052477652021389e+03  9.0543414655361121e+03  8.9034353213543673e+03  8.7525293054029971e+03  8.6016233952053444e+03  8.4507175722252450e+03  8.2998118211767596e+03  8.1489061294548092e+03  7.9980004866655681e+03  7.8470948842392145e+03  7.6961893151105469e+03  7.5452837734556797e+03  7.3943782544749693e+03  7.2434727542141200e+03  7.0925672694167697e+03  6.9416617974030905e+03  6.7907563359698943e+03  6.6398508833084998e+03  6.4889454379372828e+03  6.3380399986464517e+03  6.1871345644529583e+03  6.0362291345638387e+03  5.8853237083466574e+03  5.7344182853059447e+03  5.5835128650647739e+03  5.4326074473507060e+03  5.2817020319857156e+03  5.1307966188796327e+03  4.9798912080269101e+03  4.8289857995065795e+03  4.6780803934854875e+03  4.5271749902249212e+03  4.3762695900909330e+03  4.2253641935688502e+03  4.0744588012826607e+03  3.9235534140201939e+03  3.7726480327652848e+03  3.6217426587385985e+03  3.4708372934492909e+03  3.3199319387604096e+03  3.1690265969718280e+03  3.0181212709261172e+03  2.8672159641444819e+03  2.7163106810027680e+03  2.5654054269615876e+03  2.4145002088705910e+03  2.2635950