<?xml version="1.0"?>
<VTKFile type="UnstructuredGrid"  version="0.1"  >
<UnstructuredGrid>
<Piece  NumberOfPoints="21400" NumberOfCells="42336">
<Points>
<DataArray  type="Float64"  NumberOfComponents="3"  format="ascii">0 0 0  0.004583333333333333 0 0  0.009166666666666667 0 0  0.01375 0 0  0.01833333333333333 0 0  0.02291666666666667 0 0  0.0275 0 0  0.03208333333333334 0 0  0.03666666666666667 0 0  0.04125 0 0  0.04583333333333334 0 0  0.05041666666666667 0 0  0.055 0 0  0.05958333333333334 0 0  0.06416666666666668 0 0  0.06875000000000001 0 0  0.07333333333333333 0 0  0.07791666666666666 0 0  0.08249999999999999 0 0  0.08708333333333333 0 0  0.09166666666666667 0 0  0.09625000000000002 0 0  0.1008333333333333 0 0  0.1054166666666667 0 0  0.11 0 0  0.1145833333333333 0 0  0.1191666666666667 0 0  0.12375 0 0  0.1283333333333334 0 0  0.1329166666666667 0 0  0.1375 0 0  0.1420833333333333 0 0  0.1466666666666667 0 0  0.15125 0 0  0.1558333333333333 0 0  0.1604166666666667 0 0  0.165 0 0  0.1695833333333333 0 0  0.1741666666666667 0 0  0.17875 0 0  0.1833333333333333 0 0  0.1879166666666667 0 0  0.1925 0 0  0.1970833333333333 0 0  0.2016666666666667 0 0  0.20625 0 0  0.2108333333333333 0 0  0.2154166666666666 0 0  0.22 0 0  0.2245833333333334 0 0  0.2291666666666667 0 0  0.23375 0 0  0.2383333333333333 0 0  0.2429166666666667 0 0  0.2475 0 0  0.2520833333333333 0 0  0.2566666666666667 0 0  0.26125 0 0  0.2658333333333334 0 0  0.2704166666666666 0 0  0.275 0 0  0.2795833333333334 0 0  0.2841666666666667 0 0  0.28875 0 0  0.2933333333333333 0 0  0.2979166666666667 0 0  0.3025 0 0  0.3070833333333334 0 0  0.3116666666666666 0 0  0.31625 0 0  0.3208333333333333 0 0  0.3254166666666667 0 0  0.33 0 0  0.3345833333333333 0 0  0.3391666666666667 0 0  0.34375 0 0  0.3483333333333333 0 0  0.3529166666666667 0 0  0.3575 0 0  0.3620833333333333 0 0  0.3666666666666667 0 0  0.37125 0 0  0.3758333333333334 0 0  0.3804166666666667 0 0  0.3850000000000001 0 0  0.3895833333333333 0 0  0.3941666666666667 0 0  0.39875 0 0  0.4033333333333334 0 0  0.4079166666666666 0 0  0.4125 0 0  0.4170833333333334 0 0  0.4216666666666667 0 0  0.42625 0 0  0.4308333333333333 0 0  0.4354166666666667 0 0  0.44 0 0  0.4445833333333333 0 0  0.4491666666666667 0 0  0.45375 0 0  0.4583333333333333 0 0  0.4629166666666666 0 0  0.4675 0 0  0.4720833333333334 0 0  0.4766666666666667 0 0  0.4812500000000001 0 0  0.4858333333333333 0 0  0.4904166666666667 0 0  0.495 0 0  0.4995833333333334 0 0  0.5041666666666667 0 0  0.50875 0 0  0.5133333333333334 0 0  0.5179166666666667 0 0  0.5225 0 0  0.5270833333333333 0 0  0.5316666666666667 0 0  0.53625 0 0  0.5408333333333333 0 0  0.5454166666666667 0 0  0.55 0 0  0.5545833333333333 0 0  0.5591666666666667 0 0  0.5637500000000001 0 0  0.5683333333333334 0 0  0.5729166666666666 0 0  0.5775 0 0  0.5820833333333334 0 0  0.5866666666666667 0 0  0.5912499999999999 0 0  0.5958333333333334 0 0  0.6004166666666667 0 0  0.605 0 0  0.6095833333333334 0 0  0.6141666666666667 0 0  0.61875 0 0  0.6233333333333333 0 0  0.6279166666666667 0 0  0.6325000000000001 0 0  0.6370833333333333 0 0  0.6416666666666666 0 0  0.64625 0 0  0.6508333333333334 0 0  0.6554166666666666 0 0  0.6599999999999999 0 0  0.6645833333333334 0 0  0.6691666666666667 0 0  0.67375 0 0  0.6783333333333333 0 0  0.6829166666666667 0 0  0.6875 0 0  0.6920833333333333 0 0  0.6966666666666667 0 0  0.70125 0 0  0.7058333333333333 0 0  0.7104166666666667 0 0  0.7150000000000001 0 0  0.7195833333333334 0 0  0.7241666666666666 0 0  0.72875 0 0  0.7333333333333334 0 0  0.7379166666666667 0 0  0.7425 0 0  0.7470833333333333 0 0  0.7516666666666667 0 0  0.75625 0 0  0.7608333333333334 0 0  0.7654166666666666 0 0  0.7700000000000001 0 0  0 0.002380952380952381 0  0.004583333333333333 0.002380952380952381 0  0.009166666666666667 0.002380952380952381 0  0.01375 0.002380952380952381 0  0.01833333333333333 0.002380952380952381 0  0.02291666666666667 0.002380952380952381 0  0.0275 0.002380952380952381 0  0.03208333333333334 0.002380952380952381 0  0.03666666666666667 0.002380952380952381 0  0.04125 0.002380952380952381 0  0.04583333333333334 0.002380952380952381 0  0.05041666666666667 0.002380952380952381 0  0.055 0.002380952380952381 0  0.05958333333333334 0.002380952380952381 0  0.06416666666666668 0.002380952380952381 0  0.06875000000000001 0.002380952380952381 0  0.07333333333333333 0.002380952380952381 0  0.07791666666666666 0.002380952380952381 0  0.08249999999999999 0.002380952380952381 0  0.08708333333333333 0.002380952380952381 0  0.09166666666666667 0.002380952380952381 0  0.09625000000000002 0.002380952380952381 0  0.1008333333333333 0.002380952380952381 0  0.1054166666666667 0.002380952380952381 0  0.11 0.002380952380952381 0  0.1145833333333333 0.002380952380952381 0  0.1191666666666667 0.002380952380952381 0  0.12375 0.002380952380952381 0  0.1283333333333334 0.002380952380952381 0  0.1329166666666667 0.002380952380952381 0  0.1375 0.002380952380952381 0  0.1420833333333333 0.002380952380952381 0  0.1466666666666667 0.002380952380952381 0  0.15125 0.002380952380952381 0  0.1558333333333333 0.002380952380952381 0  0.1604166666666667 0.002380952380952381 0  0.165 0.002380952380952381 0  0.1695833333333333 0.002380952380952381 0  0.1741666666666667 0.002380952380952381 0  0.17875 0.002380952380952381 0  0.1833333333333333 0.002380952380952381 0  0.1879166666666667 0.002380952380952381 0  0.1925 0.002380952380952381 0  0.1970833333333333 0.002380952380952381 0  0.2016666666666667 0.002380952380952381 0  0.20625 0.002380952380952381 0  0.2108333333333333 0.002380952380952381 0  0.2154166666666666 0.002380952380952381 0  0.22 0.002380952380952381 0  0.2245833333333334 0.002380952380952381 0  0.2291666666666667 0.002380952380952381 0  0.23375 0.002380952380952381 0  0.2383333333333333 0.002380952380952381 0  0.2429166666666667 0.002380952380952381 0  0.2475 0.002380952380952381 0  0.2520833333333333 0.002380952380952381 0  0.2566666666666667 0.002380952380952381 0  0.26125 0.002380952380952381 0  0.2658333333333334 0.002380952380952381 0  0.2704166666666666 0.002380952380952381 0  0.275 0.002380952380952381 0  0.2795833333333334 0.002380952380952381 0  0.2841666666666667 0.002380952380952381 0  0.28875 0.002380952380952381 0  0.2933333333333333 0.002380952380952381 0  0.2979166666666667 0.002380952380952381 0  0.3025 0.002380952380952381 0  0.3070833333333334 0.002380952380952381 0  0.3116666666666666 0.002380952380952381 0  0.31625 0.002380952380952381 0  0.3208333333333333 0.002380952380952381 0  0.3254166666666667 0.002380952380952381 0  0.33 0.002380952380952381 0  0.3345833333333333 0.002380952380952381 0  0.3391666666666667 0.002380952380952381 0  0.34375 0.002380952380952381 0  0.3483333333333333 0.002380952380952381 0  0.3529166666666667 0.002380952380952381 0  0.3575 0.002380952380952381 0  0.3620833333333333 0.002380952380952381 0  0.3666666666666667 0.002380952380952381 0  0.37125 0.002380952380952381 0  0.3758333333333334 0.002380952380952381 0  0.3804166666666667 0.002380952380952381 0  0.3850000000000001 0.002380952380952381 0  0.3895833333333333 0.002380952380952381 0  0.3941666666666667 0.002380952380952381 0  0.39875 0.002380952380952381 0  0.4033333333333334 0.002380952380952381 0  0.4079166666666666 0.002380952380952381 0  0.4125 0.002380952380952381 0  0.4170833333333334 0.002380952380952381 0  0.4216666666666667 0.002380952380952381 0  0.42625 0.002380952380952381 0  0.4308333333333333 0.002380952380952381 0  0.4354166666666667 0.002380952380952381 0  0.44 0.002380952380952381 0  0.4445833333333333 0.002380952380952381 0  0.4491666666666667 0.002380952380952381 0  0.45375 0.002380952380952381 0  0.4583333333333333 0.002380952380952381 0  0.4629166666666666 0.002380952380952381 0  0.4675 0.002380952380952381 0  0.4720833333333334 0.002380952380952381 0  0.4766666666666667 0.002380952380952381 0  0.4812500000000001 0.002380952380952381 0  0.4858333333333333 0.002380952380952381 0  0.4904166666666667 0.002380952380952381 0  0.495 0.002380952380952381 0  0.4995833333333334 0.002380952380952381 0  0.5041666666666667 0.002380952380952381 0  0.50875 0.002380952380952381 0  0.5133333333333334 0.002380952380952381 0  0.5179166666666667 0.002380952380952381 0  0.5225 0.002380952380952381 0  0.5270833333333333 0.002380952380952381 0  0.5316666666666667 0.002380952380952381 0  0.53625 0.002380952380952381 0  0.5408333333333333 0.002380952380952381 0  0.5454166666666667 0.002380952380952381 0  0.55 0.002380952380952381 0  0.5545833333333333 0.002380952380952381 0  0.5591666666666667 0.002380952380952381 0  0.5637500000000001 0.002380952380952381 0  0.5683333333333334 0.002380952380952381 0  0.5729166666666666 0.002380952380952381 0  0.5775 0.002380952380952381 0  0.5820833333333334 0.002380952380952381 0  0.5866666666666667 0.002380952380952381 0  0.5912499999999999 0.002380952380952381 0  0.5958333333333334 0.002380952380952381 0  0.6004166666666667 0.002380952380952381 0  0.605 0.002380952380952381 0  0.6095833333333334 0.002380952380952381 0  0.6141666666666667 0.002380952380952381 0  0.61875 0.002380952380952381 0  0.6233333333333333 0.002380952380952381 0  0.6279166666666667 0.002380952380952381 0  0.6325000000000001 0.002380952380952381 0  0.6370833333333333 0.002380952380952381 0  0.6416666666666666 0.002380952380952381 0  0.64625 0.002380952380952381 0  0.6508333333333334 0.002380952380952381 0  0.6554166666666666 0.002380952380952381 0  0.6599999999999999 0.002380952380952381 0  0.6645833333333334 0.002380952380952381 0  0.6691666666666667 0.002380952380952381 0  0.67375 0.002380952380952381 0  0.6783333333333333 0.002380952380952381 0  0.6829166666666667 0.002380952380952381 0  0.6875 0.002380952380952381 0  0.6920833333333333 0.002380952380952381 0  0.6966666666666667 0.002380952380952381 0  0.70125 0.002380952380952381 0  0.7058333333333333 0.002380952380952381 0  0.7104166666666667 0.002380952380952381 0  0.7150000000000001 0.002380952380952381 
[...]
<PointData  Scalars="pressure"> 
<DataArray  type="Float64"  Name="pressure"  format="ascii">2.3144655057582218e+04  2.3114959786946423e+04  2.3087749464944573e+04  2.3059159765778390e+04  2.3029285139269221e+04  2.2993907617281267e+04  2.2961210021892177e+04  2.2928485130252946e+04  2.2892906970483778e+04  2.2863679274305628e+04  2.2839882379499657e+04  2.2813545975499674e+04  2.2786455257180060e+04  2.2759024588586362e+04  2.2731406543678739e+04  2.2703648336911821e+04  2.2675716912780721e+04  2.2647524331539982e+04  2.2619040571819780e+04  2.2590451623535635e+04  2.2562074704475013e+04  2.2534090601503805e+04  2.2507697533674713e+04  1.6376116530928488e+04  1.6348856616615560e+04  1.6324847833491576e+04  1.6300861129689520e+04  1.6276896620978829e+04  1.6252725049166283e+04  1.6228077678326112e+04  1.6202862037010205e+04  1.6177179496661778e+04  1.6151199999235252e+04  1.6125000038036953e+04  1.6098501656593529e+04  1.6071573836460164e+04  1.6044192746387525e+04  1.6016498824721475e+04  1.5988839937842567e+04  1.5962740028119835e+04  1.5929407982727347e+04  1.5897479090282601e+04  1.5865281647656999e+04  1.5832685750612734e+04  1.5799433757409051e+04  1.5765888541210412e+04  1.5732039754319461e+04  1.5698168385655996e+04  1.5664554172647118e+04  1.5631264395539170e+04  1.5598868206608391e+04  1.5567149350901165e+04  1.5536851934099155e+04  1.5507323875673514e+04  1.5477455738628274e+04  1.5445800431401925e+04  1.5410744620364118e+04  1.5374838539626851e+04  1.5343123282628403e+04  1.5307992891102089e+04  1.5274996982639072e+04  1.5238062534851200e+04  1.5196833016760023e+04  1.5152959571993513e+04  1.5107294386144498e+04  1.5060906293202364e+04  1.5015789986298134e+04  1.4972481199817377e+04  1.4928980199178364e+04  1.4873296041883923e+04  1.4767188406963258e+04  1.4621423122004629e+04  1.4469613520608324e+04  1.4319953290102905e+04  1.4171305222206607e+04  1.4022802461829091e+04  1.3874081813192090e+04  1.3725024918813304e+04  1.3575626984758741e+04  1.3425927094418268e+04  1.3275976200277211e+04  1.3125823416617370e+04  1.2975511081286357e+04  1.2825073760295603e+04  1.2674538865234825e+04  1.2523927795274238e+04  1.2373257126530343e+04  1.2222539663845680e+04  1.2071785304140158e+04  1.1921001717453226e+04  1.1770194872242257e+04  1.1619369435536881e+04  1.1468529075907938e+04  1.1317676692440571e+04  1.1166814587992663e+04  1.1015944600733339e+04  1.0865068204489486e+04  1.0714186585740923e+04  1.0563300703074232e+04  1.0412411333394264e+04  1.0261519108078575e+04  1.0110624541442341e+04  9.9597280532826626e+03  9.8088299868314043e+03  9.6579306231225510e+03  9.5070301925409640e+03  9.3561288841415226e+03  9.2052268531945811e+03  9.0543242273131236e+03  8.9034211114407135e+03  8.7525175919205976e+03  8.6016137398212522e+03  8.4507096136584023e+03  8.2998052616258228e+03  8.1489007234255123e+03  7.9979960317706573e+03  7.8470912136206553e+03  7.6961862911967228e+03  7.5452812828174501e+03  7.3943762035866212e+03  7.2434710659596112e+03  7.0925658802099506e+03  6.9416606548138707e+03  6.7907553967673557e+03  6.6398501118476515e+03  6.4889448048291397e+03  6.3380394796616547e+03  6.1871341396179851e+03  6.0362287874160284e+03  5.8853234253202463e+03  5.7344180552261705e+03  5.5835126787311910e+03  5.4326072971941448e+03  5.2817019117861091e+03  5.1307965235342053e+03  4.9798911333600563e+03  4.8289857421144116e+03  4.6780803506092716e+03  4.5271749596487280e+03  4.3762695700597797e+03  4.2253641827243937e+03  4.0744587986142310e+03  3.9235534188295874e+03  3.7726480446444334e+03  3.6217426775598688e+03  3.4708373193689768e+03  3.3199319722369355e+03  3.1690266388015075e+03  3.0181213223011137e+03  2.8672160267403483e+03  2.7163107571070500e+03  2.5654055196615282e+03  2.4145003223284439e+03  2.2635951752376623e+03  2.1126900914859675e+03  1.9617850882343407e+03  1.8108801883288850e+03  1.6599754227630081e+03  1.5090708345426704e+03  1.3581664849396357e+03  1.2072624643397855e+03  1.0563589094065624e+03  9.0545605259558999e+02  7.5455417524171878e+02  6.0365472267133771e+02  4.5275236525085705e+02  3.0190539307407676e+02  1.5056425479466446e+02  4.2690987408500067e+00  2.3143002601678905e+04  2.3114643194470620e+04  2.3088619652577869e+04  2.3057390722301396e+04  1.6774837118992025e+04  1.6749990580628830e+04  1.6726414163646306e+04  1.6702821188594509e+04  1.6677924076781324e+04  2.2864362907806677e+04  2.2840075370284223e+04  2.2813613159434855e+04  2.2786489096997153e+04  2.2759043191712040e+04  2.2731420372163509e+04  2.2703665886336752e+04  2.2675745960226312e+04  2.2647560704327138e+04  2.2619055272264803e+04  2.2590424922783914e+04  2.2562029555212073e+04  2.2534041173590213e+04  2.2507010553023272e+04  2.2478384389019040e+04  2.2442966597311904e+04  2.2409962992849829e+04  2.2377041320584696e+04  2.2344172623040387e+04  2.2311027134220705e+04  2.2277203093674536e+04  2.2242574176153365e+04  2.2207295428352645e+04  2.2171621803346585e+04  2.2135666796244619e+04  2.2099309593164238e+04  2.2062348439655969e+04  2.2024742782134170e+04  2.1986699434286184e+04  2.1948590503885793e+04  2.1912525237066377e+04  1.5929214819394369e+04  2.1823363049369680e+04  1.5865352766493867e+04  2.1734407741514657e+04  1.5799487434466957e+04  2.1642689325657284e+04  1.5732039763384497e+04  2.1549692320875816e+04  1.5664485531197537e+04  2.1457810570558933e+04  1.5598730347564737e+04  2.1369759383106124e+04  1.5536687702031648e+04  2.1287706921643774e+04  1.5477830087247416e+04  2.1203513486061111e+04  1.5410926711924581e+04  2.1105669055175043e+04  1.5341842378732719e+04  1.5307851415404901e+04  1.5275546583577467e+04  1.5238571982167077e+04  1.5197099969044521e+04  1.5153166581781137e+04  1.5107410920589395e+04  1.5060744741066414e+04  1.5015530614691519e+04  1.4972436166213396e+04  1.4929199514820059e+04  1.4880540813532834e+04  1.4771876012214538e+04  1.4621339397523019e+04  1.4469309673327652e+04  1.4319862374500330e+04  1.4171296235350836e+04  1.4022830328415603e+04  1.3874120228781590e+04  1.3725062788146543e+04  1.3575660089239640e+04  1.3425954431643699e+04  1.3275998107326583e+04  1.3125840693708362e+04  1.2975524600624203e+04  1.2825084309801139e+04  1.2674547100915564e+04  1.2523934240630406e+04  1.2373262189643927e+04  1.2222543658804836e+04  1.2071788471226238e+04  1.1921004240176371e+04  1.1770196890938081e+04  1.1619371057883105e+04  1.1468530384911806e+04  1.1317677752443800e+04  1.1166815449164083e+04  1.1015945302426431e+04  1.0865068777755732e+04  1.0714187055218079e+04  1.0563301088412276e+04  1.0412411650338872e+04  1.0261519369299913e+04  1.0110624757173608e+04  9.9597282318155430e+03  9.8088301349031990e+03  9.6579307462206652e+03  9.5070302951438953e+03  9.3561289699106710e+03  9.2052269251276575e+03  9.0543242878674700e+03  8.9034211626327415e+03  8.7525176354063206e+03  8.6016137769616598e+03  8.4507096455726733e+03  8.2998052892347205e+03  8.1489007474868740e+03  7.9979960529084065e+03  7.8470912323486000e+03  7.6961863079380701e+03  7.5452812979208293e+03  7.3943762173392433e+03  7.2434710785980869e+03  7.0925658919291973e+03  6.9416606657744169e+03  6.7907554071013728e+03  6.6398501216639079e+03  6.4889448142170586e+03  6.3380394886946715e+03  6.1871341483562810e+03  6.0362287959087862e+03  5.8853234336074865e+03  5.7344180633402393e+03  5.5835126866979735e+03  5.4326073050340228e+03  5.2817019195147195e+03  5.1307965311630160e+03  4.9798911408967806e+03  4.8289857495632987e+03  4.6780803579712283e+03  4.5271749669213350e+03  4.3762695772371526e+03  4.2253641897969073e+03  4.0744588055680583e+03  3.9235534256460578e+03  3.7726480512991197e+03  3.6217426840213761e+03  3.4708373255973065e+03  3.3199319781813078e+03  3.1690266443974201e+03  3.0181213274663537e+03  2.8672160313695035e+03  2.7163107610638576e+03  2.5654055227680046e+03  2.4145003243491637e+03  2.2635951758565111e+03  2.1126900902709754e+03  1.9617850845830581e+03  1.8108801813809598e+03  1.6599754112564708e+03  1.5090708165620099e+03  1.3581664575121702e+03  1.2072624223001649e+03  1.0563588462854036e+03  9.0545593663541035e+02  7.5455411101067091e+02  6.0365354179165706e+02  4.5275922182135577e+02  3.0184260133941507e+02  1.5112639409451813e+02  -2.3169241582601466e-01  2.3141847267369812e+04  2.3113780556889273e+04  2.3087155374522532e+04  2.3054435214521767e+04  2.3025414643117325e+04  2.2992915488993516e+04  2.2961224837484653e+04  2.2929531719452869e+04  2.2897048074452021e+04  2.2866670141336908e+04  2.2840613914417587e+04  2.2813844521741219e+04  2.2786601024930798e+04  2.2759105767474044e+04  2.2731466246071064e+04  2.2703724327764518e+04  2.2675846814543052e+04  2.2647695616791414e+04  2.2619115315941570e+04  2.2590317372420697e+04  2.2561886239778560e+04  2.2533805073596621e+04  2.2505721874414558e+04  2.2475870046207208e+04  2.2442931161576591e+04  2.2409946819523455e+04  2.2377018188717764e+04  2.2344224939811716e+04  2.2311170170657853e+04  2.2277369195852767e+04  2.2242704514681023e+04  2.2207367663601755e+04  2.2171668702410239e+04  2.2135742613370308e+04  2.2099433366492871e+04  2.2062482308419065e+04  2.2024833981170766e+04  2.1986710626870907e+04  2.1948495367665699e+04  2.1910810356908169e+04  2.1866916406023582e+04  2.1823419133951102e+04  2.1779365394238132e+04  2.1734494037174805e+04  2.1688904656932635e+04  2.1642713207289315e+04  2.1596210906134536e+04  2.1549622734523280e+04  2.1503341230199996e+04  2.1457636365696108e+04  2.1412938426115044e+04  2.1369494417100606e+04  2.1327679084438802e+04  2.1287611546669690e+04  2.1248138140694937e+04  2.1204122819814471e+04  2.1155835164869346e+04  2.1105209270766074e+04  2.1057418743957976e+04  2.1013691397390485e+04  2.0971056826096141e+04  2.0919966872436911e+04  2.0862354333537736e+04  2.0802002508461243e+04  2.0739053777250796e+04  2.0674193765063497e+04  2.0611856378469438e+04  2.0553507271869679e+04  2.0494705951201198e+04  2.0435545801381100e+04  1.4788127808010751e+04  1.4619495447830846e+04  1.4468457370031158e+04  1.4319552262751999e+04  1.4171281475471256e+04  1.4022932909753859e+04  1.3874255945476991e+04  1.3725194790932390e+04  1.3575774804524774e+04  1.3426048860682708e+04  1.3276073639361244e+04  1.3125900195202312e+04  1.2975571127561767e+04  1.2825120599116946e+04  1.2674575421430367e+04  1.2523956398441702e+04  1.2373279590610407e+04  1.2222557384049647e+04  1.2071799347432059e+04  1.1921012898569357e+04  1.1770203814215640e+04  1.1619376616441958e+04  1.1468534864330901e+04  1.1317681374131193e+04  1.1166818385797937e+04  1.1015947689492576e+04  1.0865070722184109e+04  1.0714188641871999e+04  1.0563302384989745e+04  1.0412412711097562e+04  1.0261520237907458e+04  1.0110625468904182e+04  9.9597288152547644e+03  9.8088306132806738e+03  9.6579311384584125e+03  9.5070306166862811e+03  9.3561292333851452e+03  9.2052271408734196e+03  9.0543244643603539e+03  8.9034213068280642e+03  8.7525177530164583e+03  8.6016138726814443e+03  8.4507097232628803e+03  8.2998053520717476e+03  8.1489007980850856e+03  7.9979960934202436e+03  7.8470912645466469e+03  7.6961863332823477e+03  7.5452813176140771e+03  7.3943762323723276e+03  7.2434710897873101e+03  7.0925658999470033e+03  6.9416606711746463e+03  6.7907554103400116e+03  6.6398501231161872e+03  6.4889448141914872e+03  6.3380394874445810e+03  6.1871341460892900e+03  6.0362287927945654e+03  5.8853234297840772e+03  5.7344180589192201e+03  5.5835126817686041e+03  5.4326072996665780e+03  5.2817019137630941e+03  5.1307965250667094e+03  4.9798911344823482e+03  4.8289857428452906e+03  4.6780803509526741e+03  4.5271749595937508e+03  4.3762695695800821e+03  4.2253641817769467e+03  4.0744587971372880e+03  3.9235534167397805e+03  3.7726480418327451e+03  3.6217426738862082e+03  3.4708373146549134e+03  3.3199319662559856e+03  3.1690266312660615e+03  3.0181213128446984e+03  2.8672160148932389e+03  2.7163107422622870e+03  2.5654055010266898e+03  2.4145002988559495e+03  2.2635951455218487e+03  2.1126900536075505e+03  1.9617850395191751e+03  1.8108801249628700e+03  1.6599753391575646e+03  1.5090707222479439e+03  1.3581663307278870e+03  1.2072622464744477e+03  1.0563585916352602e+03  9.0545556044345767e+02  7.5455344146142500e+02  6.0365294613245590e+02  4.5275398460871918e+02  3.0186470227816625e+02  1.5100001889116527e+02  3.0504525933782816e-02  2.3140727252820692e+04  2.3112663975161366e+04  2.3084372914179326e+04  2.3054017060669124e+04  2.3023858979082281e+04  2.2992571812938892e+04  2.2961225873926993e+04  2.2929907091097113e+04  2.2898615878744436e+04  2.2868882315137089e+04  2.2841394198145557e+04  2.2814191755067353e+04  2.2786777253813092e+04  2.2759204745106552e+04  2.2731536894953751e+04  2.2703814397586422e+04  2.2676017921902112e+04  2.2647961557822426e+04  2.2619266713592100e+04  2.2590062112091444e+04  2.2561655147037811e+04  2.2533508663921606e+04  2.2504812806904985e+04  2.2474576864318049e+04  2.2442616138985253e+04  2.2409998374866420e+04  2.2376905824224239e+04  2.2344351674348101e+04  2.2311533130466192e+04  2.2277781456322140e+04  2.2243022603882899e+04  2.2207528624078222e+04  2.2171762254370984e+04  2.2135916462910580e+04  2.2099740757756103e+04  2.2062818726929607e+04  2.2025054967875261e+04  2.1986766389847817e+04  2.1948232077362354e+04  2.1909055175906964e+04  2.1866886532379915e+04  2.1823664263198665e+04  2.1779655844986708e+04  2.1734774880016703e+04  2.1689111866737694e+04  2.1642847095379071e+04  2.1596227233344165e+04  2.1549534947552933e+04  2.1503113491752280e+04  2.1457295857333600e+04  2.1412462271884066e+04  2.1368924455817021e+04  2.1327039837501401e+04  2.1287060022252168e+04  2.1250330093562166e+04  2.1205510358711836e+04  2.1156653175068877e+04  2.1104632556752342e+04  2.1052392054087533e+04  2.1013609115197167e+04  2.0974128645084245e+04  2.0921835107459683e+04  2.0863014834599166e+04  2.0802801281987351e+04  2.0739812246492758e+04  2.0673395691104040e+04  2.0610420165629825e+04  2.0553719616606664e+04  2.0496107777477519e+04  2.0436075343160112e+04  1.4784894475032455e+04  1.4616417343227678e+04  1.4467040419783951e+04  1.4319115508733974e+04  1.4171303991870645e+04  1.4023131557279747e+04  1.3874498313296679e+04  1.3725424556043894e+04  1.3575972118867683e+04  1.3426210250622213e+04  1.3276202263972111e+04  1.3126001309210336e+04  1.2975650101610552e+04  1.2825182161125151e+04  1.2674623456175746e+04  1.2523993982866989e+04  1.2373309112647603e+04  1.2222580676818845e+04  1.2071817811271983e+04  1.1921027602259803e+04  1.1770215574988426e+04  1.1619386061506724e+04  1.1468542477435552e+04  1.1317687530489415e+04  1.1166823378188417e+04  1.1015951747753315e+04  1.0865074027804441e+04  1.0714191338959085e+04  1.0563304588554811e+04  1.0412414513356634e+04  1.0261521713105443e+04  1.0110626677034899e+04  9.9597298049501442e+03  9.8088314240703676e+03  9.6579318025486809e+03  9.5070311603689788e+03  9.3561296781599958e+03  9.2052275043463706e+03  9.0543247609659102e+03  8.9034215484123251e+03  8.7525179493093092e+03  8.6016140316800829e+03  8.4507098515441048e+03  8.2998054550467750e+03  8.1489008802078079e+03  7.9979961583577324e+03  7.8470913153188721e+03  7.6961863723768356e+03  7.5452813470800347e+03  7.3943762538979818e+03  7.2434711047635046e+03  7.0925659095194787e+03  6.9416606762870515e+03  6.7907554117692944e+03  6.6398501215016795e+03  6.4889448100588579e+03  6.3380394812254708e+03  6.1871341381374596e+03  6.0362287833991004e+03  5.8853234191801885e+03  5.7344180472970129e+03  5.5835126692801687e+03  5.4326072864316466e+03  5.2817018998734839e+03  5.1307965105897183e+03  4.9798911194632165e+03  4.8289857273088037e+03  4.6780803349039852e+03  4.5271749430184072e+03  4.3762695524432438e+03  4.2253641640217202e+03  4.0744587786820862e+03  3.9235533974744744e+03  3.7726480216133846e+03  3.6217426525278929e+03  3.4708372919222625e+03  3.3199319418504056e+03  3.1690266048086501e+03  3.0181212838530746e+03  2.8672159827497776e+03  2.7163107061699138e+03  2.5654054599463680e+03  2.4145002514165676e+03  2.2635950898876663e+03  2.1126899872786744e+03  1.9617849590236306e+03  1.8108800253678889e+03  1.6599752132697649e+03  1.5090705592559157e+03  1.3581661138224970e+03  1.2072619483616666e+03  1.0563581666309631e+03  9.0545492244012030e+02  7.5455245905710399e+02  6.0365113976684086e+02  4.5275160945066574e+02  3.0185741368929956e+02  1.5095887918693560e+02  -2.4393847359065754e-03  2.3139602025963064e+04  2.3111377102189137e+04  2.3082693295856414e+04  2.3052983186484948e+04  2.3022840719919401e+04  2.2992127871665190e+04  2.2961222616312374e+04  2.2930357660871727e+04  2.2899800225894061e+04  2.2870337200631879e+04  2.2842219331700249e+04  2.2814600514284208e+04  2.2786995870802413e+04  2.2759328585698295e+04  2.2731620580900744e+04  2.2703917231854695e+04  2.2676248122183555e+04  2.2648403696654761e+04  2.2619675702789449e+04  2.2589430001157849e+04  2.2561386412613556e+04  2.2533333469863064e+04  2.2504347514047986e+04  2.2473852022892337e+04  2.2442361876262654e+04  2.2410309927606137e+04  2.2376480426053186e+04  2.2344597303918610e+04  2.2312168901428609e+04  2.2278478932839058e+04  2.2243551318569676e+04  2.2207748539947101e+04  2.2171855585018344e+04  2.2136170527689734e+04  2.2100265525290917e+04  2.2063406847527262e+04  2.2025407607045865e+04  2.1986892429058098e+04  2.1947964802763912e+04  2.1908369529474672e+04  2.1866975174201056e+04  2.1824132293941955e+04  2.1780191152330801e+04  2.1735261763212377e+04  2.1689487138930657e+04  2.1643071110728350e+04  2.1596266228899844e+04  2.1549369053904062e+04  2.1502722066431910e+04  2.1456685428731307e+04  2.1411632023533544e+04  2.1367907174953321e+04  2.1325873094364972e+04  2.1285934158310440e+04  2.1250158507948843e+04  2.1210882363180950e+04  1.5415016812630513e+04  1.5371721332676005e+04  2.1048100559814662e+04  2.1013054111317888e+04  2.0979608917948750e+04  1.5242924248135185e+04  1.5200239315292360e+04  1.5156885592420480e+04  1.5110842825709300e+04  1.5061236285837103e+04  2.0609639617993958e+04  2.0554143026300590e+04  2.0497427932950399e+04  1.4877045871420347e+04  1.4758902887144261e+04  1.4612269721035340e+04  1.4465251155081480e+04  1.4318696588019877e+04  1.4171434603615882e+04  1.4023459136501886e+04  1.3874861012927853e+04  1.3725756715901565e+04  1.3576252646545550e+04  1.3426437623402666e+04  1.3276382531677142e+04  1.3126142597736602e+04  1.2975760276039802e+04  1.2825267982694755e+04  1.2674690410850786e+04  1.2524046384267676e+04  1.2373350293924177e+04  1.2222613190154116e+04  1.2071843603583897e+04  1.1921048158590067e+04  1.1770232030784478e+04  1.1619399288468447e+04  1.1468553148249441e+04  1.1317696167284261e+04  1.1166830388700046e+04  1.1015957452323517e+04  1.0865078679590382e+04  1.0714195139127147e+04  1.0563307697768303e+04  1.0412417060518026e+04  1.0261523802056008e+04  1.0110628391726128e+04  9.9597312134642907e+03  9.8088325817678797e+03  9.6579327545483029e+03  9.5070319435139227e+03  9.3561303225851607e+03  9.2052280347338183e+03  9.0543251975549119e+03  8.9034219078150982e+03  8.7525182451719847e+03  8.6016142752197793e+03  8.4507100519863761e+03  8.2998056199826406e+03  8.1489010158856790e+03  7.9979962699224025e+03  7.8470914070074377e+03  7.6961864476794572e+03  7.5452814088719570e+03  7.3943763045480136e+03  7.2434711462232108e+03  7.0925659433965338e+03  6.9416607039055771e+03  6.7907554342195008e+03  6.6398501396807014e+03  6.4889448247043129e+03  6.3380394929430549e+03  6.1871341474235787e+03  6.0362287906594165e+03  5.8853234247447563e+03  5.7344180514325990e+03  5.5835126722001924e+03  5.4326072883041224e+03  5.2817019008272655e+03  5.1307965107192485e+03  4.9798911188319889e+03  4.8289857259516293e+03  4.6780803328281336e+03  4.5271749402036612e+03  4.3762695488408126e+03  4.2253641595519330e+03  4.0744587732306904e+03  3.9235533908873067e+03  3.7726480136890150e+03  3.6217426430077257e+03  3.4708372804773207e+03  3.3199319280637078e+03  3.1690265881515897e+03  3.0181212636534992e+03  2.8672159581483397e+03  2.7163106760595456e+03  2.5654054228869886e+03  2.4145002055127015e+03  2.2635950