<?xml version="1.0"?>
<VTKFile type="UnstructuredGrid"  version="0.1"  >
<UnstructuredGrid>
<Piece  NumberOfPoints="21400" NumberOfCells="42336">
<Points>
<DataArray  type="Float64"  NumberOfComponents="3"  format="ascii">0 0 0  0.004583333333333333 0 0  0.009166666666666667 0 0  0.01375 0 0  0.01833333333333333 0 0  0.02291666666666667 0 0  0.0275 0 0  0.03208333333333334 0 0  0.03666666666666667 0 0  0.04125 0 0  0.04583333333333334 0 0  0.05041666666666667 0 0  0.055 0 0  0.05958333333333334 0 0  0.06416666666666668 0 0  0.06875000000000001 0 0  0.07333333333333333 0 0  0.07791666666666666 0 0  0.08249999999999999 0 0  0.08708333333333333 0 0  0.09166666666666667 0 0  0.09625000000000002 0 0  0.1008333333333333 0 0  0.1054166666666667 0 0  0.11 0 0  0.1145833333333333 0 0  0.1191666666666667 0 0  0.12375 0 0  0.1283333333333334 0 0  0.1329166666666667 0 0  0.1375 0 0  0.1420833333333333 0 0  0.1466666666666667 0 0  0.15125 0 0  0.1558333333333333 0 0  0.1604166666666667 0 0  0.165 0 0  0.1695833333333333 0 0  0.1741666666666667 0 0  0.17875 0 0  0.1833333333333333 0 0  0.1879166666666667 0 0  0.1925 0 0  0.1970833333333333 0 0  0.2016666666666667 0 0  0.20625 0 0  0.2108333333333333 0 0  0.2154166666666666 0 0  0.22 0 0  0.2245833333333334 0 0  0.2291666666666667 0 0  0.23375 0 0  0.2383333333333333 0 0  0.2429166666666667 0 0  0.2475 0 0  0.2520833333333333 0 0  0.2566666666666667 0 0  0.26125 0 0  0.2658333333333334 0 0  0.2704166666666666 0 0  0.275 0 0  0.2795833333333334 0 0  0.2841666666666667 0 0  0.28875 0 0  0.2933333333333333 0 0  0.2979166666666667 0 0  0.3025 0 0  0.3070833333333334 0 0  0.3116666666666666 0 0  0.31625 0 0  0.3208333333333333 0 0  0.3254166666666667 0 0  0.33 0 0  0.3345833333333333 0 0  0.3391666666666667 0 0  0.34375 0 0  0.3483333333333333 0 0  0.3529166666666667 0 0  0.3575 0 0  0.3620833333333333 0 0  0.3666666666666667 0 0  0.37125 0 0  0.3758333333333334 0 0  0.3804166666666667 0 0  0.3850000000000001 0 0  0.3895833333333333 0 0  0.3941666666666667 0 0  0.39875 0 0  0.4033333333333334 0 0  0.4079166666666666 0 0  0.4125 0 0  0.4170833333333334 0 0  0.4216666666666667 0 0  0.42625 0 0  0.4308333333333333 0 0  0.4354166666666667 0 0  0.44 0 0  0.4445833333333333 0 0  0.4491666666666667 0 0  0.45375 0 0  0.4583333333333333 0 0  0.4629166666666666 0 0  0.4675 0 0  0.4720833333333334 0 0  0.4766666666666667 0 0  0.4812500000000001 0 0  0.4858333333333333 0 0  0.4904166666666667 0 0  0.495 0 0  0.4995833333333334 0 0  0.5041666666666667 0 0  0.50875 0 0  0.5133333333333334 0 0  0.5179166666666667 0 0  0.5225 0 0  0.5270833333333333 0 0  0.5316666666666667 0 0  0.53625 0 0  0.5408333333333333 0 0  0.5454166666666667 0 0  0.55 0 0  0.5545833333333333 0 0  0.5591666666666667 0 0  0.5637500000000001 0 0  0.5683333333333334 0 0  0.5729166666666666 0 0  0.5775 0 0  0.5820833333333334 0 0  0.5866666666666667 0 0  0.5912499999999999 0 0  0.5958333333333334 0 0  0.6004166666666667 0 0  0.605 0 0  0.6095833333333334 0 0  0.6141666666666667 0 0  0.61875 0 0  0.6233333333333333 0 0  0.6279166666666667 0 0  0.6325000000000001 0 0  0.6370833333333333 0 0  0.6416666666666666 0 0  0.64625 0 0  0.6508333333333334 0 0  0.6554166666666666 0 0  0.6599999999999999 0 0  0.6645833333333334 0 0  0.6691666666666667 0 0  0.67375 0 0  0.6783333333333333 0 0  0.6829166666666667 0 0  0.6875 0 0  0.6920833333333333 0 0  0.6966666666666667 0 0  0.70125 0 0  0.7058333333333333 0 0  0.7104166666666667 0 0  0.7150000000000001 0 0  0.7195833333333334 0 0  0.7241666666666666 0 0  0.72875 0 0  0.7333333333333334 0 0  0.7379166666666667 0 0  0.7425 0 0  0.7470833333333333 0 0  0.7516666666666667 0 0  0.75625 0 0  0.7608333333333334 0 0  0.7654166666666666 0 0  0.7700000000000001 0 0  0 0.002380952380952381 0  0.004583333333333333 0.002380952380952381 0  0.009166666666666667 0.002380952380952381 0  0.01375 0.002380952380952381 0  0.01833333333333333 0.002380952380952381 0  0.02291666666666667 0.002380952380952381 0  0.0275 0.002380952380952381 0  0.03208333333333334 0.002380952380952381 0  0.03666666666666667 0.002380952380952381 0  0.04125 0.002380952380952381 0  0.04583333333333334 0.002380952380952381 0  0.05041666666666667 0.002380952380952381 0  0.055 0.002380952380952381 0  0.05958333333333334 0.002380952380952381 0  0.06416666666666668 0.002380952380952381 0  0.06875000000000001 0.002380952380952381 0  0.07333333333333333 0.002380952380952381 0  0.07791666666666666 0.002380952380952381 0  0.08249999999999999 0.002380952380952381 0  0.08708333333333333 0.002380952380952381 0  0.09166666666666667 0.002380952380952381 0  0.09625000000000002 0.002380952380952381 0  0.1008333333333333 0.002380952380952381 0  0.1054166666666667 0.002380952380952381 0  0.11 0.002380952380952381 0  0.1145833333333333 0.002380952380952381 0  0.1191666666666667 0.002380952380952381 0  0.12375 0.002380952380952381 0  0.1283333333333334 0.002380952380952381 0  0.1329166666666667 0.002380952380952381 0  0.1375 0.002380952380952381 0  0.1420833333333333 0.002380952380952381 0  0.1466666666666667 0.002380952380952381 0  0.15125 0.002380952380952381 0  0.1558333333333333 0.002380952380952381 0  0.1604166666666667 0.002380952380952381 0  0.165 0.002380952380952381 0  0.1695833333333333 0.002380952380952381 0  0.1741666666666667 0.002380952380952381 0  0.17875 0.002380952380952381 0  0.1833333333333333 0.002380952380952381 0  0.1879166666666667 0.002380952380952381 0  0.1925 0.002380952380952381 0  0.1970833333333333 0.002380952380952381 0  0.2016666666666667 0.002380952380952381 0  0.20625 0.002380952380952381 0  0.2108333333333333 0.002380952380952381 0  0.2154166666666666 0.002380952380952381 0  0.22 0.002380952380952381 0  0.2245833333333334 0.002380952380952381 0  0.2291666666666667 0.002380952380952381 0  0.23375 0.002380952380952381 0  0.2383333333333333 0.002380952380952381 0  0.2429166666666667 0.002380952380952381 0  0.2475 0.002380952380952381 0  0.2520833333333333 0.002380952380952381 0  0.2566666666666667 0.002380952380952381 0  0.26125 0.002380952380952381 0  0.2658333333333334 0.002380952380952381 0  0.2704166666666666 0.002380952380952381 0  0.275 0.002380952380952381 0  0.2795833333333334 0.002380952380952381 0  0.2841666666666667 0.002380952380952381 0  0.28875 0.002380952380952381 0  0.2933333333333333 0.002380952380952381 0  0.2979166666666667 0.002380952380952381 0  0.3025 0.002380952380952381 0  0.3070833333333334 0.002380952380952381 0  0.3116666666666666 0.002380952380952381 0  0.31625 0.002380952380952381 0  0.3208333333333333 0.002380952380952381 0  0.3254166666666667 0.002380952380952381 0  0.33 0.002380952380952381 0  0.3345833333333333 0.002380952380952381 0  0.3391666666666667 0.002380952380952381 0  0.34375 0.002380952380952381 0  0.3483333333333333 0.002380952380952381 0  0.3529166666666667 0.002380952380952381 0  0.3575 0.002380952380952381 0  0.3620833333333333 0.002380952380952381 0  0.3666666666666667 0.002380952380952381 0  0.37125 0.002380952380952381 0  0.3758333333333334 0.002380952380952381 0  0.3804166666666667 0.002380952380952381 0  0.3850000000000001 0.002380952380952381 0  0.3895833333333333 0.002380952380952381 0  0.3941666666666667 0.002380952380952381 0  0.39875 0.002380952380952381 0  0.4033333333333334 0.002380952380952381 0  0.4079166666666666 0.002380952380952381 0  0.4125 0.002380952380952381 0  0.4170833333333334 0.002380952380952381 0  0.4216666666666667 0.002380952380952381 0  0.42625 0.002380952380952381 0  0.4308333333333333 0.002380952380952381 0  0.4354166666666667 0.002380952380952381 0  0.44 0.002380952380952381 0  0.4445833333333333 0.002380952380952381 0  0.4491666666666667 0.002380952380952381 0  0.45375 0.002380952380952381 0  0.4583333333333333 0.002380952380952381 0  0.4629166666666666 0.002380952380952381 0  0.4675 0.002380952380952381 0  0.4720833333333334 0.002380952380952381 0  0.4766666666666667 0.002380952380952381 0  0.4812500000000001 0.002380952380952381 0  0.4858333333333333 0.002380952380952381 0  0.4904166666666667 0.002380952380952381 0  0.495 0.002380952380952381 0  0.4995833333333334 0.002380952380952381 0  0.5041666666666667 0.002380952380952381 0  0.50875 0.002380952380952381 0  0.5133333333333334 0.002380952380952381 0  0.5179166666666667 0.002380952380952381 0  0.5225 0.002380952380952381 0  0.5270833333333333 0.002380952380952381 0  0.5316666666666667 0.002380952380952381 0  0.53625 0.002380952380952381 0  0.5408333333333333 0.002380952380952381 0  0.5454166666666667 0.002380952380952381 0  0.55 0.002380952380952381 0  0.5545833333333333 0.002380952380952381 0  0.5591666666666667 0.002380952380952381 0  0.5637500000000001 0.002380952380952381 0  0.5683333333333334 0.002380952380952381 0  0.5729166666666666 0.002380952380952381 0  0.5775 0.002380952380952381 0  0.5820833333333334 0.002380952380952381 0  0.5866666666666667 0.002380952380952381 0  0.5912499999999999 0.002380952380952381 0  0.5958333333333334 0.002380952380952381 0  0.6004166666666667 0.002380952380952381 0  0.605 0.002380952380952381 0  0.6095833333333334 0.002380952380952381 0  0.6141666666666667 0.002380952380952381 0  0.61875 0.002380952380952381 0  0.6233333333333333 0.002380952380952381 0  0.6279166666666667 0.002380952380952381 0  0.6325000000000001 0.002380952380952381 0  0.6370833333333333 0.002380952380952381 0  0.6416666666666666 0.002380952380952381 0  0.64625 0.002380952380952381 0  0.6508333333333334 0.002380952380952381 0  0.6554166666666666 0.002380952380952381 0  0.6599999999999999 0.002380952380952381 0  0.6645833333333334 0.002380952380952381 0  0.6691666666666667 0.002380952380952381 0  0.67375 0.002380952380952381 0  0.6783333333333333 0.002380952380952381 0  0.6829166666666667 0.002380952380952381 0  0.6875 0.002380952380952381 0  0.6920833333333333 0.002380952380952381 0  0.6966666666666667 0.002380952380952381 0  0.70125 0.002380952380952381 0  0.7058333333333333 0.002380952380952381 0  0.7104166666666667 0.002380952380952381 0  0.7150000000000001 0.002380952380952381 
[...]
<PointData  Scalars="pressure"> 
<DataArray  type="Float64"  Name="pressure"  format="ascii">2.0060611303452002e+04  2.0030916231133604e+04  2.0003706620012556e+04  1.9975118177630538e+04  1.9945245574039523e+04  1.9909871241823501e+04  1.9877177491359686e+04  1.9844457396423044e+04  1.9808885472770631e+04  1.9779663556839918e+04  1.9755871941071608e+04  1.9729541589981149e+04  1.9702456784863411e+04  1.9675030788766089e+04  1.9647414337939092e+04  1.9619651502305231e+04  1.9591703842939773e+04  1.9563474034913550e+04  1.9534914526374389e+04  1.9506175504167888e+04  1.9477487652568838e+04  1.9448843959370286e+04  1.9420092381106362e+04  1.9391175731166950e+04  1.9362166646658705e+04  1.9333264490376532e+04  1.9304793744004306e+04  1.9281373694823211e+04  1.4017591826763968e+04  1.3992973713900865e+04  1.3968523914022728e+04  1.3944037660196598e+04  1.3919614223617040e+04  1.3895354795242951e+04  1.3871239509540594e+04  1.3847172641196245e+04  1.3823091494709002e+04  1.3799025779060792e+04  1.3775182011925790e+04  1.3752801260646240e+04  1.3724323901498723e+04  1.3697060766658195e+04  1.3669439099289402e+04  1.3641299293769849e+04  1.3612060293132809e+04  1.3582136757912367e+04  1.3550956167833177e+04  1.3519080984033129e+04  1.3486078833824617e+04  1.3452546697681168e+04  1.3418349303367970e+04  1.3383974660209513e+04  1.3349698835706869e+04  1.3315658131606044e+04  1.3281122627951770e+04  1.3245467925175468e+04  1.3208360270510862e+04  1.3170285451788857e+04  1.3134455596509126e+04  1.3094446740928415e+04  1.3061039565428417e+04  1.3030644523252729e+04  1.3002262611015749e+04  1.2974771276107391e+04  1.2946270524680940e+04  1.2916759178830767e+04  1.2886620436808553e+04  1.2855331356622955e+04  1.2823186104479224e+04  1.2791104687157367e+04  1.2759585367096561e+04  1.2728685981691060e+04  1.2696117877444234e+04  1.2666557008325313e+04  1.2639114731258756e+04  1.2608716696008070e+04  1.2577626037913002e+04  1.2545968186798993e+04  1.2513588392266678e+04  1.2480337084202822e+04  1.2446061218688837e+04  1.2410709690202470e+04  1.2374770811847218e+04  1.2338978907329396e+04  1.2302763563797225e+04  1.2265918726454520e+04  1.2229864695907734e+04  1.2166319088370004e+04  1.2034929642203366e+04  1.1885288784243903e+04  1.1737901892414733e+04  1.1592131749773464e+04  1.1446297449913942e+04  1.1299831957465753e+04  1.1152603926679525e+04  1.1004660359151203e+04  1.0856106787397794e+04  1.0707056692428720e+04  1.0557612058291172e+04  1.0407857759530230e+04  1.0257861729198690e+04  1.0107677219898012e+04  9.9573455325747072e+03  9.8068985549432418e+03  9.6563608936371802e+03  9.5057515756152225e+03  9.3550853680009259e+03  9.2043737858912446e+03  9.0536258556311732e+03  8.9028486910519969e+03  8.7520479286231457e+03  8.6012280569506565e+03  8.4503926673765964e+03  8.2995446456333611e+03  8.1486863193377876e+03  7.9978195722521023e+03  7.8469459333911709e+03  7.6960666469660673e+03  7.5451827276247350e+03  7.3942950043307183e+03  7.2434041553989546e+03  7.0925107366017692e+03  6.9416152038091304e+03  6.7907179312922217e+03  6.6398192265673824e+03  6.4889193424669274e+03  6.3380184869775330e+03  6.1871168312748396e+03  6.0362145162959596e+03  5.8853116581235618e+03  5.7344083524018624e+03  5.5835046779624390e+03  5.4326006998039820e+03  5.2816964715433714e+03  5.1307920374335845e+03  4.9798874340264792e+03  4.8289826915444928e+03  4.6780778350136943e+03  4.5271728852013948e+03  4.3762678593939700e+03  4.2253627720444174e+03  4.0744576353142879e+03  3.9235524595306902e+03  3.7726472535758880e+03  3.6217420252248212e+03  3.4708367814441203e+03  3.3199315286652945e+03  3.1690262730443947e+03  3.0181210207213521e+03  2.8672157780937137e+03  2.7163105521229800e+03  2.5654053506974328e+03  2.4145001830847341e+03  2.2635950605228572e+03  2.1126899970231252e+03  1.9617850105015918e+03  1.8108801244281178e+03  1.6599753703118154e+03  1.5090707915855223e+03  1.3581664498749719e+03  1.2072624358602995e+03  1.0563588864504625e+03  9.0545603430701021e+02  7.5455416093880774e+02  6.0365471182082717e+02  4.5275235744825613e+02  3.0190538802775518e+02  1.5056425232422885e+02  4.2690986717963035e+00  2.0058958794470567e+04  2.0030599589889171e+04  2.0004576718393455e+04  1.9973349169325425e+04  1.4528226902971073e+04  1.4503382623181364e+04  1.4479808973230272e+04  1.4456219449645894e+04  1.4431326688351701e+04  1.9780346989254114e+04  1.9756064858561298e+04  1.9729608782019550e+04  1.9702490743570866e+04  1.9675049699525567e+04  1.9647428797727287e+04  1.9619670235682996e+04  1.9591735026554765e+04  1.9563514262663513e+04  1.9534936615364873e+04  1.9506163545111289e+04  1.9477480051478837e+04  1.9448858305171711e+04  1.9420113009702844e+04  1.9391186242880383e+04  1.9362164335822970e+04  1.9333193399329521e+04  1.9304809041367378e+04  1.9278302496403907e+04  1.9242670872802693e+04  1.9208882207255607e+04  1.9175335172757466e+04  1.9141703943703451e+04  1.9108162870190856e+04  1.9074863993083265e+04  1.9041772975462820e+04  1.9008743560013241e+04  1.8975681939515463e+04  1.8942634201796653e+04  1.8909789585012735e+04  1.8878869294159536e+04  1.3724156427688726e+04  1.8802730495069616e+04  1.3669535251276586e+04  1.8726200376753419e+04  1.3612192260007274e+04  1.8644994495571624e+04  1.3551089893231436e+04  1.8558428079566871e+04  1.3486179647155381e+04  1.8467066047786178e+04  1.3418380361548017e+04  1.8372885890623147e+04  1.3349640315692312e+04  1.8279116685526089e+04  1.3281374209300173e+04  1.8182809638907795e+04  1.3208561699834454e+04  1.8079585676498635e+04  1.3133144257409611e+04  1.3093796001306397e+04  1.3060754455860879e+04  1.3030415613414878e+04  1.3002128062689291e+04  1.2974941037305460e+04  1.2946385679956044e+04  1.2916799041847942e+04  1.2886775404888302e+04  1.2855440251973969e+04  1.2823167064382567e+04  1.2791038660407572e+04  1.2759499190851595e+04  1.2728700257261024e+04  1.2697175496961263e+04  1.7388804115509069e+04  1.7350644939643185e+04  1.7308694698788411e+04  1.7266033217444088e+04  1.7222592920396808e+04  1.7178160372110742e+04  1.7132533702717934e+04  1.7085499344150488e+04  1.7036914243145766e+04  1.6987437175505271e+04  1.6938443310421615e+04  1.6888706343626258e+04  1.6838008571292125e+04  1.6788207210253066e+04  1.2174172963997595e+04  1.2036057905193677e+04  1.1884698954733096e+04  1.1737773759505440e+04  1.1592153156079094e+04  1.1446373110719560e+04  1.1299917728225204e+04  1.1152682752153356e+04  1.1004726912664846e+04  1.0856160682583197e+04  1.0707099394805344e+04  1.0557645520586402e+04  1.0407883859226265e+04  1.0257882072355500e+04  1.0107693105164804e+04  9.9573579787769177e+03  9.8069083483044924e+03  9.6563686358408886e+03  9.5057577256818404e+03  9.3550902762428177e+03  9.2043777203913996e+03  9.0536290224348177e+03  8.9028512493691323e+03  8.7520500022001434e+03  8.6012297425570305e+03  8.4503940411438125e+03  8.2995457678037565e+03  8.1486872378391308e+03  7.9978203254040563e+03  7.8469465519681235e+03  7.6960671557805681e+03  7.5451831467517659e+03  7.3942953500610174e+03  7.2434044409864682e+03  7.0925109728534790e+03  6.9416153995532441e+03  6.7907180937518024e+03  6.6398193616599856e+03  6.4889194550458578e+03  6.3380185810268440e+03  6.1871169100674360e+03  6.0362145825221160e+03  5.8853117139956494e+03  5.7344083997398411e+03  5.5835047182637545e+03  5.4326007343007759e+03  5.2816965012493647e+03  5.1307920631824973e+03  4.9798874565035576e+03  4.8289827113123247e+03  4.6780778525333762e+03  4.5271729008498287e+03  4.3762678734779611e+03  4.2253627848121178e+03  4.0744576469643994e+03  3.9235524702197581e+03  3.7726472634239576e+03  3.6217420343196140e+03  3.4708367898438573e+03  3.3199315364001773e+03  3.1690262801166964e+03  3.0181210271039145e+03  2.8672157837265190e+03  2.7163105569071899e+03  2.5654053544859162e+03  2.4145001856674940e+03  2.2635950616047367e+03  2.1126899961894187e+03  1.9617850071640651e+03  1.8108801177381172e+03  1.6599753590169871e+03  1.5090707737782504e+03  1.3581664225890377e+03  1.2072623939356301e+03  1.0563588234219615e+03  9.0545591842064823e+02  7.5455409676548970e+02  6.0365353098495461e+02  4.5275921405014543e+02  3.0184259631439619e+02  1.5112639162489060e+02  -2.3169241089649148e-01  2.0057803277541334e+04  2.0029736778080009e+04  2.0003112222685140e+04  1.9970393526347776e+04  1.9941374912007068e+04  1.9908878695621861e+04  1.9877191763617604e+04  1.9845503255084757e+04  1.9813025289967503e+04  1.9782653534418852e+04  1.9756603173623844e+04  1.9729840166139322e+04  1.9702603073299426e+04  1.9675113321686964e+04  1.9647476824991991e+04  1.9619732719902946e+04  1.9591843162833829e+04  1.9563662261710928e+04  1.9535021322802990e+04  1.9506106527937667e+04  1.9477449364809359e+04  1.9448913714254359e+04  1.9420189228602871e+04  1.9391223327910855e+04  1.9362152390458945e+04  1.9333048958096526e+04  1.9304167540591254e+04  1.9275073181311182e+04  1.9242336576590453e+04  1.9208884456039999e+04  1.9175361544455205e+04  1.9141684326834082e+04  1.9108108782353465e+04  1.9074819644652609e+04  1.9041762983553734e+04  1.9008753967610537e+04  1.8975684061667056e+04  1.8942594446309529e+04  1.8909674382454388e+04  1.8877381873852577e+04  1.8839902914649905e+04  1.8802800580352614e+04  1.8765094060482814e+04  1.8726364544127246e+04  1.8686438707351088e+04  1.8645180965928354e+04  1.8602565443077325e+04  1.8558591045417066e+04  1.8513397376005418e+04  1.8467150436653228e+04  1.8420190427991820e+04  1.8372842277015785e+04  1.8325623385215167e+04  1.8279062502045555e+04  1.8232764288686056e+04  1.8182847387588074e+04  1.8132581499686814e+04  1.8079745036273958e+04  1.8025386808360759e+04  1.7973110549188303e+04  1.7928618270804498e+04  1.7886989948949566e+04  1.7848248598803781e+04  1.7811956182677390e+04  1.7772414505905042e+04  1.7731550457687543e+04  1.7690783098525324e+04  1.7647589693385053e+04  1.7602936249944643e+04  1.7558769191705534e+04  1.7515411499185298e+04  1.7473235212137100e+04  1.7431790135176510e+04  1.7391591498173359e+04  1.7350953413528798e+04  1.7308808356132460e+04  1.7266185155419647e+04  1.7222787707328538e+04  1.7178392957320371e+04  1.7132808599114906e+04  1.7085822412177411e+04  1.7037154691750100e+04  1.6987182969046164e+04  1.6938673262219654e+04  1.6888911085994598e+04  1.6838120475659318e+04  1.6787083851601557e+04  1.6721591692375405e+04  1.2035464932430503e+04  1.1882962160919535e+04  1.1737378390645978e+04  1.1592253628116036e+04  1.1446645881001714e+04  1.1300218794659404e+04  1.1152956846728774e+04  1.1004957298010208e+04  1.0856346800618719e+04  1.0707246659924855e+04  1.0557760831109990e+04  1.0407973760559382e+04  1.0257952130386589e+04  1.0107747806191563e+04  9.9574008360685784e+03  9.8069420702183743e+03  9.6563952938592192e+03  9.5057788997154330e+03  9.3551071719768570e+03  9.2043912605828718e+03  9.0536399164352570e+03  8.9028600454254774e+03  8.7520571265580911e+03  8.6012355286382299e+03  8.4503987513378961e+03  8.2995496097964315e+03  8.1486903769050905e+03  7.9978228937170798e+03  7.8469486556994652e+03  7.6960688805496120e+03  7.5451845618417856e+03  7.3942965117031499e+03  7.2434053949353802e+03  7.0925117564204720e+03  6.9416160432205852e+03  6.7907186224613979e+03  6.6398197958469673e+03  6.4889198114710716e+03  6.3380188734497924e+03  6.1871171497919740e+03  6.0362147788401153e+03  5.8853118745485617e+03  5.7344085308138647e+03  5.5835048250311829e+03  5.4326008210175823e+03  5.2816965714170947e+03  5.1307921196809812e+03  4.9798875016997408e+03  4.8289827471494928e+03  4.6780778806042135e+03  4.5271729224561759e+03  4.3762678896795223e+03  4.2253627964659672e+03  4.0744576547567690e+03  3.9235524746912401e+03  3.7726472649890225e+03  3.6217420332810539e+03  3.4708367864025240e+03  3.3199315306601229e+03  3.1690262720854807e+03  3.0181210166874666e+03  2.8672157707173387e+03  2.7163105409638620e+03  2.5654053351005796e+03  2.4145001621158385e+03  2.2635950328696063e+03  2.1126899608431381e+03  1.9617849631840486e+03  1.8108800622110268e+03  1.6599752876494333e+03  1.5090706800631567e+03  1.3581662962936784e+03  1.2072622185070181e+03  1.0563585690919081e+03  9.0545554248370672e+02  7.5455342741568450e+02  6.0365293547705153e+02  4.5275397694638593e+02  3.0186469732309126e+02  1.5100001645816735e+02  3.0504526223890653e-02  2.0056682950056897e+04  2.0028619881949238e+04  2.0000329549498991e+04  1.9969975085294216e+04  1.9939819042674702e+04  1.9908534727583974e+04  1.9877192452767969e+04  1.9845878206327779e+04  1.9814592434577346e+04  1.9784864889996225e+04  1.9757383065473827e+04  1.9730187402554518e+04  1.9702779919599267e+04  1.9675213969283293e+04  1.9647550956468138e+04  1.9619829365457375e+04  1.9592026107453690e+04  1.9563949216934263e+04  1.9535211416219554e+04  1.9505929292436787e+04  1.9477385032656075e+04  1.9449033553455265e+04  1.9420340727619274e+04  1.9391281999240975e+04  1.9362150556452598e+04  1.9332889160038478e+04  1.9303227961206627e+04  1.9273451365810884e+04  1.9241835791537167e+04  1.9208943123594185e+04  1.9175442564055353e+04  1.9141632473335227e+04  1.9107965110926478e+04  1.9074706260204541e+04  1.9041744485336054e+04  1.9008788487798949e+04  1.8975693784816438e+04  1.8942529289003178e+04  1.8909369744741081e+04  1.8875825708454329e+04  1.8839862213018780e+04  1.8803051883503831e+04  1.8765461899210717e+04  1.8726810343429919e+04  1.8686917166555519e+04  1.8645686056535105e+04  1.8603052941789654e+04  1.8559049683614157e+04  1.8513771303521949e+04  1.8467429383554536e+04  1.8420318986606511e+04  1.8372817661244037e+04  1.8325403144734086e+04  1.8278605297530932e+04  1.8234871299072271e+04  1.8182467517332978e+04  1.8133561071740809e+04  1.8080829724017269e+04  1.8020812162470622e+04  1.7970909940754987e+04  1.7927955620174918e+04  1.7886135408871851e+04  1.7847059174344653e+04  1.7813577219601433e+04  1.7772616553386713e+04  1.7731341622142492e+04  1.7691754395848457e+04  1.7647959942456378e+04  1.7602721252494284e+04  1.7558563400142339e+04  1.7515061665530731e+04  1.7472875123374677e+04  1.7433273216704045e+04  1.7396746474435073e+04  1.7351209311112059e+04  1.7309060562221453e+04  1.7266524875547733e+04  1.7223228614855609e+04  1.7178913235339693e+04  1.7133429097004093e+04  1.7086519175505204e+04  1.7038001289328236e+04  1.6985887308455658e+04  1.6939535939904854e+04  1.6889500380879417e+04  1.6837755850708138e+04  1.6788601314765911e+04  1.2167047995633473e+04  1.2026972408214662e+04  1.1880712611656769e+04  1.1736869670957176e+04  1.1592517577259081e+04  1.1447150697297164e+04  1.1300749224379231e+04  1.1153430834065926e+04  1.1005352126415062e+04  1.0856664211386478e+04  1.0707497120140704e+04  1.0557956645575758e+04  1.0408126307867275e+04  1.0258070971147481e+04  1.0107840596782840e+04  9.9574735498221526e+03  9.8069993018082405e+03  9.6564405531538760e+03  9.5058148620411976e+03  9.3551358785918819e+03  9.2044142739067265e+03  9.0536584379108572e+03  8.9028750040268751e+03  8.7520692448961381e+03  8.6012453722608570e+03  8.4504067655471790e+03  8.2995561472385543e+03  8.1486957183492868e+03  7.9978272638004491e+03  7.8469522349384260e+03  7.6960718145690553e+03  7.5451869685180191e+03  7.3942984867316691e+03  7.2434070162005137e+03  7.0925130874465867e+03  6.9416171359139180e+03  6.7907195192998252e+03  6.6398205316371113e+03  6.4889204147640503e+03  6.3380193676860463e+03  6.1871175542298524e+03  6.0362151093110833e+03  5.8853121440727000e+03  5.7344087501024896e+03  5.5835050028978776e+03  5.4326009647147102e+03  5.2816966869115622e+03  5.1307922118803444e+03  4.9798875746376061e+03  4.8289828041375204e+03  4.6780779243566267e+03  4.5271729551915751e+03  4.3762679132038838e+03  4.2253628122399796e+03  4.0744576639500010e+03  3.9235524782251177e+03  3.7726472635701170e+03  3.6217420274257393e+03  3.4708367764536474e+03  3.3199315167958648e+03  3.1690262543200538e+03  3.0181209948626238e+03  2.8672157444827003e+03  2.7163105097426846e+03  2.5654052980354595e+03  2.4145001179853798e+03  2.2635949799614423e+03  2.1126898967590164e+03  1.9617848845356898e+03  1.8108799641345340e+03  1.6599751630080405e+03  1.5090705180919244e+03  1.3581660802215333e+03  1.2072619210709968e+03  1.0563581446331189e+03  9.0545490491496400e+02  7.5455244535124928e+02  6.0365112936929279e+02  4.5275160197376334e+02  3.0185740885420881e+02  1.5095887681343373e+02  -2.4393838907879515e-03  2.0055557273037943e+04  2.0027332566865400e+04  1.9998649516889218e+04  1.9968940777499483e+04  1.9938800343918425e+04  1.9908090281126544e+04  1.9877188612180427e+04  1.9846328093385138e+04  1.9815775947748654e+04  1.9786318918224515e+04  1.9758207642710058e+04  1.9730596086483620e+04  1.9702999256019488e+04  1.9675339906695110e+04  1.9647639122078224e+04  1.9619940756960357e+04  1.9592271717185955e+04  1.9564418401049072e+04  1.9535667744826791e+04  1.9505390922888899e+04  1.9477308238073623e+04  1.9449261191778056e+04  1.9420611967044999e+04  1.9391342571284044e+04  1.9362146891459211e+04  1.9332943827296302e+04  1.9302101759881090e+04  1.9272543899892607e+04  1.9241629150423883e+04  1.9209152720343125e+04  1.9175622573017725e+04  1.9141531139780614e+04  1.9107692623224477e+04  1.9074504246969969e+04  1.9041732458976763e+04  1.9008873469692684e+04  1.8975716633718250e+04  1.8942472472240901e+04  1.8909017558115342e+04  1.8875144271049037e+04  1.8839905162883999e+04  1.8803520740917142e+04  1.8766123797800679e+04  1.8727585186572251e+04  1.8687764362783066e+04  1.8646562770367251e+04  1.8603919425277916e+04  1.8559846739906989e+04  1.8514440889372643e+04  1.8467910190278395e+04  1.8420558464167025e+04  1.8372769779407834e+04  1.8325005357032329e+04  1.8277846781751312e+04  1.8233497436184785e+04  1.8181024617152143e+04  1.8136362095613094e+04  1.3175137087130430e+04  1.3126813161726313e+04  1.7967777768070697e+04  1.7927180672473529e+04  1.7884532660296787e+04  1.7844533736084704e+04  1.7812402940269363e+04  1.2947251549758119e+04  1.2916183661145071e+04  1.7696644873861427e+04  1.2856183362339239e+04  1.2821534097683831e+04  1.2789764801853218e+04  1.2756771693136594e+04  1.2726842863592370e+04  1.7439640693960715e+04  1.2676836619166401e+04  1.2641404321776252e+04  1.2609967460497728e+04  1.2579795577448753e+04  1.2548726126364647e+04  1.2516818720023715e+04  1.2484204415952643e+04  1.2450556669106703e+04  1.2415734234128429e+04  1.2376280048759314e+04  1.2342331343645223e+04  1.2305230754437114e+04  1.2265916509278813e+04  1.2223497038709827e+04  1.2139448350806828e+04  1.2016272994766512e+04  1.1878115453747081e+04  1.1736572435222437e+04  1.1593066916683194e+04  1.1447940227887078e+04  1.1301528305199667e+04  1.1154109622739004e+04  1.1005910411619689e+04  1.0857109902807049e+04  1.0707847414928878e+04  1.0558229916237378e+04  1.0408338967518070e+04  1.0258236580786537e+04  1.0107969915849841e+04  9.9575749270101824e+03  9.8070791383587821e+03  9.6565037301816392e+03  9.5058650968486963e+03  9.3551760067933028e+03  9.2044464663683684e+03  9.0536843647650876e+03  8.9028959575157678e+03  8.7520862309847525e+03  8.6012591789114795e+03  8.4504180136983578e+03  8.2995653290178416e+03  8.1487032258688787e+03  7.9978334109933821e+03  7.8469572742323198e+03  7.6960759497102899e+03  7.5451903645071225e+03  7.3943012775755906e+03  7.2434093110024887e+03  7.0925149752204015e+03  6.9416186894117445e+03  6.7907207980716339e+03  6.6398215844871966e+03  6.4889212817315047e+03  6.3380200816470169e+03  6.1871181421977499e+03  6.0362155934943685e+03  5.8853125427373325e+03  5.7344090782763415e+03  5.5835052729469153e+03  5.4326011868148398e+03  5.2816968694353291e+03  5.1307923617140405e+03  4.9798876974413424e+03  4.8289829045584420e+03  4.6780780062035992e+03  4.5271730215780244e+03  4.3762679666642734e+03  4.2253628548242941e+03  4.0744576972997902e+03  3.9235525036338472e+03  3.7726472820299387e+03  3.6217420396622001e+03  3.4708367829492354e+03  3.3199315178026827e+03  3.1690262498611855e+03  3.0181209847207965e+03  2.8672157281736149e+03  2.7163104864684806e+03  2.5654052666109583e+03  2.4145000767252095e+03  2.2635949