<?xml version="1.0"?>
<VTKFile type="UnstructuredGrid"  version="0.1"  >
<UnstructuredGrid>
<Piece  NumberOfPoints="21400" NumberOfCells="42336">
<Points>
<DataArray  type="Float64"  NumberOfComponents="3"  format="ascii">0 0 0  0.004583333333333333 0 0  0.009166666666666667 0 0  0.01375 0 0  0.01833333333333333 0 0  0.02291666666666667 0 0  0.0275 0 0  0.03208333333333334 0 0  0.03666666666666667 0 0  0.04125 0 0  0.04583333333333334 0 0  0.05041666666666667 0 0  0.055 0 0  0.05958333333333334 0 0  0.06416666666666668 0 0  0.06875000000000001 0 0  0.07333333333333333 0 0  0.07791666666666666 0 0  0.08249999999999999 0 0  0.08708333333333333 0 0  0.09166666666666667 0 0  0.09625000000000002 0 0  0.1008333333333333 0 0  0.1054166666666667 0 0  0.11 0 0  0.1145833333333333 0 0  0.1191666666666667 0 0  0.12375 0 0  0.1283333333333334 0 0  0.1329166666666667 0 0  0.1375 0 0  0.1420833333333333 0 0  0.1466666666666667 0 0  0.15125 0 0  0.1558333333333333 0 0  0.1604166666666667 0 0  0.165 0 0  0.1695833333333333 0 0  0.1741666666666667 0 0  0.17875 0 0  0.1833333333333333 0 0  0.1879166666666667 0 0  0.1925 0 0  0.1970833333333333 0 0  0.2016666666666667 0 0  0.20625 0 0  0.2108333333333333 0 0  0.2154166666666666 0 0  0.22 0 0  0.2245833333333334 0 0  0.2291666666666667 0 0  0.23375 0 0  0.2383333333333333 0 0  0.2429166666666667 0 0  0.2475 0 0  0.2520833333333333 0 0  0.2566666666666667 0 0  0.26125 0 0  0.2658333333333334 0 0  0.2704166666666666 0 0  0.275 0 0  0.2795833333333334 0 0  0.2841666666666667 0 0  0.28875 0 0  0.2933333333333333 0 0  0.2979166666666667 0 0  0.3025 0 0  0.3070833333333334 0 0  0.3116666666666666 0 0  0.31625 0 0  0.3208333333333333 0 0  0.3254166666666667 0 0  0.33 0 0  0.3345833333333333 0 0  0.3391666666666667 0 0  0.34375 0 0  0.3483333333333333 0 0  0.3529166666666667 0 0  0.3575 0 0  0.3620833333333333 0 0  0.3666666666666667 0 0  0.37125 0 0  0.3758333333333334 0 0  0.3804166666666667 0 0  0.3850000000000001 0 0  0.3895833333333333 0 0  0.3941666666666667 0 0  0.39875 0 0  0.4033333333333334 0 0  0.4079166666666666 0 0  0.4125 0 0  0.4170833333333334 0 0  0.4216666666666667 0 0  0.42625 0 0  0.4308333333333333 0 0  0.4354166666666667 0 0  0.44 0 0  0.4445833333333333 0 0  0.4491666666666667 0 0  0.45375 0 0  0.4583333333333333 0 0  0.4629166666666666 0 0  0.4675 0 0  0.4720833333333334 0 0  0.4766666666666667 0 0  0.4812500000000001 0 0  0.4858333333333333 0 0  0.4904166666666667 0 0  0.495 0 0  0.4995833333333334 0 0  0.5041666666666667 0 0  0.50875 0 0  0.5133333333333334 0 0  0.5179166666666667 0 0  0.5225 0 0  0.5270833333333333 0 0  0.5316666666666667 0 0  0.53625 0 0  0.5408333333333333 0 0  0.5454166666666667 0 0  0.55 0 0  0.5545833333333333 0 0  0.5591666666666667 0 0  0.5637500000000001 0 0  0.5683333333333334 0 0  0.5729166666666666 0 0  0.5775 0 0  0.5820833333333334 0 0  0.5866666666666667 0 0  0.5912499999999999 0 0  0.5958333333333334 0 0  0.6004166666666667 0 0  0.605 0 0  0.6095833333333334 0 0  0.6141666666666667 0 0  0.61875 0 0  0.6233333333333333 0 0  0.6279166666666667 0 0  0.6325000000000001 0 0  0.6370833333333333 0 0  0.6416666666666666 0 0  0.64625 0 0  0.6508333333333334 0 0  0.6554166666666666 0 0  0.6599999999999999 0 0  0.6645833333333334 0 0  0.6691666666666667 0 0  0.67375 0 0  0.6783333333333333 0 0  0.6829166666666667 0 0  0.6875 0 0  0.6920833333333333 0 0  0.6966666666666667 0 0  0.70125 0 0  0.7058333333333333 0 0  0.7104166666666667 0 0  0.7150000000000001 0 0  0.7195833333333334 0 0  0.7241666666666666 0 0  0.72875 0 0  0.7333333333333334 0 0  0.7379166666666667 0 0  0.7425 0 0  0.7470833333333333 0 0  0.7516666666666667 0 0  0.75625 0 0  0.7608333333333334 0 0  0.7654166666666666 0 0  0.7700000000000001 0 0  0 0.002380952380952381 0  0.004583333333333333 0.002380952380952381 0  0.009166666666666667 0.002380952380952381 0  0.01375 0.002380952380952381 0  0.01833333333333333 0.002380952380952381 0  0.02291666666666667 0.002380952380952381 0  0.0275 0.002380952380952381 0  0.03208333333333334 0.002380952380952381 0  0.03666666666666667 0.002380952380952381 0  0.04125 0.002380952380952381 0  0.04583333333333334 0.002380952380952381 0  0.05041666666666667 0.002380952380952381 0  0.055 0.002380952380952381 0  0.05958333333333334 0.002380952380952381 0  0.06416666666666668 0.002380952380952381 0  0.06875000000000001 0.002380952380952381 0  0.07333333333333333 0.002380952380952381 0  0.07791666666666666 0.002380952380952381 0  0.08249999999999999 0.002380952380952381 0  0.08708333333333333 0.002380952380952381 0  0.09166666666666667 0.002380952380952381 0  0.09625000000000002 0.002380952380952381 0  0.1008333333333333 0.002380952380952381 0  0.1054166666666667 0.002380952380952381 0  0.11 0.002380952380952381 0  0.1145833333333333 0.002380952380952381 0  0.1191666666666667 0.002380952380952381 0  0.12375 0.002380952380952381 0  0.1283333333333334 0.002380952380952381 0  0.1329166666666667 0.002380952380952381 0  0.1375 0.002380952380952381 0  0.1420833333333333 0.002380952380952381 0  0.1466666666666667 0.002380952380952381 0  0.15125 0.002380952380952381 0  0.1558333333333333 0.002380952380952381 0  0.1604166666666667 0.002380952380952381 0  0.165 0.002380952380952381 0  0.1695833333333333 0.002380952380952381 0  0.1741666666666667 0.002380952380952381 0  0.17875 0.002380952380952381 0  0.1833333333333333 0.002380952380952381 0  0.1879166666666667 0.002380952380952381 0  0.1925 0.002380952380952381 0  0.1970833333333333 0.002380952380952381 0  0.2016666666666667 0.002380952380952381 0  0.20625 0.002380952380952381 0  0.2108333333333333 0.002380952380952381 0  0.2154166666666666 0.002380952380952381 0  0.22 0.002380952380952381 0  0.2245833333333334 0.002380952380952381 0  0.2291666666666667 0.002380952380952381 0  0.23375 0.002380952380952381 0  0.2383333333333333 0.002380952380952381 0  0.2429166666666667 0.002380952380952381 0  0.2475 0.002380952380952381 0  0.2520833333333333 0.002380952380952381 0  0.2566666666666667 0.002380952380952381 0  0.26125 0.002380952380952381 0  0.2658333333333334 0.002380952380952381 0  0.2704166666666666 0.002380952380952381 0  0.275 0.002380952380952381 0  0.2795833333333334 0.002380952380952381 0  0.2841666666666667 0.002380952380952381 0  0.28875 0.002380952380952381 0  0.2933333333333333 0.002380952380952381 0  0.2979166666666667 0.002380952380952381 0  0.3025 0.002380952380952381 0  0.3070833333333334 0.002380952380952381 0  0.3116666666666666 0.002380952380952381 0  0.31625 0.002380952380952381 0  0.3208333333333333 0.002380952380952381 0  0.3254166666666667 0.002380952380952381 0  0.33 0.002380952380952381 0  0.3345833333333333 0.002380952380952381 0  0.3391666666666667 0.002380952380952381 0  0.34375 0.002380952380952381 0  0.3483333333333333 0.002380952380952381 0  0.3529166666666667 0.002380952380952381 0  0.3575 0.002380952380952381 0  0.3620833333333333 0.002380952380952381 0  0.3666666666666667 0.002380952380952381 0  0.37125 0.002380952380952381 0  0.3758333333333334 0.002380952380952381 0  0.3804166666666667 0.002380952380952381 0  0.3850000000000001 0.002380952380952381 0  0.3895833333333333 0.002380952380952381 0  0.3941666666666667 0.002380952380952381 0  0.39875 0.002380952380952381 0  0.4033333333333334 0.002380952380952381 0  0.4079166666666666 0.002380952380952381 0  0.4125 0.002380952380952381 0  0.4170833333333334 0.002380952380952381 0  0.4216666666666667 0.002380952380952381 0  0.42625 0.002380952380952381 0  0.4308333333333333 0.002380952380952381 0  0.4354166666666667 0.002380952380952381 0  0.44 0.002380952380952381 0  0.4445833333333333 0.002380952380952381 0  0.4491666666666667 0.002380952380952381 0  0.45375 0.002380952380952381 0  0.4583333333333333 0.002380952380952381 0  0.4629166666666666 0.002380952380952381 0  0.4675 0.002380952380952381 0  0.4720833333333334 0.002380952380952381 0  0.4766666666666667 0.002380952380952381 0  0.4812500000000001 0.002380952380952381 0  0.4858333333333333 0.002380952380952381 0  0.4904166666666667 0.002380952380952381 0  0.495 0.002380952380952381 0  0.4995833333333334 0.002380952380952381 0  0.5041666666666667 0.002380952380952381 0  0.50875 0.002380952380952381 0  0.5133333333333334 0.002380952380952381 0  0.5179166666666667 0.002380952380952381 0  0.5225 0.002380952380952381 0  0.5270833333333333 0.002380952380952381 0  0.5316666666666667 0.002380952380952381 0  0.53625 0.002380952380952381 0  0.5408333333333333 0.002380952380952381 0  0.5454166666666667 0.002380952380952381 0  0.55 0.002380952380952381 0  0.5545833333333333 0.002380952380952381 0  0.5591666666666667 0.002380952380952381 0  0.5637500000000001 0.002380952380952381 0  0.5683333333333334 0.002380952380952381 0  0.5729166666666666 0.002380952380952381 0  0.5775 0.002380952380952381 0  0.5820833333333334 0.002380952380952381 0  0.5866666666666667 0.002380952380952381 0  0.5912499999999999 0.002380952380952381 0  0.5958333333333334 0.002380952380952381 0  0.6004166666666667 0.002380952380952381 0  0.605 0.002380952380952381 0  0.6095833333333334 0.002380952380952381 0  0.6141666666666667 0.002380952380952381 0  0.61875 0.002380952380952381 0  0.6233333333333333 0.002380952380952381 0  0.6279166666666667 0.002380952380952381 0  0.6325000000000001 0.002380952380952381 0  0.6370833333333333 0.002380952380952381 0  0.6416666666666666 0.002380952380952381 0  0.64625 0.002380952380952381 0  0.6508333333333334 0.002380952380952381 0  0.6554166666666666 0.002380952380952381 0  0.6599999999999999 0.002380952380952381 0  0.6645833333333334 0.002380952380952381 0  0.6691666666666667 0.002380952380952381 0  0.67375 0.002380952380952381 0  0.6783333333333333 0.002380952380952381 0  0.6829166666666667 0.002380952380952381 0  0.6875 0.002380952380952381 0  0.6920833333333333 0.002380952380952381 0  0.6966666666666667 0.002380952380952381 0  0.70125 0.002380952380952381 0  0.7058333333333333 0.002380952380952381 0  0.7104166666666667 0.002380952380952381 0  0.7150000000000001 0.002380952380952381 
[...]
<PointData  Scalars="pressure"> 
<DataArray  type="Float64"  Name="pressure"  format="ascii">1.7355421523851259e+04  1.7325726496230582e+04  1.7298517046614095e+04  1.7269928890390194e+04  1.7240056747816099e+04  1.7204683146691692e+04  1.7171990280346490e+04  1.7139271295367995e+04  1.7103700831977003e+04  1.7074480281042466e+04  1.7050689934994534e+04  1.7024361092318035e+04  1.6997277860975468e+04  1.6969853325861786e+04  1.6942237937636844e+04  1.6914475298003985e+04  1.6886526217027647e+04  1.6858292186767074e+04  1.6829723767860360e+04  1.6800967987428368e+04  1.6772250108212469e+04  1.6743553988293334e+04  1.6714712028922131e+04  1.6685637866506950e+04  1.6656345720503126e+04  1.6626869533008754e+04  1.6597298782791979e+04  1.6567752131930134e+04  1.6538184845844877e+04  1.6508592746936913e+04  1.6479206505653343e+04  1.6454886934826238e+04  1.1957690428370577e+04  1.1932914272910832e+04  1.1909020057492819e+04  1.1885617833084056e+04  1.1862559636965942e+04  1.1839849515481383e+04  1.1817673033995410e+04  1.1797156054618201e+04  1.1771526602797316e+04  1.1747298967953686e+04  1.1723255648432936e+04  1.1699017975693157e+04  1.1674230352867267e+04  1.1649034241039575e+04  1.1622957776515956e+04  1.1596307398743735e+04  1.1568506340993721e+04  1.1539997045699651e+04  1.1510147153129563e+04  1.1479522681825194e+04  1.1447543535606708e+04  1.1414770489898179e+04  1.1379425456646322e+04  1.1341870583652179e+04  1.1302268360874654e+04  1.1262408750788858e+04  1.1225714350045759e+04  1.1182968820676322e+04  1.1143678901643934e+04  1.1105364459079063e+04  1.1068382725097621e+04  1.1032445771405984e+04  1.0996696957982134e+04  1.0961494060301695e+04  1.0926594280557465e+04  1.0892629790556881e+04  1.0859349586502296e+04  1.0826360236620550e+04  1.0793568384857228e+04  1.0760814256568650e+04  1.0726755067670460e+04  1.0698186104116097e+04  1.0675276449665729e+04  1.0650777891259579e+04  1.0624371032111936e+04  1.0596516022695465e+04  1.0568068925313593e+04  1.0539387995155757e+04  1.0511161317553575e+04  1.0483623334550868e+04  1.0455966749538280e+04  1.0428483736763110e+04  1.0400336905455468e+04  1.0371748276342500e+04  1.0343150395799221e+04  1.0314339966617958e+04  1.0285084207805752e+04  1.0255400904849779e+04  1.0225295767576776e+04  1.0194717577307154e+04  1.0163602685565143e+04  1.0131866465625359e+04  1.0099399311013742e+04  1.0066070152384664e+04  1.0031731391888694e+04  9.9963322437833885e+03  9.9603590881082837e+03  9.9245439865165245e+03  9.8883134294229676e+03  9.8514587115105496e+03  9.8153985809364895e+03  9.7518475076771592e+03  9.6204505668556940e+03  9.4708038797256540e+03  9.3234136143478900e+03  9.1776417765765673e+03  9.0318067746266588e+03  8.8853411506376815e+03  8.7381133005950378e+03  8.5901700704412924e+03  8.4416169003437390e+03  8.2925672179820886e+03  8.1431229780274571e+03  7.9933690402226948e+03  7.8433733315415266e+03  7.6931891035841818e+03  7.5428576591140381e+03  7.3924108890937387e+03  7.2418734040000663e+03  7.0912642347399096e+03  6.9405981522163338e+03  6.7898866749974732e+03  6.6391388325328853e+03  6.4883617413816519e+03  6.3375610403812889e+03  6.1867412201775578e+03  6.0359058738614713e+03  5.8850578886628518e+03  5.7341995934827355e+03  5.5833328731903721e+03  5.4324592577636949e+03  5.2815799922634533e+03  5.1306960921019745e+03  4.9798083869480424e+03  4.8289175557875124e+03  4.6780241550535657e+03  4.5271286412913905e+03  4.3762313894871941e+03  4.2253327079396904e+03  4.0744328503616625e+03  3.9235320257537192e+03  3.7726304064805854e+03  3.6217281348937986e+03  3.4708253287773696e+03  3.3199220858404074e+03  3.1690184874395627e+03  3.0181146016826483e+03  2.8672104860402792e+03  2.7163061895750920e+03  2.5654017548869510e+03  2.4144972198683422e+03  2.2635926193683872e+03  2.1126879868801675e+03  1.9617833564011482e+03  1.8108787646836515e+03  1.6599742542167644e+03  1.5090698775210205e+03  1.3581657037569582e+03  1.2072618298679395e+03  1.0563583979883374e+03  9.0545564516228922e+02  7.5455385660195680e+02  6.0365448094408691e+02  4.5275219142480046e+02  3.0190528064865578e+02  1.5056419975785377e+02  4.2690971921781662e+00  1.7353769002997244e+04  1.7325409844117883e+04  1.7299387124690791e+04  1.7268159890297145e+04  1.2557595640047626e+04  1.2532751877562470e+04  1.2509178863610539e+04  1.2485590138316637e+04  1.2460698393342787e+04  1.7075163663448628e+04  1.7050882831017108e+04  1.7024428277388750e+04  1.6997311830820821e+04  1.6969872277608665e+04  1.6942252487595826e+04  1.6914494200673169e+04  1.6886557694085404e+04  1.6858332903161383e+04  1.6829746669838747e+04  1.6800957405323188e+04  1.6772244831355183e+04  1.6743572243330163e+04  1.6714739389886548e+04  1.6685661208901303e+04  1.6656366795110745e+04  1.6626881529884995e+04  1.6597291471399272e+04  1.6567753825135402e+04  1.6538199800101662e+04  1.6508547374965234e+04  1.6479248335435725e+04  1.6451678340057577e+04  1.6414861936000107e+04  1.6380841967465181e+04  1.6348083650814651e+04  1.6315973284841712e+04  1.6284318503570430e+04  1.6253132770417238e+04  1.6222586362232872e+04  1.6194246560958816e+04  1.1771316830571486e+04  1.6126153648654801e+04  1.1723288725812052e+04  1.6059893640992463e+04  1.1674308474200572e+04  1.5991297445690609e+04  1.1623068410077791e+04  1.5918933485398704e+04  1.1568643229257645e+04  1.5841645982667276e+04  1.1510297227177873e+04  1.5758630340967866e+04  1.1447688496107199e+04  1.5669800219617262e+04  1.1379900115808257e+04  1.5569693556885481e+04  1.1302314034786910e+04  1.5460439539685993e+04  1.1224577214410248e+04  1.1182738230694049e+04  1.1143610819999820e+04  1.1105199468900906e+04  1.1068243728900628e+04  1.1032478641076481e+04  1.0996591465575728e+04  1.0961507584279398e+04  1.0926452977686049e+04  1.0892558854121133e+04  1.0859326006095986e+04  1.0826335206244723e+04  1.0793566501779258e+04  1.0760836852239972e+04  1.0727438707447418e+04  1.4686220667780795e+04  1.4654617637415289e+04  1.4621141682816573e+04  1.4584804586882852e+04  1.4546447034640225e+04  1.4507382585335257e+04  1.4467913010513170e+04  1.4429106408775766e+04  1.4391480289271711e+04  1.4353383743645820e+04  1.4315844274513423e+04  1.4277139382331203e+04  1.4237827704393927e+04  1.4198611533913114e+04  1.4159093588085305e+04  1.4118923364022367e+04  1.4078174982980063e+04  1.4036855174822798e+04  1.3994885820853633e+04  1.3952182619832553e+04  1.3908629461747832e+04  1.3864075117534243e+04  1.3818341079549362e+04  1.3771220388914620e+04  1.3722570197211728e+04  1.3673046309375335e+04  1.3624021006719971e+04  1.3574263468409661e+04  1.3523552301200221e+04  1.3473742696854548e+04  9.7597015595125868e+03  9.6215785856733910e+03  9.4702137575584275e+03  9.3232853074065897e+03  9.1776630802916497e+03  9.0318823772644337e+03  8.8854268901521082e+03  8.7381921109812047e+03  8.5902366183880931e+03  8.4416707954001686e+03  8.2926099231679618e+03  8.1431564445559679e+03  7.9933951446760057e+03  7.8433936794615165e+03  7.6932049933380786e+03  7.5428701093894997e+03  7.3924206860629802e+03  7.2418811493451303e+03  7.0912703875072657e+03  6.9406030627578211e+03  6.7898906114406054e+03  6.6391420009675430e+03  6.4883643010598626e+03  6.3375631150874688e+03  6.1867429067147305e+03  6.0359072483899790e+03  5.8850590114494580e+03  5.7342005124754915e+03  5.5833336267254217e+03  5.4324598766284444e+03  5.2815805012803048e+03  5.1306965113528222e+03  4.9798087327277617e+03  4.8289178413515074e+03  4.6780243912075712e+03  4.5271288368595660e+03  4.3762315516855606e+03  4.2253328426754033e+03  4.0744329624737966e+03  3.9235321192075880e+03  3.7726304845249319e+03  3.6217282001881135e+03  3.4708253834950069e+03  3.3199221317519177e+03  3.1690185259797181e+03  3.0181146340037276e+03  2.8672105130535551e+03  2.7163062119817223e+03  2.5654017731987692e+03  2.4144972344181479e+03  2.2635926303080869e+03  2.1126879941631946e+03  1.9617833597422971e+03  1.8108787634835512e+03  1.6599742474279324e+03  1.5090698634039638e+03  1.3581656794831301e+03  1.2072617903896280e+03  1.0563583369316946e+03  9.0545553084684059e+02  7.5455379365715680e+02  6.0365330104055215e+02  4.5275904869445543e+02  3.0184248939033159e+02  1.5112633907554127e+02  -2.3169231299135762e-01  1.7352613444726387e+04  1.7324546992905369e+04  1.7297922579512113e+04  1.7265204216840295e+04  1.7236186049057556e+04  1.7203690504783157e+04  1.7172004426561420e+04  1.7140316981643846e+04  1.7107840337744834e+04  1.7077470035865026e+04  1.7051421074639158e+04  1.7024659633597927e+04  1.6997424194363903e+04  1.6969936035011338e+04  1.6942300818020940e+04  1.6914557258938039e+04  1.6886666829712925e+04  1.6858482566530351e+04  1.6829834139271286e+04  1.6800905076695653e+04  1.6772222077899500e+04  1.6743640943810944e+04  1.6714838495830092e+04  1.6685740318374053e+04  1.6656441284799588e+04  1.6626929958011617e+04  1.6597253320917582e+04  1.6567760374481801e+04  1.6538253451443543e+04  1.6508495968019550e+04  1.6478687625216338e+04  1.6448266440016934e+04  1.6414329326849973e+04  1.6380633071106904e+04  1.6347964472868764e+04  1.6315889597112135e+04  1.6284231706767205e+04  1.6253007751809806e+04  1.6222391366653672e+04  1.6192806443593652e+04  1.6159022707085454e+04  1.6126135609415505e+04  1.6093253186149208e+04  1.6059971338649822e+04  1.6026095237055268e+04  1.5991426255198507e+04  1.5955818989435878e+04  1.5919104974606214e+04  1.5881159185069200e+04  1.5841846998415333e+04  1.5801092429373168e+04  1.5758831709581065e+04  1.5715108436470509e+04  1.5670103881859175e+04  1.5622985609135289e+04  1.5569875192139340e+04  1.5515391596771582e+04  1.5460293881767433e+04  1.5405828119109310e+04  1.5350863966995978e+04  1.5297276845113114e+04  1.5244260845649847e+04  1.5193503817649012e+04  1.5145147936192719e+04  1.5095105119791906e+04  1.5047683182388091e+04  1.4998803851579092e+04  1.4952665518627877e+04  1.4907106950273896e+04  1.4861784184745931e+04  1.4816906060762336e+04  1.4771906077366661e+04  1.4727195617086549e+04  1.4687542238614084e+04  1.4654574748207788e+04  1.4621892294962758e+04  1.4585183443022584e+04  1.4546534612959451e+04  1.4507505687810777e+04  1.4467789127403628e+04  1.4428716160884618e+04  1.4391792674897544e+04  1.4353045520538039e+04  1.4316245084797401e+04  1.4277230965405419e+04  1.4237764457864787e+04  1.4198681740848753e+04  1.4159234516491677e+04  1.4119031564232731e+04  1.4078284204908035e+04  1.4036982788127785e+04  1.3995028056695854e+04  1.3952347771026913e+04  1.3908824463148267e+04  1.3864304497493302e+04  1.3818611639320405e+04  1.3771539168317988e+04  1.3722807108552670e+04  1.3672788973312574e+04  1.3624248875463754e+04  1.3574466851358753e+04  1.3523663242668636e+04  1.3472618504652071e+04  1.3407120219404689e+04  9.6209843804100583e+03  9.4684759770189248e+03  9.3228893419886645e+03  9.1777632010374073e+03  9.0321549475410393e+03  8.8857278484728868e+03  8.7384661527003227e+03  8.5904669835314762e+03  8.4418569119614895e+03  8.2927571969999954e+03  8.1432717687937366e+03  7.9934850616340109e+03  7.8434637532415836e+03  7.6932597092588594e+03  7.5429129802355392e+03  7.3924544200037635e+03  7.2419078178477821e+03  7.0912915705627020e+03  6.9406199661787196e+03  6.7899041581299061e+03  6.6391529004241611e+03  6.4883731016700885e+03  6.3375702432234457e+03  6.1867486959096086e+03  6.0359119611295864e+03  5.8850628555008989e+03  5.7342036531810181e+03  5.5833361963136713e+03  5.4324619813139025e+03  5.2815822267149151e+03  5.1306979268425193e+03  4.9798098945169586e+03  4.8289187951990079e+03  4.6780251744196339e+03  4.5271294799038615e+03  4.3762320794790785e+03  4.2253332756168693e+03  4.0744333172744405e+03  3.9235324095617534e+03  3.7726307216526156e+03  3.6217283932744522e+03  3.4708255400462654e+03  3.3199222578832487e+03  3.1690186266465562e+03  3.0181147131858593e+03  2.8672105738984301e+03  2.7163062569112340e+03  2.5654018039812381e+03  2.4144972522041930e+03  2.2635926356248146e+03  2.1126879868545680e+03  1.9617833388324702e+03  1.8108787269202717e+03  1.6599741916254875e+03  1.5090697824360345e+03  1.3581655635925435e+03  1.2072616234115242e+03  1.0563580894130910e+03  9.0545516033634613e+02  7.5455312855122736e+02  6.0365270875209046e+02  4.5275381390738141e+02  3.0186459188822334e+02  1.5099996468774941e+02  3.0504533203038482e-02  1.7351493046278905e+04  1.7323430025440928e+04  1.7295139858398052e+04  1.7264785710452132e+04  1.7234630132857961e+04  1.7203346469428103e+04  1.7172005034657552e+04  1.7140691832861423e+04  1.7109407322051338e+04  1.7079681183476478e+04  1.7052200845171039e+04  1.7025006816548317e+04  1.6997601086824860e+04  1.6970036895260640e+04  1.6942375439770803e+04  1.6914654845170113e+04  1.6886851422643558e+04  1.6858772263377323e+04  1.6830028733346648e+04  1.6800735513121825e+04  1.6772170797819137e+04  1.6743782508467877e+04  1.6715026755531479e+04  1.6685865383283315e+04  1.6656570305551220e+04  1.6627054848697131e+04  1.6597120987572631e+04  1.6567775178806940e+04  1.6538394591134111e+04  1.6508481922230687e+04  1.6477978570634914e+04  1.6446449480922154e+04  1.6413326670958682e+04  1.6380165333326921e+04  1.6347694015143001e+04  1.6315702474071075e+04  1.6284030519491756e+04  1.6252737672544376e+04  1.6221898472432131e+04  1.6191181290271086e+04  1.6158784091160962e+04  1.6126163800529430e+04  1.6093393826312395e+04  1.6060196366863902e+04  1.6026377774969042e+04  1.5991773989923919e+04  1.5956215777177935e+04  1.5919559476910035e+04  1.5881650356298132e+04  1.5842379555605674e+04  1.5801634864438112e+04  1.5759374151434315e+04  1.5715601530250180e+04  1.5670496928070675e+04  1.5626009172302658e+04  1.5569950560926934e+04  1.5515590887122724e+04  1.5460564919689132e+04  1.5401848598081564e+04  1.5351064879020427e+04  1.5297071874821635e+04  1.5243606057503535e+04  1.5192300009506165e+04  1.5146705160279667e+04  1.5093119306666385e+04  1.5049207048034837e+04  1.4997380444586854e+04  1.4952690484989369e+04  1.4907051410060016e+04  1.4861580552162464e+04  1.4817043080182395e+04  1.4771711267796807e+04  1.4727818660831816e+04  1.4688729722424790e+04  1.4653889391046996e+04  1.4624373344208132e+04  1.4585920212485025e+04  1.4546600830961945e+04  1.4507910975789786e+04  1.4467655650986899e+04  1.4427018361868420e+04  1.4393618991961042e+04  1.4351173039675981e+04  1.4318014272386177e+04  1.4277243741486636e+04  1.4237533927402228e+04  1.4198907352660144e+04  1.4159533170795188e+04  1.4119274180588349e+04  1.4078522542401139e+04  1.4037272074979257e+04  1.3995344799063783e+04  1.3952717206942794e+04  1.3909262277204753e+04  1.3864817690076679e+04  1.3819222008143232e+04  1.3772226086322689e+04  1.3723646054979783e+04  1.3671485649274029e+04  1.3625106906937339e+04  1.3575053062469184e+04  1.3523296326941212e+04  1.3474134536248095e+04  9.7525737173924899e+03  9.6124891358021796e+03  9.4662248042395513e+03  9.3223796375328820e+03  9.1780265738214930e+03  9.0326594365983565e+03  8.8862581022951399e+03  8.7389400550750379e+03  8.5908617806411985e+03  8.4421743221272318e+03  8.2930076732166017e+03  8.1434676073140663e+03  7.9936376359615324e+03  7.8435826210542591e+03  7.6933525253357329e+03  7.5429857171265030e+03  7.3925116720902388e+03  7.2419530949896134e+03  7.0913275482332065e+03  6.9406486858596318e+03  6.7899271824931784e+03  6.6391714311659252e+03  6.4883880680028506e+03  6.3375823679739260e+03  6.1867585448157897e+03  6.0359199796572930e+03  5.8850693964347429e+03  5.7342089974050668e+03  5.5833405685581683e+03  5.4324655621686279e+03  5.2815851618599727e+03  5.1307003341925774e+03  4.9798118697899208e+03  4.8289204162860642e+03  4.6780265048364045e+03  4.5271305715315793e+03  4.3762329747530748e+03  4.2253340092816634e+03  4.0744339177966008e+03  3.9235329002707413e+03  3.7726311216640361e+03  3.6217287182381565e+03  3.4708258027524562e+03  3.3199224687525652e+03  3.1690187941242989e+03  3.0181148440557572e+03  2.8672106735271655e+03  2.7163063294310268e+03  2.5654018524135913e+03  2.4144972785228674e+03  2.2635926407491297e+03  2.1126879705533770e+03  1.9617832995013471e+03  1.8108786611627845e+03  1.6599740935109069e+03  1.5090696421891587e+03  1.3581653652527502e+03  1.2072613403773089e+03  1.0563576765627449e+03  9.0545453201566067e+02  7.5455215371940267e+02  6.0365090813137533e+02  4.5275144288075364e+02  3.0185730597297368e+02  1.5095882630967438e+02  -2.4393660091411085e-03  1.7350367267084595e+04  1.7322142609988150e+04  1.7293459731694951e+04  1.7263751303863995e+04  1.7233611333376157e+04  1.7202901906266143e+04  1.7172001057772006e+04  1.7141141557337476e+04  1.7110590631092025e+04  1.7081134990794606e+04  1.7053025253775908e+04  1.7025415412459759e+04  1.6997820464215885e+04  1.6970163093584975e+04  1.6942464236980166e+04  1.6914767476709043e+04  1.6887099228113617e+04  1.6859245114769026e+04  1.6830490919306489e+04  1.6800207203385806e+04  1.6772111365209978e+04  1.6744038771166703e+04  1.6715345192092129e+04  1.6686008183430025e+04  1.6656722626594415e+04  1.6627422934147748e+04  1.6596676278013332e+04  1.6567843085084292e+04  1.6538698410367600e+04  1.6508612649873194e+04  1.6477495092913588e+04  1.6445237021406498e+04  1.6412243326622280e+04  1.6379474601285705e+04  1.6347302826423547e+04  1.6315442155183837e+04  1.6283721915479597e+04  1.6252354665111077e+04  1.6221236183630153e+04  1.6190211799669136e+04  1.6158470754741003e+04  1.6126240539355040e+04  1.6093653868676911e+04  1.6060584506238531e+04  1.6026875854658236e+04  1.5992372846702814e+04  1.5956913869559918e+04  1.5920344802963449e+04  1.5882515476279590e+04  1.5843302001610307e+04  1.5802595008803082e+04  1.5760321906473111e+04  1.5716464562892870e+04  1.5671156930077501e+04  1.5626663964315345e+04  1.5570814020233829e+04  1.5516413604756419e+04  1.5461161795165090e+04  1.5401951743081123e+04  1.5351532785579990e+04  1.5296743821583077e+04  1.5242335894190230e+04  1.5190171474575292e+04  1.5143414155620219e+04  1.5093998607205594e+04  1.0956649714291390e+04  1.4992050832960640e+04  1.0890842362187563e+04  1.0859624559530452e+04  1.0824109071238072e+04  1.0795179636363720e+04  1.0759305506563991e+04  1.0727317092495989e+04  1.0702513470800366e+04  1.4654930876382006e+04  1.0655373921877521e+04  1.4589638105885208e+04  1.0595947924961274e+04  1.4510217647637413e+04  1.0537453323052643e+04  1.4427128798002859e+04  1.0483407806723828e+04  1.4351041919095216e+04  1.0428205545054221e+04  1.4278394671240956e+04  1.0369314422575922e+04  1.4200418358392877e+04  1.0314202636859238e+04  1.0287001619463992e+04  1.0256811997922170e+04  1.0227081356840230e+04  1.0196692117187051e+04  1.0165897907585888e+04  1.0134595802395646e+04  1.0102586592545777e+04  1.0069871841907230e+04  1.0036164673052570e+04  1.0001307484980425e+04  9.9618364995550164e+03  9.9278790125818541e+03  9.8907682923446573e+03  9.8514478087647749e+03  9.8090230957012845e+03  9.7249663000647761e+03  9.6017859179719126e+03  9.4636254419669403e+03  9.3220810977195706e+03  9.1785751526838612e+03  9.0334485381913291e+03  8.8870369551242093e+03  8.7396187363753143e+03  8.5914200294408711e+03  8.4426200174913829e+03  8.2933579935244652e+03  8.1437409136994474e+03  7.9938503347930673e+03  7.8437482694657974e+03  7.6934818806844733e+03  7.5430871271115448e+03  7.3925915376094190e+03  7.2420162971889758e+03  7.0913778046498392e+03  6.9406888324399051e+03  6.7899593904695512e+03  6.6391973710338498e+03  6.4884090323440605e+03  6.3375993630596049e+03  6.1867723588769586e+03  6.0359312338635427e+03  5.8850785831086559e+03  5.7342165088204092e+03  5.5833467187789392e+03  5.4324706037255110e+03  5.2815892985768660e+03  5.1307037311238491e+03  4.9798146609739370e+03  4.8289227108356854e+03  4.6780283917531315e+03  4.5271321235325122e+03  4.3762342513285384e+03  4.2253350591489334e+03  4.0744347808763287e+03  3.9235336092836815e+03  3.7726317034238336e+03  3.6217291946992800e+03  3.4708261918595849e+03  3.3199227851276760e+03  3.1690190496196478e+03  3.0181150481943700e+03  2.8672108338466492e+03  2.7163064517410940e+03  2.5654019409720440e+03  2.4144973361279494e+03  2.2635926