<?xml version="1.0"?>
<VTKFile type="UnstructuredGrid"  version="0.1"  >
<UnstructuredGrid>
<Piece  NumberOfPoints="21400" NumberOfCells="42336">
<Points>
<DataArray  type="Float64"  NumberOfComponents="3"  format="ascii">0 0 0  0.004583333333333333 0 0  0.009166666666666667 0 0  0.01375 0 0  0.01833333333333333 0 0  0.02291666666666667 0 0  0.0275 0 0  0.03208333333333334 0 0  0.03666666666666667 0 0  0.04125 0 0  0.04583333333333334 0 0  0.05041666666666667 0 0  0.055 0 0  0.05958333333333334 0 0  0.06416666666666668 0 0  0.06875000000000001 0 0  0.07333333333333333 0 0  0.07791666666666666 0 0  0.08249999999999999 0 0  0.08708333333333333 0 0  0.09166666666666667 0 0  0.09625000000000002 0 0  0.1008333333333333 0 0  0.1054166666666667 0 0  0.11 0 0  0.1145833333333333 0 0  0.1191666666666667 0 0  0.12375 0 0  0.1283333333333334 0 0  0.1329166666666667 0 0  0.1375 0 0  0.1420833333333333 0 0  0.1466666666666667 0 0  0.15125 0 0  0.1558333333333333 0 0  0.1604166666666667 0 0  0.165 0 0  0.1695833333333333 0 0  0.1741666666666667 0 0  0.17875 0 0  0.1833333333333333 0 0  0.1879166666666667 0 0  0.1925 0 0  0.1970833333333333 0 0  0.2016666666666667 0 0  0.20625 0 0  0.2108333333333333 0 0  0.2154166666666666 0 0  0.22 0 0  0.2245833333333334 0 0  0.2291666666666667 0 0  0.23375 0 0  0.2383333333333333 0 0  0.2429166666666667 0 0  0.2475 0 0  0.2520833333333333 0 0  0.2566666666666667 0 0  0.26125 0 0  0.2658333333333334 0 0  0.2704166666666666 0 0  0.275 0 0  0.2795833333333334 0 0  0.2841666666666667 0 0  0.28875 0 0  0.2933333333333333 0 0  0.2979166666666667 0 0  0.3025 0 0  0.3070833333333334 0 0  0.3116666666666666 0 0  0.31625 0 0  0.3208333333333333 0 0  0.3254166666666667 0 0  0.33 0 0  0.3345833333333333 0 0  0.3391666666666667 0 0  0.34375 0 0  0.3483333333333333 0 0  0.3529166666666667 0 0  0.3575 0 0  0.3620833333333333 0 0  0.3666666666666667 0 0  0.37125 0 0  0.3758333333333334 0 0  0.3804166666666667 0 0  0.3850000000000001 0 0  0.3895833333333333 0 0  0.3941666666666667 0 0  0.39875 0 0  0.4033333333333334 0 0  0.4079166666666666 0 0  0.4125 0 0  0.4170833333333334 0 0  0.4216666666666667 0 0  0.42625 0 0  0.4308333333333333 0 0  0.4354166666666667 0 0  0.44 0 0  0.4445833333333333 0 0  0.4491666666666667 0 0  0.45375 0 0  0.4583333333333333 0 0  0.4629166666666666 0 0  0.4675 0 0  0.4720833333333334 0 0  0.4766666666666667 0 0  0.4812500000000001 0 0  0.4858333333333333 0 0  0.4904166666666667 0 0  0.495 0 0  0.4995833333333334 0 0  0.5041666666666667 0 0  0.50875 0 0  0.5133333333333334 0 0  0.5179166666666667 0 0  0.5225 0 0  0.5270833333333333 0 0  0.5316666666666667 0 0  0.53625 0 0  0.5408333333333333 0 0  0.5454166666666667 0 0  0.55 0 0  0.5545833333333333 0 0  0.5591666666666667 0 0  0.5637500000000001 0 0  0.5683333333333334 0 0  0.5729166666666666 0 0  0.5775 0 0  0.5820833333333334 0 0  0.5866666666666667 0 0  0.5912499999999999 0 0  0.5958333333333334 0 0  0.6004166666666667 0 0  0.605 0 0  0.6095833333333334 0 0  0.6141666666666667 0 0  0.61875 0 0  0.6233333333333333 0 0  0.6279166666666667 0 0  0.6325000000000001 0 0  0.6370833333333333 0 0  0.6416666666666666 0 0  0.64625 0 0  0.6508333333333334 0 0  0.6554166666666666 0 0  0.6599999999999999 0 0  0.6645833333333334 0 0  0.6691666666666667 0 0  0.67375 0 0  0.6783333333333333 0 0  0.6829166666666667 0 0  0.6875 0 0  0.6920833333333333 0 0  0.6966666666666667 0 0  0.70125 0 0  0.7058333333333333 0 0  0.7104166666666667 0 0  0.7150000000000001 0 0  0.7195833333333334 0 0  0.7241666666666666 0 0  0.72875 0 0  0.7333333333333334 0 0  0.7379166666666667 0 0  0.7425 0 0  0.7470833333333333 0 0  0.7516666666666667 0 0  0.75625 0 0  0.7608333333333334 0 0  0.7654166666666666 0 0  0.7700000000000001 0 0  0 0.002380952380952381 0  0.004583333333333333 0.002380952380952381 0  0.009166666666666667 0.002380952380952381 0  0.01375 0.002380952380952381 0  0.01833333333333333 0.002380952380952381 0  0.02291666666666667 0.002380952380952381 0  0.0275 0.002380952380952381 0  0.03208333333333334 0.002380952380952381 0  0.03666666666666667 0.002380952380952381 0  0.04125 0.002380952380952381 0  0.04583333333333334 0.002380952380952381 0  0.05041666666666667 0.002380952380952381 0  0.055 0.002380952380952381 0  0.05958333333333334 0.002380952380952381 0  0.06416666666666668 0.002380952380952381 0  0.06875000000000001 0.002380952380952381 0  0.07333333333333333 0.002380952380952381 0  0.07791666666666666 0.002380952380952381 0  0.08249999999999999 0.002380952380952381 0  0.08708333333333333 0.002380952380952381 0  0.09166666666666667 0.002380952380952381 0  0.09625000000000002 0.002380952380952381 0  0.1008333333333333 0.002380952380952381 0  0.1054166666666667 0.002380952380952381 0  0.11 0.002380952380952381 0  0.1145833333333333 0.002380952380952381 0  0.1191666666666667 0.002380952380952381 0  0.12375 0.002380952380952381 0  0.1283333333333334 0.002380952380952381 0  0.1329166666666667 0.002380952380952381 0  0.1375 0.002380952380952381 0  0.1420833333333333 0.002380952380952381 0  0.1466666666666667 0.002380952380952381 0  0.15125 0.002380952380952381 0  0.1558333333333333 0.002380952380952381 0  0.1604166666666667 0.002380952380952381 0  0.165 0.002380952380952381 0  0.1695833333333333 0.002380952380952381 0  0.1741666666666667 0.002380952380952381 0  0.17875 0.002380952380952381 0  0.1833333333333333 0.002380952380952381 0  0.1879166666666667 0.002380952380952381 0  0.1925 0.002380952380952381 0  0.1970833333333333 0.002380952380952381 0  0.2016666666666667 0.002380952380952381 0  0.20625 0.002380952380952381 0  0.2108333333333333 0.002380952380952381 0  0.2154166666666666 0.002380952380952381 0  0.22 0.002380952380952381 0  0.2245833333333334 0.002380952380952381 0  0.2291666666666667 0.002380952380952381 0  0.23375 0.002380952380952381 0  0.2383333333333333 0.002380952380952381 0  0.2429166666666667 0.002380952380952381 0  0.2475 0.002380952380952381 0  0.2520833333333333 0.002380952380952381 0  0.2566666666666667 0.002380952380952381 0  0.26125 0.002380952380952381 0  0.2658333333333334 0.002380952380952381 0  0.2704166666666666 0.002380952380952381 0  0.275 0.002380952380952381 0  0.2795833333333334 0.002380952380952381 0  0.2841666666666667 0.002380952380952381 0  0.28875 0.002380952380952381 0  0.2933333333333333 0.002380952380952381 0  0.2979166666666667 0.002380952380952381 0  0.3025 0.002380952380952381 0  0.3070833333333334 0.002380952380952381 0  0.3116666666666666 0.002380952380952381 0  0.31625 0.002380952380952381 0  0.3208333333333333 0.002380952380952381 0  0.3254166666666667 0.002380952380952381 0  0.33 0.002380952380952381 0  0.3345833333333333 0.002380952380952381 0  0.3391666666666667 0.002380952380952381 0  0.34375 0.002380952380952381 0  0.3483333333333333 0.002380952380952381 0  0.3529166666666667 0.002380952380952381 0  0.3575 0.002380952380952381 0  0.3620833333333333 0.002380952380952381 0  0.3666666666666667 0.002380952380952381 0  0.37125 0.002380952380952381 0  0.3758333333333334 0.002380952380952381 0  0.3804166666666667 0.002380952380952381 0  0.3850000000000001 0.002380952380952381 0  0.3895833333333333 0.002380952380952381 0  0.3941666666666667 0.002380952380952381 0  0.39875 0.002380952380952381 0  0.4033333333333334 0.002380952380952381 0  0.4079166666666666 0.002380952380952381 0  0.4125 0.002380952380952381 0  0.4170833333333334 0.002380952380952381 0  0.4216666666666667 0.002380952380952381 0  0.42625 0.002380952380952381 0  0.4308333333333333 0.002380952380952381 0  0.4354166666666667 0.002380952380952381 0  0.44 0.002380952380952381 0  0.4445833333333333 0.002380952380952381 0  0.4491666666666667 0.002380952380952381 0  0.45375 0.002380952380952381 0  0.4583333333333333 0.002380952380952381 0  0.4629166666666666 0.002380952380952381 0  0.4675 0.002380952380952381 0  0.4720833333333334 0.002380952380952381 0  0.4766666666666667 0.002380952380952381 0  0.4812500000000001 0.002380952380952381 0  0.4858333333333333 0.002380952380952381 0  0.4904166666666667 0.002380952380952381 0  0.495 0.002380952380952381 0  0.4995833333333334 0.002380952380952381 0  0.5041666666666667 0.002380952380952381 0  0.50875 0.002380952380952381 0  0.5133333333333334 0.002380952380952381 0  0.5179166666666667 0.002380952380952381 0  0.5225 0.002380952380952381 0  0.5270833333333333 0.002380952380952381 0  0.5316666666666667 0.002380952380952381 0  0.53625 0.002380952380952381 0  0.5408333333333333 0.002380952380952381 0  0.5454166666666667 0.002380952380952381 0  0.55 0.002380952380952381 0  0.5545833333333333 0.002380952380952381 0  0.5591666666666667 0.002380952380952381 0  0.5637500000000001 0.002380952380952381 0  0.5683333333333334 0.002380952380952381 0  0.5729166666666666 0.002380952380952381 0  0.5775 0.002380952380952381 0  0.5820833333333334 0.002380952380952381 0  0.5866666666666667 0.002380952380952381 0  0.5912499999999999 0.002380952380952381 0  0.5958333333333334 0.002380952380952381 0  0.6004166666666667 0.002380952380952381 0  0.605 0.002380952380952381 0  0.6095833333333334 0.002380952380952381 0  0.6141666666666667 0.002380952380952381 0  0.61875 0.002380952380952381 0  0.6233333333333333 0.002380952380952381 0  0.6279166666666667 0.002380952380952381 0  0.6325000000000001 0.002380952380952381 0  0.6370833333333333 0.002380952380952381 0  0.6416666666666666 0.002380952380952381 0  0.64625 0.002380952380952381 0  0.6508333333333334 0.002380952380952381 0  0.6554166666666666 0.002380952380952381 0  0.6599999999999999 0.002380952380952381 0  0.6645833333333334 0.002380952380952381 0  0.6691666666666667 0.002380952380952381 0  0.67375 0.002380952380952381 0  0.6783333333333333 0.002380952380952381 0  0.6829166666666667 0.002380952380952381 0  0.6875 0.002380952380952381 0  0.6920833333333333 0.002380952380952381 0  0.6966666666666667 0.002380952380952381 0  0.70125 0.002380952380952381 0  0.7058333333333333 0.002380952380952381 0  0.7104166666666667 0.002380952380952381 0  0.7150000000000001 0.002380952380952381 
[...]
<PointData  Scalars="pressure"> 
<DataArray  type="Float64"  Name="pressure"  format="ascii">1.3307080583886038e+04  1.3277385504736067e+04  1.3250175869079201e+04  1.3221587380955532e+04  1.3191714690951580e+04  1.3156340202373418e+04  1.3123646220221832e+04  1.3090925762054287e+04  1.3055353236516197e+04  1.3026130624716503e+04  1.3002338118309230e+04  1.2976006348540959e+04  1.2948919406141255e+04  1.2921490211577457e+04  1.2893868971825013e+04  1.2866098953578834e+04  1.2838140517157946e+04  1.2809894576776358e+04  1.2781310989601983e+04  1.2752535894399611e+04  1.2723793239057690e+04  1.2695064890333719e+04  1.2666180550768291e+04  1.2637050178403038e+04  1.2607682359179589e+04  1.2578101558173954e+04  1.2548380298981561e+04  1.2518604088413475e+04  1.2488662122262893e+04  1.2458371797776341e+04  1.2427715254120376e+04  1.2396886794919055e+04  1.2366192420960844e+04  1.2335903231724284e+04  1.2306186400752276e+04  1.2277220427818780e+04  1.2249254896439756e+04  1.2226652966293013e+04  8.8803707975429897e+03  8.8596752199115945e+03  8.8348331901814054e+03  8.8117834015141070e+03  8.7895159908745791e+03  8.7673939647400712e+03  8.7453879753185756e+03  8.7233921503758811e+03  8.7013555235957720e+03  8.6792702005428000e+03  8.6570576107885900e+03  8.6347544426134700e+03  8.6122617268323120e+03  8.5896550674655391e+03  8.5668422316295055e+03  8.5438616545077257e+03  8.5196660846293944e+03  8.4941576771480195e+03  8.4673344605908442e+03  8.4402421770375295e+03  8.4149824111606395e+03  8.3850595996843022e+03  8.3565715227198198e+03  8.3271084742266867e+03  8.2962225282813706e+03  8.2637118661945933e+03  8.2293219575341755e+03  8.1932238656828831e+03  8.1555176901335999e+03  8.1152471127566942e+03  8.0727374196739556e+03  8.0279609367731027e+03  7.9809566945736615e+03  7.9324340104542816e+03  7.8810647961656014e+03  7.8366563777084493e+03  7.8009319304632045e+03  7.7645629824032558e+03  7.7292193218326302e+03  7.6947022055049383e+03  7.6600628006808047e+03  7.6260043414068414e+03  7.5921819510031009e+03  7.5592049272156373e+03  7.5266165039883654e+03  7.4949307655007196e+03  7.4636656168416721e+03  7.4331804539024124e+03  7.4024820558336614e+03  7.3717547957843608e+03  7.3414754532521474e+03  7.3116199438312633e+03  7.2821537450008782e+03  7.2529742471937534e+03  7.2240673137190261e+03  7.1953464768825261e+03  7.1668159609968316e+03  7.1384022059714016e+03  7.1101227193763543e+03  7.0819130966403445e+03  7.0538000481919626e+03  7.0257254640368601e+03  6.9977222939464873e+03  6.9697366596075344e+03  6.9418056468589011e+03  6.9138781092470026e+03  6.8859937006696973e+03  6.8581026991320477e+03  6.8302456191432375e+03  6.8023717891199949e+03  6.7745179127196252e+03  6.7466183052705101e+03  6.7186451862414697e+03  6.6903350528738420e+03  6.6614848669601997e+03  6.6321331843608941e+03  6.6022983916872981e+03  6.5719409921901233e+03  6.5410068850254984e+03  6.5094185291178255e+03  6.4770722560794839e+03  6.4438419085566939e+03  6.4095837907762316e+03  6.3742502649287426e+03  6.3383296810978882e+03  6.3025550841221093e+03  6.2663554881090658e+03  6.2295244448417461e+03  6.1934816485914225e+03  6.1299508096886711e+03  5.9985870942814618e+03  5.8489710706624419e+03  5.7016039153533002e+03  5.5558492483104901e+03  5.4100272544307163e+03  5.2635716405563089e+03  5.1163515944318688e+03  4.9684145131313498e+03  4.8198662304304289e+03  4.6708204614352162e+03  4.5213793748029784e+03  4.3716279922951253e+03  4.2216343653923932e+03  4.0714518426591544e+03  3.9211218033092155e+03  3.7706761993040373e+03  3.6201396903887835e+03  3.4695313478011740e+03  3.3188659759806205e+03  3.1681551219230969e+03  3.0174078397644844e+03  2.8666312681594136e+03  2.7158310664662381e+03  2.5650117452289201e+03  2.4141769177707952e+03  2.2633294929259500e+03  2.1124718237869151e+03  1.9616058235300482e+03  1.8107330566044579e+03  1.6598548116099157e+03  1.5089721609043509e+03  1.3580860112858368e+03  1.2071971504958915e+03  1.0563062932006367e+03  9.0541415397588833e+02  7.5452141968247759e+02  6.0362988055350638e+02  4.5273450500747145e+02  3.0189384326979814e+02  1.5055860117402750e+02  4.2689396641928532e+00  1.3305428076762431e+04  1.3277068865352745e+04  1.3251045970836611e+04  1.3219818372240077e+04  9.6085263249892487e+03  9.5836819372250866e+03  9.5601081259906205e+03  9.5365183498467450e+03  9.5116251853375325e+03  1.3026814107950520e+04  1.3002531090596796e+04  1.2976073616908403e+04  1.2948953477721656e+04  1.2921509291186700e+04  1.2893883685560111e+04  1.2866118068544132e+04  1.2838172269449999e+04  1.2809935644263005e+04  1.2781334334141620e+04  1.2752525891657157e+04  1.2723788759188557e+04  1.2695084231337707e+04  1.2666209378930584e+04  1.2637075566094638e+04  1.2607706448857134e+04  1.2578118275961926e+04  1.2548380936320238e+04  1.2518620675826996e+04  1.2488703689698068e+04  1.2458415680792326e+04  1.2427736006664183e+04  1.2396871289271943e+04  1.2366146175400632e+04  1.2335840103479140e+04  1.2306113104001861e+04  1.2277088011575557e+04  1.2249215356414823e+04  1.2223645662761497e+04  1.2190330515756430e+04  1.2161742696664636e+04  8.8345514579042283e+03  1.2096382898048059e+04  8.7894824346812293e+03  1.2035459612985713e+04  8.7453839728803596e+03  1.1975063940004451e+04  8.7013631507651080e+03  1.1914500456512547e+04  8.6570734929811770e+03  1.1853395265373425e+04  8.6122824697691321e+03  1.1791484762142996e+04  8.5668676130753502e+03  1.1728670783915037e+04  8.5199517896688831e+03  1.1660445431942318e+04  8.4673855323150074e+03  1.1586340928401087e+04  8.4142554347712739e+03  8.3849985036731941e+03  8.3567045528982781e+03  8.3272679413728692e+03  8.2963996081401619e+03  8.2639301331148345e+03  8.2295217599634852e+03  8.1933589900522420e+03  8.1558574008115265e+03  8.1154680515732753e+03  8.0729969198720792e+03  8.0282219681282513e+03  7.9811419760910312e+03  7.9324953997719194e+03  7.8823925304694249e+03  1.0758179721237610e+04  1.0708727862275568e+04  1.0658689509773918e+04  1.0610177324127984e+04  1.0562997245006221e+04  1.0515250332175916e+04  1.0468638273041402e+04  1.0422038038562257e+04  1.0376920492372639e+04  1.0332028634734797e+04  1.0288681316898304e+04  1.0245617728361218e+04  1.0203986527291248e+04  1.0161779325644389e+04  1.0119529789399328e+04  1.0077982848532471e+04  1.0036995445577048e+04  9.9965653554673972e+03  9.9565028026932123e+03  9.9168389613899471e+03  9.8774035418431413e+03  9.8382552062308332e+03  9.7992395574347665e+03  9.7604349497490693e+03  9.7216982982544705e+03  9.6831215666085682e+03  9.6445694601158521e+03  9.6061431588725391e+03  9.5677126078597157e+03  9.5293851004453700e+03  9.4910339546159030e+03  9.4527702908699594e+03  9.4144691523589991e+03  9.3762431323529527e+03  9.3379658997292609e+03  9.2997453528581573e+03  9.2614375271842237e+03  9.2230783059453533e+03  9.1842428479141290e+03  9.1446270947707544e+03  9.1043326233684529e+03  9.0633824943590789e+03  9.0217151175657145e+03  8.9792592946727509e+03  8.9359084193719518e+03  8.8915194420590597e+03  8.8459205996422661e+03  8.7989102312993673e+03  8.7503498832714758e+03  8.7008981344134827e+03  8.6519280710007170e+03  8.6022127752696360e+03  8.5515340039942730e+03  8.5017481088087206e+03  6.1378034802223765e+03  5.9997156558790684e+03  5.8483818823076617e+03  5.7014762369834107e+03  5.5558709962406901e+03  5.4101031774290723e+03  5.2636576164107846e+03  5.1164305824586909e+03  4.9684811966793750e+03  4.8199202303179636e+03  4.6708632485008739e+03  4.5214129058070612e+03  4.3716541478324889e+03  4.2216547539565672e+03  4.0714677648190627e+03  3.9211342794130169e+03  3.7706860167859081e+03  3.6201474518931582e+03  3.4695375131067558e+03  3.3188708959902060e+03  3.1681590651680885e+03  3.0174110126147907e+03  2.8666338300377429e+03  2.7158331412253160e+03  2.5650134296373626e+03  2.4141782878434055e+03  2.2633306086542416e+03  2.1124727326812067e+03  1.9616065632720281e+03  1.8107336570213868e+03  1.6598552961111861e+03  1.5089725474485979e+03  1.3580863129231593e+03  1.2071973749698232e+03  1.0563064444136248e+03  9.0541420845792993e+02  7.5452148855229063e+02  6.0362880057269490e+02  4.5274143378776324e+02  3.0183110069162638e+02  1.5112074240870854e+02  -2.3168184409072323e-01  1.3304272565787005e+04  1.3276206059536213e+04  1.3249581484201897e+04  1.3216862738074289e+04  1.3187844048618228e+04  1.3155347700168730e+04  1.3123660565599894e+04  1.3091971745746217e+04  1.3059493288248732e+04  1.3029120825847756e+04  1.3003069587750148e+04  1.2976305261128073e+04  1.2949066192341321e+04  1.2921573489996121e+04  1.2893932581254070e+04  1.2866181859946244e+04  1.2838282357296663e+04  1.2810086524170925e+04  1.2781423330027799e+04  1.2752475551413489e+04  1.2723768758025873e+04  1.2695156684999729e+04  1.2666313537848868e+04  1.2637161688342905e+04  1.2607791258602159e+04  1.2578182750518063e+04  1.2548369793863594e+04  1.2518676302410504e+04  1.2488855219842140e+04  1.2458575029466729e+04  1.2427811913846997e+04  1.2396815638246851e+04  1.2365980891910285e+04  1.2335620064361974e+04  1.2305854224109335e+04  1.2276722262865998e+04  1.2248423251471111e+04  1.2220319120568112e+04  1.2189668982588275e+04  1.2160158783726914e+04  1.2127433698183859e+04  1.2096272201162308e+04  1.2065734395254554e+04  1.2035431817203402e+04  1.2005246395159817e+04  1.1975059296271142e+04  1.1944838466929035e+04  1.1914509476479818e+04  1.1884055867971867e+04  1.1853414592964089e+04  1.1822578679687853e+04  1.1791506146788144e+04  1.1760223656796285e+04  1.1728790473556273e+04  1.1696523435770179e+04  1.1660566547804767e+04  1.1623737955742819e+04  1.1586308272235152e+04  1.1548920885850352e+04  1.1510562236936772e+04  1.1472000727036324e+04  1.1431635523459187e+04  1.1389285153078476e+04  1.1344826072932634e+04  1.1297609285092354e+04  1.1247548815352307e+04  1.1196966340859390e+04  1.1140867413425132e+04  1.1082862375227862e+04  1.1021299975624201e+04  1.0956663616246931e+04  1.0889032235250066e+04  1.0823135773401646e+04  1.0760142708846139e+04  1.0708344190234322e+04  1.0658461373456135e+04  1.0609742885777268e+04  1.0563385777533575e+04  1.0514756458232197e+04  1.0468894397673437e+04  1.0421486534721764e+04  1.0377128135057932e+04  1.0331476011961295e+04  1.0288867997868283e+04  1.0245077308659618e+04  1.0204293402842637e+04  1.0161755656982099e+04  1.0119356907983736e+04  1.0077894127996035e+04  1.0036866587079867e+04  9.9965143255481325e+03  9.9564041452983220e+03  9.9168159958414817e+03  9.8773258783295187e+03  9.8382515499327765e+03  9.7991761740492802e+03  9.7604443446843143e+03  9.7216445075016636e+03  9.6831396960009861e+03  9.6445220671087627e+03  9.6061671069637669e+03  9.5676694804433719e+03  9.5294129519868802e+03  9.4909937367529274e+03  9.4528009118981918e+03  9.4144312103716875e+03  9.3762764302865053e+03  9.3379312213746562e+03  9.2997847490293880e+03  9.2614168747741496e+03  9.2231829405640874e+03  9.1844080551613806e+03  9.1447546799816046e+03  9.1044584702278135e+03  9.0635232079029029e+03  9.0218679321209765e+03  8.9794332568359605e+03  8.9361105997525556e+03  8.8917546816836584e+03  8.8461960077395943e+03  8.7992329813785200e+03  8.7505901350167223e+03  8.7006443088586620e+03  8.6521584133493579e+03  8.6024180427574174e+03  8.5516465392272166e+03  8.5006257176254439e+03  8.4351497296010439e+03  5.9991247750579778e+03  5.8466472396014269e+03  5.7010824258645262e+03  5.5559726382681638e+03  5.4103768468629860e+03  5.2639593867051626e+03  5.1167052351546899e+03  4.9687120286239397e+03  4.8201067080153025e+03  4.6710108045678953e+03  4.5215284523938517e+03  4.3717442410255617e+03  4.2217249679986589e+03  4.0715225925998348e+03  3.9211772394312875e+03  3.7707198215566800e+03  3.6201741761992298e+03  3.4695587394628019e+03  3.3188878321084953e+03  3.1681726353443819e+03  3.0174219273138292e+03  2.8666426382345207e+03  2.7158402695275586e+03  2.5650192114595816e+03  2.4141829851697466e+03  2.2633344283034480e+03  2.1124758384884167e+03  1.9616090852146604e+03  1.8107356980156062e+03  1.6598569369607530e+03  1.5089738502076591e+03  1.3580873226413698e+03  1.2071981196379868e+03  1.0563069300567035e+03  9.0541442097026709e+02  7.5452127875639042e+02  6.0362855330215859e+02  4.5273644706728169e+02  3.0185336255930275e+02  1.5099445133336158e+02  3.0505280451090442e-02  1.3303152248150489e+04  1.3275089173881359e+04  1.3246798819998568e+04  1.3216444311369232e+04  1.3186288195182988e+04  1.3155003759456469e+04  1.3123661298260980e+04  1.3092346767314981e+04  1.3061060565692149e+04  1.3031332417875232e+04  1.3003849780862340e+04  1.2976652930069982e+04  1.2949243679680176e+04  1.2921675097997615e+04  1.2894008159948580e+04  1.2866280688471881e+04  1.2838468570075784e+04  1.2810378300203698e+04  1.2781620505715806e+04  1.2752309293775465e+04  1.2723722141897957e+04  1.2695304615049748e+04  1.2666510295065658e+04  1.2637298400502803e+04  1.2607937364729023e+04  1.2578333820914369e+04  1.2548280756051425e+04  1.2518769331855439e+04  1.2489145992648104e+04  1.2458875987585607e+04  1.2427958055096871e+04  1.2396711778230982e+04  1.2365678031161442e+04  1.2335235112394734e+04  1.2305431167177041e+04  1.2276148329094247e+04  1.2247288774615301e+04  1.2218296644873686e+04  1.2188314679212304e+04  1.2158200842504486e+04  1.2126957975644076e+04  1.2096080616501626e+04  1.2065644465011459e+04  1.2035401487336043e+04  1.2005240885341622e+04  1.1975080834360551e+04  1.1944871408787165e+04  1.1914563278581165e+04  1.1884117901361740e+04  1.1853493917101237e+04  1.1822659281665781e+04  1.1791590180298213e+04  1.1760295777191070e+04  1.1728832457872308e+04  1.1698438627553291e+04  1.1660595987818762e+04  1.1623942421288708e+04  1.1586634065047136e+04  1.1546369711981979e+04  1.1511020359438960e+04  1.1472527341698313e+04  1.1432253720016899e+04  1.1389913632717587e+04  1.1345614349202891e+04  1.1298814711494759e+04  1.1246982873782546e+04  1.1199639724446668e+04  1.1140851134365959e+04  1.1084140856490603e+04  1.1021941093149424e+04  1.0958211896942274e+04  1.0886958837833032e+04  1.0827052389595030e+04  1.0761012706264888e+04  1.0707398755429231e+04  1.0658292159082774e+04  1.0607779219645166e+04  1.0565674962411780e+04  1.0512192775073567e+04  1.0470908246040730e+04  1.0418816854959849e+04  1.0378989365830794e+04  1.0328856392912447e+04  1.0290625291922797e+04  1.0242566667736632e+04  1.0205956525944506e+04  1.0161462859045621e+04  1.0118902733075378e+04  1.0077789177399927e+04  1.0036478685488237e+04  9.9965058778235380e+03  9.9560788857820353e+03  9.9168760272191939e+03  9.8770442253154888e+03  9.8383586722631317e+03  9.7989241253431846e+03  9.7605833049169141e+03  9.7214123208749661e+03  9.6832999676360032e+03  9.6443031157118367e+03  9.6063415770842494e+03  9.5674593452408444e+03  9.5295969460081633e+03  9.4907896005927487e+03  9.4529916564614650e+03  9.4142316972518711e+03  9.3764735793284835e+03  9.3377381446624822e+03  9.2999963919971742e+03  9.2612485442508187e+03  9.2234975180110123e+03  9.1847575723856080e+03  9.1450406679460175e+03  9.1047346953169308e+03  9.0638414631183769e+03  9.0222082614269202e+03  8.9798225168330282e+03  8.9365644411723588e+03  8.8922809559205652e+03  8.8468172387871946e+03  8.7999288552353501e+03  8.7514361050428379e+03  8.6993499439655152e+03  8.6530218763582798e+03  8.6030085641362075e+03  8.5512835791011003e+03  8.5021443068952849e+03  6.1306832515713968e+03  5.9906376235126818e+03  5.8444012400235924e+03  5.7005763288386115e+03  5.5562385587594035e+03  5.4108831832618325e+03  5.2644910088108300e+03  5.1171801693284269e+03  4.9691076154077182e+03  4.8204247299471917e+03  4.6712617594235189e+03  4.5217246683324283e+03  4.3718971147149759e+03  4.2218440742085404e+03  4.0716155988915143e+03  3.9212501280162151e+03  3.7707771941725705e+03  3.6202195483246419e+03  3.4695947908515295e+03  3.3189166074665673e+03  3.1681956997095963e+03  3.0174404840243092e+03  2.8666576175052842e+03  2.7158523945892503e+03  2.5650290478543416e+03  2.4141909775202271e+03  2.2633409277983819e+03  2.1124811234777194e+03  1.9616133766503449e+03  1.8107391709672531e+03  1.6598597290260880e+03  1.5089760672671925e+03  1.3580890420023882e+03  1.2071993898580722e+03  1.0563077664138164e+03  9.0541478607579700e+02  7.5452107975410206e+02  6.0362734062428308e+02  4.5273449851489892e+02  3.0184634989079842e+02  1.5095344843901290e+02  -2.4374542654360780e-03  1.3302026584763484e+04  1.3273801872897859e+04  1.3245118803090105e+04  1.3215410024559169e+04  1.3185269525309624e+04  1.3154559357414315e+04  1.3123657526897447e+04  1.3092796764688439e+04  1.3062244261542832e+04  1.3032786731103737e+04  1.3004674761145854e+04  1.2977062199302592e+04  1.2949463884394563e+04  1.2921802335742757e+04  1.2894098285329979e+04  1.2866395045768446e+04  1.2838718638598666e+04  1.2810854087152004e+04  1.2782086302004915e+04  1.2751785372098415e+04  1.2723669230728801e+04  1.2695569748509239e+04  1.2666840449697205e+04  1.2637456835869138e+04  1.2608112660749415e+04  1.2578736371178979e+04  1.2547890928019706e+04  1.2518936217869266e+04  1.2489629788995151e+04  1.2459364002437034e+04  1.2428205955339790e+04  1.2396541031217883e+04  1.2365199500252729e+04  1.2334669896990708e+04  1.2304873802711620e+04  1.2275446697244688e+04  1.2246126964537223e+04  1.2216719899433467e+04  1.2186795386993213e+04  1.2156721837993173e+04  1.2126249530292687e+04  1.2095782177860956e+04  1.2065505483759947e+04  1.2035348054355223e+04  1.2005236566492897e+04  1.1975113035070430e+04  1.1944932038888637e+04  1.1914650905998129e+04  1.1884229506743995e+04  1.1853626983200576e+04  1.1822805439906469e+04  1.1791734815874141e+04  1.1760412820263491e+04  1.1728895792089092e+04  1.1698558884779173e+04  1.1661063116982448e+04  1.1624784838783633e+04  1.1587639112947616e+04  1.1546926663287662e+04  1.1511826106429045e+04  1.1473551825149294e+04  1.1433435638962044e+04  1.1391127824408899e+04  1.1346660831450039e+04  1.1302570120410322e+04  1.1244452911709226e+04  1.1199975687498514e+04  1.1141235183480208e+04  1.1088022739232802e+04  8.0328813180178086e+03  1.0964753118137387e+04  7.9312719484959925e+03  7.8870863876698022e+03  7.8377326162586560e+03  1.0703005710344205e+04  7.7632423532401699e+03  1.0608396760892305e+04  7.6941861526741131e+03  1.0511648436242620e+04  7.6244779476324838e+03  1.0417844806577457e+04  7.5574310690981911e+03  1.0327797363645695e+04  7.4931086604528946e+03  1.0241504976454760e+04  7.4316043077274726e+03  1.0161586156124093e+04  7.3678360450856535e+03  1.0078271017130206e+04  7.3082548959235901e+03  9.9973081757390864e+03  7.2500293560688788e+03  9.9179084294323384e+03  7.1926922529332587e+03  9.8395495602018491e+03  7.1359449955172759e+03  9.7618814433940479e+03  7.0795879393191626e+03  9.6846699393932613e+03  7.0234882408057138e+03  9.6077594238070506e+03  6.9675579682661992e+03  9.5310469071782809e+03  6.9117391632371045e+03  9.4544643430520846e+03  6.8559941400617317e+03  9.3779673770377776e+03  6.8003030511778306e+03  9.3015355646182161e+03  6.7446953922889943e+03  9.2253067502575868e+03  6.6905555679052004e+03  6.6636628356275960e+03  6.6337885093309951e+03  6.6042617130789276e+03  6.5740620861824900e+03  6.5434264216468282e+03  6.5122474193978751e+03  6.4803408942546903e+03  6.4477114704526057e+03  6.4140725984432183e+03  6.3792709639409013e+03  6.3398410507932404e+03  6.3059108522418464e+03  6.2688277086364778e+03  6.2295283645968020e+03  6.1871228227875608e+03  6.1030973299931511e+03  5.9799457543832659e+03  5.8418090024314952e+03  5.7002826885437589e+03  5.5567906213026399e+03  5.4116748228675269e+03  5.2652717492394449e+03  5.1178602786647562e+03  4.9696669599780571e+03  4.8208712759826230e+03  4.6716127464055608e+03  4.5219985011207700e+03  4.3721102315407443e+03  4.2220100557881497e+03  4.0717452202651020e+03  3.9213517502782352e+03  3.7708572284391062e+03  3.6202828835586752e+03  3.4696451505532482e+03  3.3189568320793269e+03  3.1682279637693005e+03  3.0174664603223368e+03  2.8666786000288575e+03  2.7158693901820388e+03  2.5650428444866493e+03  2.4142021952044256e+03  2.2633500