<?xml version="1.0"?>
<VTKFile type="UnstructuredGrid"  version="0.1"  >
<UnstructuredGrid>
<Piece  NumberOfPoints="21400" NumberOfCells="42336">
<Points>
<DataArray  type="Float64"  NumberOfComponents="3"  format="ascii">0 0 0  0.004583333333333333 0 0  0.009166666666666667 0 0  0.01375 0 0  0.01833333333333333 0 0  0.02291666666666667 0 0  0.0275 0 0  0.03208333333333334 0 0  0.03666666666666667 0 0  0.04125 0 0  0.04583333333333334 0 0  0.05041666666666667 0 0  0.055 0 0  0.05958333333333334 0 0  0.06416666666666668 0 0  0.06875000000000001 0 0  0.07333333333333333 0 0  0.07791666666666666 0 0  0.08249999999999999 0 0  0.08708333333333333 0 0  0.09166666666666667 0 0  0.09625000000000002 0 0  0.1008333333333333 0 0  0.1054166666666667 0 0  0.11 0 0  0.1145833333333333 0 0  0.1191666666666667 0 0  0.12375 0 0  0.1283333333333334 0 0  0.1329166666666667 0 0  0.1375 0 0  0.1420833333333333 0 0  0.1466666666666667 0 0  0.15125 0 0  0.1558333333333333 0 0  0.1604166666666667 0 0  0.165 0 0  0.1695833333333333 0 0  0.1741666666666667 0 0  0.17875 0 0  0.1833333333333333 0 0  0.1879166666666667 0 0  0.1925 0 0  0.1970833333333333 0 0  0.2016666666666667 0 0  0.20625 0 0  0.2108333333333333 0 0  0.2154166666666666 0 0  0.22 0 0  0.2245833333333334 0 0  0.2291666666666667 0 0  0.23375 0 0  0.2383333333333333 0 0  0.2429166666666667 0 0  0.2475 0 0  0.2520833333333333 0 0  0.2566666666666667 0 0  0.26125 0 0  0.2658333333333334 0 0  0.2704166666666666 0 0  0.275 0 0  0.2795833333333334 0 0  0.2841666666666667 0 0  0.28875 0 0  0.2933333333333333 0 0  0.2979166666666667 0 0  0.3025 0 0  0.3070833333333334 0 0  0.3116666666666666 0 0  0.31625 0 0  0.3208333333333333 0 0  0.3254166666666667 0 0  0.33 0 0  0.3345833333333333 0 0  0.3391666666666667 0 0  0.34375 0 0  0.3483333333333333 0 0  0.3529166666666667 0 0  0.3575 0 0  0.3620833333333333 0 0  0.3666666666666667 0 0  0.37125 0 0  0.3758333333333334 0 0  0.3804166666666667 0 0  0.3850000000000001 0 0  0.3895833333333333 0 0  0.3941666666666667 0 0  0.39875 0 0  0.4033333333333334 0 0  0.4079166666666666 0 0  0.4125 0 0  0.4170833333333334 0 0  0.4216666666666667 0 0  0.42625 0 0  0.4308333333333333 0 0  0.4354166666666667 0 0  0.44 0 0  0.4445833333333333 0 0  0.4491666666666667 0 0  0.45375 0 0  0.4583333333333333 0 0  0.4629166666666666 0 0  0.4675 0 0  0.4720833333333334 0 0  0.4766666666666667 0 0  0.4812500000000001 0 0  0.4858333333333333 0 0  0.4904166666666667 0 0  0.495 0 0  0.4995833333333334 0 0  0.5041666666666667 0 0  0.50875 0 0  0.5133333333333334 0 0  0.5179166666666667 0 0  0.5225 0 0  0.5270833333333333 0 0  0.5316666666666667 0 0  0.53625 0 0  0.5408333333333333 0 0  0.5454166666666667 0 0  0.55 0 0  0.5545833333333333 0 0  0.5591666666666667 0 0  0.5637500000000001 0 0  0.5683333333333334 0 0  0.5729166666666666 0 0  0.5775 0 0  0.5820833333333334 0 0  0.5866666666666667 0 0  0.5912499999999999 0 0  0.5958333333333334 0 0  0.6004166666666667 0 0  0.605 0 0  0.6095833333333334 0 0  0.6141666666666667 0 0  0.61875 0 0  0.6233333333333333 0 0  0.6279166666666667 0 0  0.6325000000000001 0 0  0.6370833333333333 0 0  0.6416666666666666 0 0  0.64625 0 0  0.6508333333333334 0 0  0.6554166666666666 0 0  0.6599999999999999 0 0  0.6645833333333334 0 0  0.6691666666666667 0 0  0.67375 0 0  0.6783333333333333 0 0  0.6829166666666667 0 0  0.6875 0 0  0.6920833333333333 0 0  0.6966666666666667 0 0  0.70125 0 0  0.7058333333333333 0 0  0.7104166666666667 0 0  0.7150000000000001 0 0  0.7195833333333334 0 0  0.7241666666666666 0 0  0.72875 0 0  0.7333333333333334 0 0  0.7379166666666667 0 0  0.7425 0 0  0.7470833333333333 0 0  0.7516666666666667 0 0  0.75625 0 0  0.7608333333333334 0 0  0.7654166666666666 0 0  0.7700000000000001 0 0  0 0.002380952380952381 0  0.004583333333333333 0.002380952380952381 0  0.009166666666666667 0.002380952380952381 0  0.01375 0.002380952380952381 0  0.01833333333333333 0.002380952380952381 0  0.02291666666666667 0.002380952380952381 0  0.0275 0.002380952380952381 0  0.03208333333333334 0.002380952380952381 0  0.03666666666666667 0.002380952380952381 0  0.04125 0.002380952380952381 0  0.04583333333333334 0.002380952380952381 0  0.05041666666666667 0.002380952380952381 0  0.055 0.002380952380952381 0  0.05958333333333334 0.002380952380952381 0  0.06416666666666668 0.002380952380952381 0  0.06875000000000001 0.002380952380952381 0  0.07333333333333333 0.002380952380952381 0  0.07791666666666666 0.002380952380952381 0  0.08249999999999999 0.002380952380952381 0  0.08708333333333333 0.002380952380952381 0  0.09166666666666667 0.002380952380952381 0  0.09625000000000002 0.002380952380952381 0  0.1008333333333333 0.002380952380952381 0  0.1054166666666667 0.002380952380952381 0  0.11 0.002380952380952381 0  0.1145833333333333 0.002380952380952381 0  0.1191666666666667 0.002380952380952381 0  0.12375 0.002380952380952381 0  0.1283333333333334 0.002380952380952381 0  0.1329166666666667 0.002380952380952381 0  0.1375 0.002380952380952381 0  0.1420833333333333 0.002380952380952381 0  0.1466666666666667 0.002380952380952381 0  0.15125 0.002380952380952381 0  0.1558333333333333 0.002380952380952381 0  0.1604166666666667 0.002380952380952381 0  0.165 0.002380952380952381 0  0.1695833333333333 0.002380952380952381 0  0.1741666666666667 0.002380952380952381 0  0.17875 0.002380952380952381 0  0.1833333333333333 0.002380952380952381 0  0.1879166666666667 0.002380952380952381 0  0.1925 0.002380952380952381 0  0.1970833333333333 0.002380952380952381 0  0.2016666666666667 0.002380952380952381 0  0.20625 0.002380952380952381 0  0.2108333333333333 0.002380952380952381 0  0.2154166666666666 0.002380952380952381 0  0.22 0.002380952380952381 0  0.2245833333333334 0.002380952380952381 0  0.2291666666666667 0.002380952380952381 0  0.23375 0.002380952380952381 0  0.2383333333333333 0.002380952380952381 0  0.2429166666666667 0.002380952380952381 0  0.2475 0.002380952380952381 0  0.2520833333333333 0.002380952380952381 0  0.2566666666666667 0.002380952380952381 0  0.26125 0.002380952380952381 0  0.2658333333333334 0.002380952380952381 0  0.2704166666666666 0.002380952380952381 0  0.275 0.002380952380952381 0  0.2795833333333334 0.002380952380952381 0  0.2841666666666667 0.002380952380952381 0  0.28875 0.002380952380952381 0  0.2933333333333333 0.002380952380952381 0  0.2979166666666667 0.002380952380952381 0  0.3025 0.002380952380952381 0  0.3070833333333334 0.002380952380952381 0  0.3116666666666666 0.002380952380952381 0  0.31625 0.002380952380952381 0  0.3208333333333333 0.002380952380952381 0  0.3254166666666667 0.002380952380952381 0  0.33 0.002380952380952381 0  0.3345833333333333 0.002380952380952381 0  0.3391666666666667 0.002380952380952381 0  0.34375 0.002380952380952381 0  0.3483333333333333 0.002380952380952381 0  0.3529166666666667 0.002380952380952381 0  0.3575 0.002380952380952381 0  0.3620833333333333 0.002380952380952381 0  0.3666666666666667 0.002380952380952381 0  0.37125 0.002380952380952381 0  0.3758333333333334 0.002380952380952381 0  0.3804166666666667 0.002380952380952381 0  0.3850000000000001 0.002380952380952381 0  0.3895833333333333 0.002380952380952381 0  0.3941666666666667 0.002380952380952381 0  0.39875 0.002380952380952381 0  0.4033333333333334 0.002380952380952381 0  0.4079166666666666 0.002380952380952381 0  0.4125 0.002380952380952381 0  0.4170833333333334 0.002380952380952381 0  0.4216666666666667 0.002380952380952381 0  0.42625 0.002380952380952381 0  0.4308333333333333 0.002380952380952381 0  0.4354166666666667 0.002380952380952381 0  0.44 0.002380952380952381 0  0.4445833333333333 0.002380952380952381 0  0.4491666666666667 0.002380952380952381 0  0.45375 0.002380952380952381 0  0.4583333333333333 0.002380952380952381 0  0.4629166666666666 0.002380952380952381 0  0.4675 0.002380952380952381 0  0.4720833333333334 0.002380952380952381 0  0.4766666666666667 0.002380952380952381 0  0.4812500000000001 0.002380952380952381 0  0.4858333333333333 0.002380952380952381 0  0.4904166666666667 0.002380952380952381 0  0.495 0.002380952380952381 0  0.4995833333333334 0.002380952380952381 0  0.5041666666666667 0.002380952380952381 0  0.50875 0.002380952380952381 0  0.5133333333333334 0.002380952380952381 0  0.5179166666666667 0.002380952380952381 0  0.5225 0.002380952380952381 0  0.5270833333333333 0.002380952380952381 0  0.5316666666666667 0.002380952380952381 0  0.53625 0.002380952380952381 0  0.5408333333333333 0.002380952380952381 0  0.5454166666666667 0.002380952380952381 0  0.55 0.002380952380952381 0  0.5545833333333333 0.002380952380952381 0  0.5591666666666667 0.002380952380952381 0  0.5637500000000001 0.002380952380952381 0  0.5683333333333334 0.002380952380952381 0  0.5729166666666666 0.002380952380952381 0  0.5775 0.002380952380952381 0  0.5820833333333334 0.002380952380952381 0  0.5866666666666667 0.002380952380952381 0  0.5912499999999999 0.002380952380952381 0  0.5958333333333334 0.002380952380952381 0  0.6004166666666667 0.002380952380952381 0  0.605 0.002380952380952381 0  0.6095833333333334 0.002380952380952381 0  0.6141666666666667 0.002380952380952381 0  0.61875 0.002380952380952381 0  0.6233333333333333 0.002380952380952381 0  0.6279166666666667 0.002380952380952381 0  0.6325000000000001 0.002380952380952381 0  0.6370833333333333 0.002380952380952381 0  0.6416666666666666 0.002380952380952381 0  0.64625 0.002380952380952381 0  0.6508333333333334 0.002380952380952381 0  0.6554166666666666 0.002380952380952381 0  0.6599999999999999 0.002380952380952381 0  0.6645833333333334 0.002380952380952381 0  0.6691666666666667 0.002380952380952381 0  0.67375 0.002380952380952381 0  0.6783333333333333 0.002380952380952381 0  0.6829166666666667 0.002380952380952381 0  0.6875 0.002380952380952381 0  0.6920833333333333 0.002380952380952381 0  0.6966666666666667 0.002380952380952381 0  0.70125 0.002380952380952381 0  0.7058333333333333 0.002380952380952381 0  0.7104166666666667 0.002380952380952381 0  0.7150000000000001 0.002380952380952381 
[...]
<PointData  Scalars="pressure"> 
<DataArray  type="Float64"  Name="pressure"  format="ascii">3.2142529000212904e+04  3.2112799235864921e+04  3.2085463382142178e+04  3.2056647848156837e+04  3.2026392847787574e+04  3.1990385640414639e+04  3.1956879076482572e+04  3.1923083256733629e+04  3.1886123736440291e+04  3.1856469730552428e+04  2.3187411568439675e+04  2.3154555799087982e+04  2.3118179877902854e+04  2.3075042277744978e+04  2.3028232971331166e+04  2.2982041932722284e+04  2.2941543726533313e+04  2.2878565113306831e+04  2.2740445674351158e+04  2.2569667202793742e+04  2.2398310756263651e+04  2.2232179519341313e+04  2.2070147012486766e+04  2.1910999169593215e+04  2.1753879342803044e+04  2.1598212005612240e+04  2.1443607632261166e+04  2.1289796730386344e+04  2.1136588352905172e+04  2.0983844135190477e+04  2.0831461791371272e+04  2.0679364382140335e+04  2.0527493165634591e+04  2.0375802721962536e+04  2.0224257553979387e+04  2.0072829668389048e+04  1.9921496821990626e+04  1.9770241228456434e+04  1.9619048590076301e+04  1.9467907362893242e+04  1.9316808192223813e+04  1.9165743474451490e+04  1.9014707013696468e+04  1.8863693750664825e+04  1.8712699547027638e+04  1.8561721012948412e+04  1.8410755368434078e+04  1.8259800331404364e+04  1.8108854027008536e+04  1.7957914913936020e+04  1.7806981724386242e+04  1.7656053415063296e+04  1.7505129127101092e+04  1.7354208153243802e+04  1.7203289910935910e+04  1.7052373920235670e+04  1.6901459785672410e+04  1.6750547181333306e+04  1.6599635838597795e+04  1.6448725536044905e+04  1.6297816091145325e+04  1.6146907353420420e+04  1.5995999198807762e+04  1.5845091525019259e+04  1.5694184247716461e+04  1.5543277297358634e+04  1.5392370616605003e+04  1.5241464158173452e+04  1.5090557883075422e+04  1.4939651759160688e+04  1.4788745759917694e+04  1.4637839863484391e+04  1.4486934051832684e+04  1.4336028310095990e+04  1.4185122626014721e+04  1.4034216989479120e+04  1.3883311392152214e+04  1.3732405827158920e+04  1.3581500288829728e+04  1.3430594772489252e+04  1.3279689274281915e+04  1.3128783791028225e+04  1.2977878320106183e+04  1.2826972859353538e+04  1.2676067406987202e+04  1.2525161961536744e+04  1.2374256521789537e+04  1.2223351086745612e+04  1.2072445655580339e+04  1.1921540227613690e+04  1.1770634802284887e+04  1.1619729379131493e+04  1.1468823957772180e+04  1.1317918537892494e+04  1.1167013119233156e+04  1.1016107701580369e+04  1.0865202284757881e+04  1.0714296868620379e+04  1.0563391453048092e+04  1.0412486037942326e+04  1.0261580623221767e+04  1.0110675208819470e+04  9.9597697946803546e+03  9.8088643807591616e+03  9.6579589670187324e+03  9.5070535534286737e+03  9.3561481399641889e+03  9.2052427266051454e+03  9.0543373133353725e+03  8.9034319001419954e+03  8.7525264870150222e+03  8.6016210739469043e+03  8.4507156609323119e+03  8.2998102479678964e+03  8.1489048350521871e+03  7.9979994221855213e+03  7.8470940093700719e+03  7.6961885966099326e+03  7.5452831839112341e+03  7.3943777712824185e+03  7.2434723587345261e+03  7.0925669462816268e+03  6.9416615339413238e+03  6.7907561217354341e+03  6.6398507096907906e+03  6.4889452978402442e+03  6.3380398862239035e+03  6.1871344748906358e+03  6.0362290638999057e+03  5.8853236533239970e+03  5.7344182432507205e+03  5.5835128337867836e+03  5.4326074250617612e+03  5.2817020172330240e+03  5.1307966104917532e+03  4.9798912050702174e+03  4.8289858012507011e+03  4.6780803993764093e+03  4.5271749998648493e+03  4.3762696032242075e+03  4.2253642100735560e+03  4.0744588211677478e+03  3.9235534374282888e+03  3.7726480599817050e+03  3.6217426902075072e+03  3.4708373297985004e+03  3.3199319808371720e+03  3.1690266458930855e+03  3.0181213281484161e+03  2.8672160315613678e+03  2.7163107610815214e+03  2.5654055229376218e+03  2.4145003250282980e+03  2.2635951774619298e+03  2.1126900933175707e+03  1.9617850897415638e+03  1.8108801895679183e+03  1.6599754237800437e+03  1.5090708353756236e+03  1.3581664856195594e+03  1.2072624648920282e+03  1.0563589098517123e+03  9.0545605295024302e+02  7.5455417551909647e+02  6.0365472288178898e+02  4.5275236540220845e+02  3.0190539317213717e+02  1.5056425484261470e+02  4.2690987426575466e+00  3.2140885693061682e+04  3.2112491186860465e+04  3.2086349734102769e+04  3.2054873252785761e+04  2.3328911278931948e+04  2.3303622239775315e+04  2.3279467283823269e+04  2.3255102931289985e+04  2.3229193196230241e+04  3.1856701442060275e+04  3.1828873031436768e+04  3.1786391377356678e+04  3.1736367125430348e+04  3.1676791031398199e+04  3.1611966858216285e+04  3.1547989172832633e+04  3.1491775838690523e+04  2.2887302788456458e+04  2.2743696617378031e+04  2.2569142295287726e+04  2.2397698343260385e+04  2.2231736895340608e+04  2.2069838717075218e+04  2.1910782614068838e+04  2.1753723913664377e+04  2.1598097995895423e+04  2.1443522351675645e+04  2.1289731862232697e+04  2.1136538312936820e+04  2.0983805080208149e+04  2.0831431013869900e+04  2.0679339933546522e+04  2.0527473616463849e+04  2.0375787005595088e+04  2.0224244862607145e+04  2.0072819382225465e+04  1.9921488460138295e+04  1.9770234414162911e+04  1.9619043025733041e+04  1.9467902811752825e+04  1.9316804464830224e+04  1.9165740418430956e+04  1.9014704505981546e+04  1.8863691691506167e+04  1.8712697855336795e+04  1.8561719622644450e+04  1.8410754225555640e+04  1.8259799391811906e+04  1.8108853254545626e+04  1.7957914278950870e+04  1.7806981202537951e+04  1.7656052986354658e+04  1.7505128775092551e+04  1.7354207864413154e+04  1.7203289674155574e+04  1.7052373726345217e+04  1.6901459627128483e+04  1.6750547051922593e+04  1.6599635733201445e+04  1.6448725450445025e+04  1.6297816021865881e+04  1.6146907297596463e+04  1.5995999154077736e+04  1.5845091489436414e+04  1.5694184219675884e+04  1.5543277275537150e+04  1.5392370599911668e+04  1.5241464145708769e+04  1.5090557874097711e+04  1.4939651753058397e+04  1.4788745756186541e+04  1.4637839861708546e+04  1.4486934051669263e+04  1.4336028311262222e+04  1.4185122628277455e+04  1.4034216992646077e+04  1.3883311396064833e+04  1.3732405831686456e+04  1.3581500293864350e+04  1.3430594777942046e+04  1.3279689280079559e+04  1.3128783797110247e+04  1.2977878326422715e+04  1.2826972865863470e+04  1.2676067413656621e+04  1.2525161968337678e+04  1.2374256528698927e+04  1.2223351093744441e+04  1.2072445662652923e+04  1.1921540234747095e+04  1.1770634809468447e+04  1.1619729386356412e+04  1.1468823965031203e+04  1.1317918545179642e+04  1.1167013126543488e+04  1.1016107708909818e+04  1.0865202292103091e+04  1.0714296875978582e+04  1.0563391460416999e+04  1.0412486045320049e+04  1.0261580630606752e+04  1.0110675216210429e+04  9.9597698020762273e+03  9.8088643881590579e+03  9.6579589744219320e+03  9.5070535608345617e+03  9.3561481473722542e+03  9.2052427340149734e+03  9.0543373207465920e+03  8.9034319075543026e+03  8.7525264944281480e+03  8.6016210813606140e+03  8.4507156683463818e+03  8.2998102553821300e+03  8.1489048424663870e+03  7.9979994295994884e+03  7.8470940167836043e+03  7.6961886040228010e+03  7.5452831913231958e+03  7.3943777786931878e+03  7.2434723661437802e+03  7.0925669536889845e+03  6.9416615413463305e+03  6.7907561291375468e+03  6.6398507170893608e+03  6.4889453052344888e+03  6.3380398936128795e+03  6.1871344822732035e+03  6.0362290712746781e+03  5.8853236606892970e+03  5.7344182506045208e+03  5.5835128411266160e+03  5.4326074323846233e+03  5.2817020245352760e+03  5.1307966177689623e+03  4.9798912123169966e+03  4.8289858084604821e+03  4.6780804065411885e+03  4.5271750069748496e+03  4.3762696102674890e+03  4.2253642170354897e+03  4.0744588280303869e+03  3.9235534441695604e+03  3.7726480665743802e+03  3.6217426966178773e+03  3.4708373359846628e+03  3.3199319867467734e+03  3.1690266514603259e+03  3.0181213332900138e+03  2.8672160361710312e+03  2.7163107650222601e+03  2.5654055260308537e+03  2.4145003270381021e+03  2.2635951780717855e+03  2.1126900920951734e+03  1.9617850860841877e+03  1.8108801826149841e+03  1.6599754122693944e+03  1.5090708173915950e+03  1.3581664581893449e+03  1.2072624228501750e+03  1.0563588467287541e+03  9.0545593698862899e+02  7.5455411128692742e+02  6.0365354200125307e+02  4.5275922197210804e+02  3.0184260143698327e+02  1.5112639414246092e+02  -2.3169241560205509e-01  3.2139761946383762e+04  3.2111659040129227e+04  3.2084925915107040e+04  3.2051946580055719e+04  3.2022567767103199e+04  3.1989503206107402e+04  3.1957047497530646e+04  3.1924322675787906e+04  3.1890445188278485e+04  3.1858253389896559e+04  3.1827551655148927e+04  3.1788443843455698e+04  3.1738347493366728e+04  3.1677875735862308e+04  3.1611774453680748e+04  3.1546793646643368e+04  3.1488113198888277e+04  3.1430453144120187e+04  2.2751325543433999e+04  2.2566887439002690e+04  2.2395584927606658e+04  2.2230218347176942e+04  2.2068784984270638e+04  2.1910041692637271e+04  2.1753191478450186e+04  2.1597706951144541e+04  2.1443229523942038e+04  2.1289508918196232e+04  2.1136366198923723e+04  2.0983670662847759e+04  2.0831325027860461e+04  2.0679255702491941e+04  2.0527406237290881e+04  2.0375732816486274e+04  2.0224201088101876e+04  2.0072783891449402e+04  1.9921459598797661e+04  1.9770210885608118e+04  1.9619023805290359e+04  1.9467887084021415e+04  1.9316791577106196e+04  1.9165729845640999e+04  1.9014695823957813e+04  1.8863684556393648e+04  1.8712691987570484e+04  1.8561714794374417e+04  1.8410750250703582e+04  1.8259796118156952e+04  1.8108850557389724e+04  1.7957912056024128e+04  1.7806979369884273e+04  1.7656051474997581e+04  1.7505127528325411e+04  1.7354206835591260e+04  1.7203288824893662e+04  1.7052373025043304e+04  1.6901459047764532e+04  1.6750546573062526e+04  1.6599635337186584e+04  1.6448725122724609e+04  1.6297815750448397e+04  1.6146907072598353e+04  1.5995998967352087e+04  1.5845091334267270e+04  1.5694184090526544e+04  1.5543277167842865e+04  1.5392370509908857e+04  1.5241464070294285e+04  1.5090557810712868e+04  1.4939651699593387e+04  1.4788745710901676e+04  1.4637839823169266e+04  1.4486934018692638e+04  1.4336028282872783e+04  1.4185122603670810e+04  1.4034216971158894e+04  1.3883311377150105e+04  1.3732405814893107e+04  1.3581500278820400e+04  1.3430594764340743e+04  1.3279689267667942e+04  1.3128783785679701e+04  1.2977878315801221e+04  1.2826972855909169e+04  1.2676067404252517e+04  1.2525161959387295e+04  1.2374256520122712e+04  1.2223351085476777e+04  1.2072445654639707e+04  1.1921540226943713e+04  1.1770634801838090e+04  1.1619729378868740e+04  1.1468823957661187e+04  1.1317918537906638e+04  1.1167013119350486e+04  1.1016107701782770e+04  1.0865202285030413e+04  1.0714296868950718e+04  1.0563391453426064e+04  1.0412486038359537e+04  1.0261580623671289e+04  1.0110675209295578e+04  9.9597697951783139e+03  9.8088643812750452e+03  9.6579589675492934e+03  9.5070535539712037e+03  9.3561481405164250e+03  9.2052427271651977e+03  9.0543373139016294e+03  8.9034319007130889e+03  8.7525264875897519e+03  8.6016210745242170e+03  8.4507156615112399e+03  8.2998102485475447e+03  8.1489048356316753e+03  7.9979994227639681e+03  7.8470940099465588e+03  7.6961885971834618e+03  7.5452831844807070e+03  7.3943777718465744e+03  7.2434723592919127e+03  7.0925669468305396e+03  6.9416615344797392e+03  6.7907561222609320e+03  6.6398507102004705e+03  6.4889452983306173e+03  6.3380398866907544e+03  6.1871344753288677e+03  6.0362290643033421e+03  5.8853236536851518e+03  5.7344182435605235e+03  5.5835128340342171e+03  5.4326074252334392e+03  5.2817020173126884e+03  5.1307966104596253e+03  4.9798912049022365e+03  4.8289858009175541e+03  4.6780803988423622e+03  4.5271749990862781e+03  4.3762696021478005e+03  4.2253642086340315e+03  4.0744588192850151e+03  3.9235534350038492e+03  3.7726480568940674e+03  3.6217426863062888e+03  3.4708373248967905e+03  3.3199319747014902e+03  3.1690266382300524e+03  3.0181213185867991e+03  2.8672160196275240e+03  2.7163107461652548e+03  2.5654055042438463e+03  2.4145003015072343e+03  2.2635951477061030e+03  2.1126900554062063e+03  1.9617850409992880e+03  1.8108801261796179e+03  1.6599753401563089e+03  1.5090707230659184e+03  1.3581663313955851e+03  1.2072622470167621e+03  1.0563585920724079e+03  9.0545556079173627e+02  7.5455344173381877e+02  6.0365294633912083e+02  4.5275398475736523e+02  3.0186470237433844e+02  1.5100001893842074e+02  3.0504525891252594e-02  3.2138695771312832e+04  3.2110597352346002e+04  3.2082182584041537e+04  3.2051585025047967e+04  3.2021059956639358e+04  3.1989233962560273e+04  3.1957149123441952e+04  3.1924831397143913e+04  3.1892177373898852e+04  3.1860366225998343e+04  3.1828722965005760e+04  3.1793482273250633e+04  3.1743180193389744e+04  3.1680487662560517e+04  3.1611394399144276e+04  3.1543392274626836e+04  3.1484040452634301e+04  3.1428288646909165e+04  2.2751564737786644e+04  2.2562169841738792e+04  2.2391922003387255e+04  2.2227669875415184e+04  2.2067023198999981e+04  2.1908800948120068e+04  2.1752297442236526e+04  2.1597048612252056e+04  2.1442735429282129e+04  2.1289132043404825e+04  2.1136074812363662e+04  2.0983442819984506e+04  2.0831145201170300e+04  2.0679112674070610e+04  2.0527291750444387e+04  2.0375640693050664e+04  2.0224126637814494e+04  2.0072723508435130e+04  1.9921410480444047e+04  1.9770170833088301e+04  1.9618991079585187e+04  1.9467860300344139e+04  1.9316769626352103e+04  1.9165711835162492e+04  1.9014681032369484e+04  1.8863672398709085e+04  1.8712681988049273e+04  1.8561706565194123e+04  1.8410743475082611e+04  1.8259790536913359e+04  1.8108845958177106e+04  1.7957908264670441e+04  1.7806976243394703e+04  1.7656048895882428e+04  1.7505125399988832e+04  1.7354205078573417e+04  1.7203287373802163e+04  1.7052371826043254e+04  1.6901458056522624e+04  1.6750545753061066e+04  1.6599634658339553e+04  1.6448724560240735e+04  1.6297815283896536e+04  1.6146906685138745e+04  1.5995998645103744e+04  1.5845091065787248e+04  1.5694183866381123e+04  1.5543276980254348e+04  1.5392370352464593e+04  1.5241463937706891e+04  1.5090557698622652e+04  1.4939651604405512e+04  1.4788745629651883e+04  1.4637839753413255e+04  1.4486933958414800e+04  1.4336028230411033e+04  1.4185122557654542e+04  1.4034216930457871e+04  1.3883311340832292e+04  1.3732405782189910e+04  1.3581500249097999e+04  1.3430594737076464e+04  1.3279689242430763e+04  1.3128783762114183e+04  1.2977878293614245e+04  1.2826972834859009e+04  1.2676067384139842e+04  1.2525161940047721e+04  1.2374256501420670e+04  1.2223351067300484e+04  1.2072445636896966e+04  1.1921540209558498e+04  1.1770634784747706e+04  1.1619729362021473e+04  1.1468823941014398e+04  1.1317918521425159e+04  1.1167013103005303e+04  1.1016107685549967e+04  1.0865202268890251e+04  1.0714296852886915e+04  1.0563391437425189e+04  1.0412486022410494e+04  1.0261580607764934e+04  1.0110675193424338e+04  9.9597697793359348e+03  9.8088643654563493e+03  9.6579589517499844e+03  9.5070535381877035e+03  9.3561481247457505e+03  9.2052427114048442e+03  9.0543372981494740e+03  8.9034318849673164e+03  8.7525264718487851e+03  8.6016210587866553e+03  8.4507156457758156e+03  8.2998102328130590e+03  8.1489048198969749e+03  7.9979994070278844e+03  7.8470939942078785e+03  7.6961885814408688e+03  7.5452831687327416e+03  7.3943777560915742e+03  7.2434723435279566e+03  7.0925669310553667e+03  6.9416615186906711e+03  6.7907561064547735e+03  6.6398506943733873e+03  6.4889452824779883e+03  6.3380398708069997e+03  6.1871344594072434e+03  6.0362290483356819e+03  5.8853236376615550e+03  5.7344182274689811e+03  5.5835128178601562e+03  5.4326074089591584e+03  5.2817020009166763e+03  5.1307965939157293e+03  4.9798911881786225e+03  4.8289857839754595e+03  4.6780803816345342e+03  4.5271749815550456e+03  4.3762695842226840e+03  4.2253641902287518e+03  4.0744588002937458e+03  3.9235534152964779e+03  3.7726480363101609e+03  3.6217426646473564e+03  3.4708373019162445e+03  3.3199319500914953e+03  3.1690266116040843e+03  3.0181212894561941e+03  2.8672159873694750e+03  2.7163107099784156e+03  2.5654054630856576e+03  2.4145002540036821e+03  2.2635950920190544e+03  2.1126899890337968e+03  1.9617849604679195e+03  1.8108800265551879e+03  1.6599752142443365e+03  1.5090705600540928e+03  1.3581661144740353e+03  1.2072619488908551e+03  1.0563581670575304e+03  9.0545492277996925e+02  7.5455245932290381e+02  6.0365113996850118e+02  4.5275160959570582e+02  3.0185741378312150e+02  1.5095887923300742e+02  -2.4393847477272223e-03  3.2137647432394740e+04  3.2109386942111589e+04  3.2080577909827261e+04  3.2050635949400472e+04  3.2020138315339849e+04  3.1988916552652925e+04  3.1957315178794692e+04  3.1925511988778366e+04  3.1893665072349519e+04  3.1862272946369139e+04  3.1830961258184059e+04  3.1800407612429612e+04  2.3136074331035899e+04  2.3085188090829375e+04  2.3032096752025132e+04  3.1539164542291801e+04  3.1481046693144886e+04  3.1419313502824472e+04  2.2737206403492317e+04  2.2554472249951377e+04  2.2386767560750792e+04  2.2224190282587231e+04  2.2064624413963589e+04  2.1907105845164449e+04  2.1751070647179924e+04  2.1596141563715140e+04  2.1442052333470398e+04  2.1288609541956062e+04  2.1135669915729413e+04  2.0983125643338859e+04  2.0830894500790848e+04  2.0678913040856598e+04  2.0527131803968452e+04  2.0375511892964947e+04  2.0224022484577108e+04  2.0072638994805999e+04  1.9921341707813182e+04  1.9770114738259173e+04  1.9618945236943466e+04  1.9467822776380581e+04  1.9316738871151490e+04  1.9165686600406687e+04  1.9014660308642313e+04  1.8863655367050709e+04  1.8712667982168063e+04  1.8561695041746851e+04  1.8410733990130611e+04  1.8259782727154092e+04  1.8108839525901647e+04  1.7957902965651541e+04  1.7806971877096210e+04  1.7656045297518787e+04  1.7505122434067191e+04  1.7354202633629029e+04  1.7203285358098277e+04  1.7052370164052951e+04  1.6901456686046553e+04  1.6750544622863385e+04  1.6599633726207157e+04  1.6448723791388675e+04  1.6297814649657064e+04  1.6146906161882946e+04  1.5995998213354107e+04  1.5845090709487095e+04  1.5694183572292985e+04  1.5543276737464434e+04  1.5392370151974495e+04  1.5241463772097197e+04  1.5090557561775689e+04  1.4939651491276827e+04  1.4788745536081906e+04  1.4637839675972007e+04  1.4486933894273892e+04  1.4336028177238133e+04  1.4185122513526330e+04  1.4034216893788333e+04  1.3883311310313542e+04  1.3732405756743410e+04  1.3581500227834342e+04  1.3430594719262201e+04  1.3279689227461053e+04  1.3128783749490256e+04  1.2977878282924772e+04  1.2826972825764791e+04  1.2676067376361163e+04  1.2525161933353904e+04  1.2374256495621488e+04  1.2223351062239060e+04  1.2072445632443932e+04  1.1921540205607169e+04  1.1770634781210099e+04  1.1619729358825027e+04  1.1468823938099275e+04  1.1317918518742004e+04  1.1167013100513417e+04  1.1016107683215776e+04  1.0865202266686061e+04  1.0714296850789879e+04  1.0563391435416452e+04  1.0412486020474505e+04  1.0261580605888832e+04  1.0110675191597515e+04  9.9597697775496144e+03  9.8088643637032565e+03  9.6579589500240945e+03  9.5070535364839998e+03  9.3561481230600457e+03  9.2052427097336222e+03  9.0543372964897571e+03  8.9034318833165544e+03  8.7525264702047643e+03  8.6016210571474148e+03  8.4507156441395673e+03  8.2998102311781313e+03  8.1489048182617416e+03  7.9979994053907167e+03  7.8470939925670618e+03  7.6961885797945597e+03  7.5452831670788892e+03  7.3943777544278500e+03  7.2434723418516587e+03  7.0925669293633246e+03  6.9416615169791294e+03  6.7907561047192439e+03  6.6398506926084829e+03  6.4889452806772269e+03  6.3380398689625545e+03  6.1871344575096437e+03  6.0362290463734689e+03  5.8853236356208354e+03  5.7344182253329027e+03  5.5835128156082656e+03  5.4326074065666198e+03  5.2817019983533073e+03  5.1307965911448309e+03  4.9798911851555504e+03  4.8289857806458404e+03  4.6780803779320968e+03  4.5271749773989304e+03  4.3762695795140880e+03  4.2253641848467614e+03  4.0744587940901029e+03  3.9235534080889729e+03  3.7726480278742356e+03  3.6217426547053442e+03  3.4708372901234402e+03  3.3199319360179484e+03  3.1690265947104945e+03  3.0181212690615907e+03  2.8672159626072380e+03  2.7163106797354840e+03  2.5654054259170098e+03  2.4145002080097670e+03  2.2635950