<?xml version="1.0"?>
<VTKFile type="UnstructuredGrid"  version="0.1"  >
<UnstructuredGrid>
<Piece  NumberOfPoints="21400" NumberOfCells="42336">
<Points>
<DataArray  type="Float64"  NumberOfComponents="3"  format="ascii">0 0 0  0.004583333333333333 0 0  0.009166666666666667 0 0  0.01375 0 0  0.01833333333333333 0 0  0.02291666666666667 0 0  0.0275 0 0  0.03208333333333334 0 0  0.03666666666666667 0 0  0.04125 0 0  0.04583333333333334 0 0  0.05041666666666667 0 0  0.055 0 0  0.05958333333333334 0 0  0.06416666666666668 0 0  0.06875000000000001 0 0  0.07333333333333333 0 0  0.07791666666666666 0 0  0.08249999999999999 0 0  0.08708333333333333 0 0  0.09166666666666667 0 0  0.09625000000000002 0 0  0.1008333333333333 0 0  0.1054166666666667 0 0  0.11 0 0  0.1145833333333333 0 0  0.1191666666666667 0 0  0.12375 0 0  0.1283333333333334 0 0  0.1329166666666667 0 0  0.1375 0 0  0.1420833333333333 0 0  0.1466666666666667 0 0  0.15125 0 0  0.1558333333333333 0 0  0.1604166666666667 0 0  0.165 0 0  0.1695833333333333 0 0  0.1741666666666667 0 0  0.17875 0 0  0.1833333333333333 0 0  0.1879166666666667 0 0  0.1925 0 0  0.1970833333333333 0 0  0.2016666666666667 0 0  0.20625 0 0  0.2108333333333333 0 0  0.2154166666666666 0 0  0.22 0 0  0.2245833333333334 0 0  0.2291666666666667 0 0  0.23375 0 0  0.2383333333333333 0 0  0.2429166666666667 0 0  0.2475 0 0  0.2520833333333333 0 0  0.2566666666666667 0 0  0.26125 0 0  0.2658333333333334 0 0  0.2704166666666666 0 0  0.275 0 0  0.2795833333333334 0 0  0.2841666666666667 0 0  0.28875 0 0  0.2933333333333333 0 0  0.2979166666666667 0 0  0.3025 0 0  0.3070833333333334 0 0  0.3116666666666666 0 0  0.31625 0 0  0.3208333333333333 0 0  0.3254166666666667 0 0  0.33 0 0  0.3345833333333333 0 0  0.3391666666666667 0 0  0.34375 0 0  0.3483333333333333 0 0  0.3529166666666667 0 0  0.3575 0 0  0.3620833333333333 0 0  0.3666666666666667 0 0  0.37125 0 0  0.3758333333333334 0 0  0.3804166666666667 0 0  0.3850000000000001 0 0  0.3895833333333333 0 0  0.3941666666666667 0 0  0.39875 0 0  0.4033333333333334 0 0  0.4079166666666666 0 0  0.4125 0 0  0.4170833333333334 0 0  0.4216666666666667 0 0  0.42625 0 0  0.4308333333333333 0 0  0.4354166666666667 0 0  0.44 0 0  0.4445833333333333 0 0  0.4491666666666667 0 0  0.45375 0 0  0.4583333333333333 0 0  0.4629166666666666 0 0  0.4675 0 0  0.4720833333333334 0 0  0.4766666666666667 0 0  0.4812500000000001 0 0  0.4858333333333333 0 0  0.4904166666666667 0 0  0.495 0 0  0.4995833333333334 0 0  0.5041666666666667 0 0  0.50875 0 0  0.5133333333333334 0 0  0.5179166666666667 0 0  0.5225 0 0  0.5270833333333333 0 0  0.5316666666666667 0 0  0.53625 0 0  0.5408333333333333 0 0  0.5454166666666667 0 0  0.55 0 0  0.5545833333333333 0 0  0.5591666666666667 0 0  0.5637500000000001 0 0  0.5683333333333334 0 0  0.5729166666666666 0 0  0.5775 0 0  0.5820833333333334 0 0  0.5866666666666667 0 0  0.5912499999999999 0 0  0.5958333333333334 0 0  0.6004166666666667 0 0  0.605 0 0  0.6095833333333334 0 0  0.6141666666666667 0 0  0.61875 0 0  0.6233333333333333 0 0  0.6279166666666667 0 0  0.6325000000000001 0 0  0.6370833333333333 0 0  0.6416666666666666 0 0  0.64625 0 0  0.6508333333333334 0 0  0.6554166666666666 0 0  0.6599999999999999 0 0  0.6645833333333334 0 0  0.6691666666666667 0 0  0.67375 0 0  0.6783333333333333 0 0  0.6829166666666667 0 0  0.6875 0 0  0.6920833333333333 0 0  0.6966666666666667 0 0  0.70125 0 0  0.7058333333333333 0 0  0.7104166666666667 0 0  0.7150000000000001 0 0  0.7195833333333334 0 0  0.7241666666666666 0 0  0.72875 0 0  0.7333333333333334 0 0  0.7379166666666667 0 0  0.7425 0 0  0.7470833333333333 0 0  0.7516666666666667 0 0  0.75625 0 0  0.7608333333333334 0 0  0.7654166666666666 0 0  0.7700000000000001 0 0  0 0.002380952380952381 0  0.004583333333333333 0.002380952380952381 0  0.009166666666666667 0.002380952380952381 0  0.01375 0.002380952380952381 0  0.01833333333333333 0.002380952380952381 0  0.02291666666666667 0.002380952380952381 0  0.0275 0.002380952380952381 0  0.03208333333333334 0.002380952380952381 0  0.03666666666666667 0.002380952380952381 0  0.04125 0.002380952380952381 0  0.04583333333333334 0.002380952380952381 0  0.05041666666666667 0.002380952380952381 0  0.055 0.002380952380952381 0  0.05958333333333334 0.002380952380952381 0  0.06416666666666668 0.002380952380952381 0  0.06875000000000001 0.002380952380952381 0  0.07333333333333333 0.002380952380952381 0  0.07791666666666666 0.002380952380952381 0  0.08249999999999999 0.002380952380952381 0  0.08708333333333333 0.002380952380952381 0  0.09166666666666667 0.002380952380952381 0  0.09625000000000002 0.002380952380952381 0  0.1008333333333333 0.002380952380952381 0  0.1054166666666667 0.002380952380952381 0  0.11 0.002380952380952381 0  0.1145833333333333 0.002380952380952381 0  0.1191666666666667 0.002380952380952381 0  0.12375 0.002380952380952381 0  0.1283333333333334 0.002380952380952381 0  0.1329166666666667 0.002380952380952381 0  0.1375 0.002380952380952381 0  0.1420833333333333 0.002380952380952381 0  0.1466666666666667 0.002380952380952381 0  0.15125 0.002380952380952381 0  0.1558333333333333 0.002380952380952381 0  0.1604166666666667 0.002380952380952381 0  0.165 0.002380952380952381 0  0.1695833333333333 0.002380952380952381 0  0.1741666666666667 0.002380952380952381 0  0.17875 0.002380952380952381 0  0.1833333333333333 0.002380952380952381 0  0.1879166666666667 0.002380952380952381 0  0.1925 0.002380952380952381 0  0.1970833333333333 0.002380952380952381 0  0.2016666666666667 0.002380952380952381 0  0.20625 0.002380952380952381 0  0.2108333333333333 0.002380952380952381 0  0.2154166666666666 0.002380952380952381 0  0.22 0.002380952380952381 0  0.2245833333333334 0.002380952380952381 0  0.2291666666666667 0.002380952380952381 0  0.23375 0.002380952380952381 0  0.2383333333333333 0.002380952380952381 0  0.2429166666666667 0.002380952380952381 0  0.2475 0.002380952380952381 0  0.2520833333333333 0.002380952380952381 0  0.2566666666666667 0.002380952380952381 0  0.26125 0.002380952380952381 0  0.2658333333333334 0.002380952380952381 0  0.2704166666666666 0.002380952380952381 0  0.275 0.002380952380952381 0  0.2795833333333334 0.002380952380952381 0  0.2841666666666667 0.002380952380952381 0  0.28875 0.002380952380952381 0  0.2933333333333333 0.002380952380952381 0  0.2979166666666667 0.002380952380952381 0  0.3025 0.002380952380952381 0  0.3070833333333334 0.002380952380952381 0  0.3116666666666666 0.002380952380952381 0  0.31625 0.002380952380952381 0  0.3208333333333333 0.002380952380952381 0  0.3254166666666667 0.002380952380952381 0  0.33 0.002380952380952381 0  0.3345833333333333 0.002380952380952381 0  0.3391666666666667 0.002380952380952381 0  0.34375 0.002380952380952381 0  0.3483333333333333 0.002380952380952381 0  0.3529166666666667 0.002380952380952381 0  0.3575 0.002380952380952381 0  0.3620833333333333 0.002380952380952381 0  0.3666666666666667 0.002380952380952381 0  0.37125 0.002380952380952381 0  0.3758333333333334 0.002380952380952381 0  0.3804166666666667 0.002380952380952381 0  0.3850000000000001 0.002380952380952381 0  0.3895833333333333 0.002380952380952381 0  0.3941666666666667 0.002380952380952381 0  0.39875 0.002380952380952381 0  0.4033333333333334 0.002380952380952381 0  0.4079166666666666 0.002380952380952381 0  0.4125 0.002380952380952381 0  0.4170833333333334 0.002380952380952381 0  0.4216666666666667 0.002380952380952381 0  0.42625 0.002380952380952381 0  0.4308333333333333 0.002380952380952381 0  0.4354166666666667 0.002380952380952381 0  0.44 0.002380952380952381 0  0.4445833333333333 0.002380952380952381 0  0.4491666666666667 0.002380952380952381 0  0.45375 0.002380952380952381 0  0.4583333333333333 0.002380952380952381 0  0.4629166666666666 0.002380952380952381 0  0.4675 0.002380952380952381 0  0.4720833333333334 0.002380952380952381 0  0.4766666666666667 0.002380952380952381 0  0.4812500000000001 0.002380952380952381 0  0.4858333333333333 0.002380952380952381 0  0.4904166666666667 0.002380952380952381 0  0.495 0.002380952380952381 0  0.4995833333333334 0.002380952380952381 0  0.5041666666666667 0.002380952380952381 0  0.50875 0.002380952380952381 0  0.5133333333333334 0.002380952380952381 0  0.5179166666666667 0.002380952380952381 0  0.5225 0.002380952380952381 0  0.5270833333333333 0.002380952380952381 0  0.5316666666666667 0.002380952380952381 0  0.53625 0.002380952380952381 0  0.5408333333333333 0.002380952380952381 0  0.5454166666666667 0.002380952380952381 0  0.55 0.002380952380952381 0  0.5545833333333333 0.002380952380952381 0  0.5591666666666667 0.002380952380952381 0  0.5637500000000001 0.002380952380952381 0  0.5683333333333334 0.002380952380952381 0  0.5729166666666666 0.002380952380952381 0  0.5775 0.002380952380952381 0  0.5820833333333334 0.002380952380952381 0  0.5866666666666667 0.002380952380952381 0  0.5912499999999999 0.002380952380952381 0  0.5958333333333334 0.002380952380952381 0  0.6004166666666667 0.002380952380952381 0  0.605 0.002380952380952381 0  0.6095833333333334 0.002380952380952381 0  0.6141666666666667 0.002380952380952381 0  0.61875 0.002380952380952381 0  0.6233333333333333 0.002380952380952381 0  0.6279166666666667 0.002380952380952381 0  0.6325000000000001 0.002380952380952381 0  0.6370833333333333 0.002380952380952381 0  0.6416666666666666 0.002380952380952381 0  0.64625 0.002380952380952381 0  0.6508333333333334 0.002380952380952381 0  0.6554166666666666 0.002380952380952381 0  0.6599999999999999 0.002380952380952381 0  0.6645833333333334 0.002380952380952381 0  0.6691666666666667 0.002380952380952381 0  0.67375 0.002380952380952381 0  0.6783333333333333 0.002380952380952381 0  0.6829166666666667 0.002380952380952381 0  0.6875 0.002380952380952381 0  0.6920833333333333 0.002380952380952381 0  0.6966666666666667 0.002380952380952381 0  0.70125 0.002380952380952381 0  0.7058333333333333 0.002380952380952381 0  0.7104166666666667 0.002380952380952381 0  0.7150000000000001 0.002380952380952381 
[...]
<PointData  Scalars="pressure"> 
<DataArray  type="Float64"  Name="pressure"  format="ascii">3.3600423704857072e+04  3.3570753403815121e+04  3.3544003166365394e+04  3.3516039031623528e+04  3.3481724144046610e+04  3.3443011897438824e+04  3.3409693109911830e+04  2.4265365825249177e+04  2.4143498436080310e+04  2.3995099199030581e+04  2.3843689875868196e+04  2.3692554031043121e+04  2.3541508816387013e+04  2.3390521185640497e+04  2.3239564725877230e+04  2.3088626240618534e+04  2.2937698552090405e+04  2.2786777630259028e+04  2.2635861111453563e+04  2.2484947554711060e+04  2.2334036049841205e+04  2.2183126003226836e+04  2.2032217016384711e+04  2.1881308814781412e+04  2.1730401204809896e+04  2.1579494047046464e+04  2.1428587239193836e+04  2.1277680704939710e+04  2.1126774386516940e+04  2.0975868239631938e+04  2.0824962229940382e+04  2.0674056330553587e+04  2.0523150520244177e+04  2.0372244782134476e+04  2.0221339102723807e+04  2.0070433471157376e+04  1.9919527878669924e+04  1.9768622318157824e+04  1.9617716783846579e+04  1.9466811271030183e+04  1.9315905775865333e+04  1.9165000295207727e+04  1.9014094826481218e+04  1.8863189367572570e+04  1.8712283916746539e+04  1.8561378472577097e+04  1.8410473033891532e+04  1.8259567599724880e+04  1.8108662169282776e+04  1.7957756741911002e+04  1.7806851317070657e+04  1.7655945894317640e+04  1.7505040473285950e+04  1.7354135053673861e+04  1.7203229635232623e+04  1.7052324217757119e+04  1.6901418801078220e+04  1.6750513385056409e+04  1.6599607969576638e+04  1.6448702554544026e+04  1.6297797139880284e+04  1.6146891725520845e+04  1.5995986311412456e+04  1.5845080897511178e+04  1.5694175483780757e+04  1.5543270070191300e+04  1.5392364656718144e+04  1.5241459243340920e+04  1.5090553830042854e+04  1.4939648416810096e+04  1.4788743003631218e+04  1.4637837590496789e+04  1.4486932177399036e+04  1.4336026764331544e+04  1.4185121351289023e+04  1.4034215938267107e+04  1.3883310525262203e+04  1.3732405112271324e+04  1.3581499699292031e+04  1.3430594286322310e+04  1.3279688873360490e+04  1.3128783460405197e+04  1.2977878047455320e+04  1.2826972634509923e+04  1.2676067221568228e+04  1.2525161808629640e+04  1.2374256395693636e+04  1.2223350982759799e+04  1.2072445569827798e+04  1.1921540156897396e+04  1.1770634743968356e+04  1.1619729331040531e+04  1.1468823918113827e+04  1.1317918505188165e+04  1.1167013092263522e+04  1.1016107679339902e+04  1.0865202266417356e+04  1.0714296853495976e+04  1.0563391440575890e+04  1.0412486027657276e+04  1.0261580614740369e+04  1.0110675201825470e+04  9.9597697889129468e+03  9.8088643760032683e+03  9.6579589630969913e+03  9.5070535501948198e+03  9.3561481372975959e+03  9.2052427244063510e+03  9.0543373115223476e+03  8.9034318986470953e+03  8.7525264857824604e+03  8.6016210729306840e+03  8.4507156600944872e+03  8.2998102472771898e+03  8.1489048344827952e+03  7.9979994217161702e+03  7.8470940089832184e+03  7.6961885962911010e+03  7.5452831836484984e+03  7.3943777710659360e+03  7.2434723585561851e+03  7.0925669461347325e+03  6.9416615338203592e+03  6.7907561216358463e+03  6.6398507096088288e+03  6.4889452977728124e+03  6.3380398861684516e+03  6.1871344748450610e+03  6.0362290638624709e+03  5.8853236532932679e+03  5.7344182432255202e+03  5.5835128337661372e+03  5.4326074250448628e+03  5.2817020172192142e+03  5.1307966104804855e+03  4.9798912050610443e+03  4.8289858012432487e+03  4.6780803993703739e+03  4.5271749998599753e+03  4.3762696032202912e+03  4.2253642100704219e+03  4.0744588211652544e+03  3.9235534374263207e+03  3.7726480599801666e+03  3.6217426902063166e+03  3.4708373297975932e+03  3.3199319808364944e+03  3.1690266458925926e+03  3.0181213281480727e+03  2.8672160315611450e+03  2.7163107610813913e+03  2.5654055229375649e+03  2.4145003250282971e+03  2.2635951774619693e+03  2.1126900933176398e+03  1.9617850897416538e+03  1.8108801895680210e+03  1.6599754237801526e+03  1.5090708353757336e+03  1.3581664856196660e+03  1.2072624648921264e+03  1.0563589098517994e+03  9.0545605295031555e+02  7.5455417551915230e+02  6.0365472288182480e+02  4.5275236540222153e+02  3.0190539317211659e+02  1.5056425484241623e+02  4.2690987424018623e+00  3.3598760437740406e+04  3.3570436696479177e+04  3.3544621965139951e+04  3.3515231958389093e+04  2.4387924213392958e+04  2.4361973844338550e+04  2.4336544841147130e+04  2.4271637930632856e+04  2.4146206150268197e+04  2.3994956263009793e+04  2.3843680999604276e+04  2.3692541826977969e+04  2.3541502857009080e+04  2.3390517801294976e+04  2.3239562755636100e+04  2.3088625036881407e+04  2.2937697786920384e+04  2.2786777126318386e+04  2.2635860769304774e+04  2.2484947316332178e+04  2.2334035880151383e+04  2.2183125880310698e+04  2.2032216926137055e+04  2.1881308747872939e+04  2.1730401154914165e+04  2.1579494009774295e+04  2.1428587211435803e+04  2.1277680684450763e+04  2.1126774371647880e+04  2.0975868229152293e+04  2.0824962222919210e+04  2.0674056326277820e+04  2.0523150518161565e+04  2.0372244781813282e+04  2.0221339103823673e+04  2.0070433473408033e+04  1.9919527881855454e+04  1.9768622322104839e+04  1.9617716788415193e+04  1.9466811276107157e+04  1.9315905781358659e+04  1.9165000301042499e+04  1.9014094832596289e+04  1.8863189373917932e+04  1.8712283923281258e+04  1.8561378479267602e+04  1.8410473040710251e+04  1.8259567606649183e+04  1.8108662176294038e+04  1.7957756748993921e+04  1.7806851324212621e+04  1.7655945901508276e+04  1.7505040480516705e+04  1.7354135060937697e+04  1.7203229642523736e+04  1.7052324225070723e+04  1.6901418808410370e+04  1.6750513392403860e+04  1.6599607976936710e+04  1.6448702561914499e+04  1.6297797147259345e+04  1.6146891732906988e+04  1.5995986318804442e+04  1.5845080904907982e+04  1.5694175491181535e+04  1.5543270077595356e+04  1.5392364664124898e+04  1.5241459250749909e+04  1.5090553837453686e+04  1.4939648424222441e+04  1.4788743011044817e+04  1.4637837597911421e+04  1.4486932184814525e+04  1.4336026771747735e+04  1.4185121358705794e+04  1.4034215945684356e+04  1.3883310532679840e+04  1.3732405119689287e+04  1.3581499706710263e+04  1.3430594293740765e+04  1.3279688880779126e+04  1.3128783467823987e+04  1.2977878054874231e+04  1.2826972641928931e+04  1.2676067228987324e+04  1.2525161816048801e+04  1.2374256403112853e+04  1.2223350990179060e+04  1.2072445577247101e+04  1.1921540164316717e+04  1.1770634751387703e+04  1.1619729338459896e+04  1.1468823925533201e+04  1.1317918512607543e+04  1.1167013099682903e+04  1.1016107686759280e+04  1.0865202273836729e+04  1.0714296860915332e+04  1.0563391447995227e+04  1.0412486035076590e+04  1.0261580622159654e+04  1.0110675209244715e+04  9.9597697963321389e+03  9.8088643834223985e+03  9.6579589705160506e+03  9.5070535576137827e+03  9.3561481447164497e+03  9.2052427318250720e+03  9.0543373189409012e+03  8.9034319060654525e+03  8.7525264932005757e+03  8.6016210803485028e+03  8.4507156675119531e+03  8.2998102546942227e+03  8.1489048418993034e+03  7.9979994291320399e+03  7.8470940163983178e+03  7.6961886037052636e+03  7.5452831910615268e+03  7.3943777784775857e+03  7.2434723659661631e+03  7.0925669535426878e+03  6.9416615412258579e+03  6.7907561290383665e+03  6.6398507170077337e+03  6.4889453051673363e+03  6.3380398935576577e+03  6.1871344822278161e+03  6.0362290712373997e+03  5.8853236606586979e+03  5.7344182505794242e+03  5.5835128411060550e+03  5.4326074323677967e+03  5.2817020245215272e+03  5.1307966177577473e+03  4.9798912123078653e+03  4.8289858084530651e+03  4.6780804065351804e+03  4.5271750069699992e+03  4.3762696102635900e+03  4.2253642170323701e+03  4.0744588280279063e+03  3.9235534441676023e+03  3.7726480665728491e+03  3.6217426966166936e+03  3.4708373359837615e+03  3.3199319867461008e+03  3.1690266514598379e+03  3.0181213332896741e+03  2.8672160361708102e+03  2.7163107650221314e+03  2.5654055260307987e+03  2.4145003270381017e+03  2.2635951780718265e+03  2.1126900920952444e+03  1.9617850860842782e+03  1.8108801826150873e+03  1.6599754122695040e+03  1.5090708173917062e+03  1.3581664581894518e+03  1.2072624228502737e+03  1.0563588467288414e+03  9.0545593698870209e+02  7.5455411128698358e+02  6.0365354200128957e+02  4.5275922197212174e+02  3.0184260143696679e+02  1.5112639414229051e+02  -2.3169241560907583e-01  3.3597584863860990e+04  3.3569525898447035e+04  3.3542825810025344e+04  3.3510292120132464e+04  3.3475068344688028e+04  3.3442789926303129e+04  3.3407133843541735e+04  3.3337076698969657e+04  2.4149634028082022e+04  2.3994803245970492e+04  2.3843623336449680e+04  2.3692504868029431e+04  2.3541483213064555e+04  2.3390506834840304e+04  2.3239556358577072e+04  2.3088621134779605e+04  2.2937695307531329e+04  2.2786775492242894e+04  2.2635859656778957e+04  2.2484946536804036e+04  2.2334035319914801e+04  2.2183125468573904e+04  2.2032216617522092e+04  2.1881308512504675e+04  2.1730400972635474e+04  2.1579493866674751e+04  2.1428587097714819e+04  2.1277680593070887e+04  2.1126774297467273e+04  2.0975868168354467e+04  2.0824962172630800e+04  2.0674056284307742e+04  2.0523150482820049e+04  2.0372244751784052e+04  2.0221339078072437e+04  2.0070433451115892e+04  1.9919527862369821e+04  1.9768622304902736e+04  1.9617716773075528e+04  1.9466811262289462e+04  1.9315905768786790e+04  1.9165000289491796e+04  1.9014094821883544e+04  1.8863189363893471e+04  1.8712283913822550e+04  1.8561378470274249e+04  1.8410473032099868e+04  1.8259567598354100e+04  1.8108662168258652e+04  1.7957756741172481e+04  1.7806851316567492e+04  1.7655945894008459e+04  1.7505040473136683e+04  1.7354135053656446e+04  1.7203229635323922e+04  1.7052324217938076e+04  1.6901418801333104e+04  1.6750513385372276e+04  1.6599607969942808e+04  1.6448702554951677e+04  1.6297797140322153e+04  1.6146891725990949e+04  1.5995986311905848e+04  1.5845080898023773e+04  1.5694175484309200e+04  1.5543270070732813e+04  1.5392364657270438e+04  1.5241459243902111e+04  1.5090553830611387e+04  1.4939648417384680e+04  1.4788743004210794e+04  1.4637837591080486e+04  1.4486932177986133e+04  1.4336026764921446e+04  1.4185121351881238e+04  1.4034215938861231e+04  1.3883310525857893e+04  1.3732405112868315e+04  1.3581499699890090e+04  1.3430594286921252e+04  1.3279688873960158e+04  1.3128783461005467e+04  1.2977878048056080e+04  1.2826972635111075e+04  1.2676067222169722e+04  1.2525161809231398e+04  1.2374256396295612e+04  1.2223350983361957e+04  1.2072445570430102e+04  1.1921540157499800e+04  1.1770634744570845e+04  1.1619729331643084e+04  1.1468823918716418e+04  1.1317918505790774e+04  1.1167013092866129e+04  1.1016107679942492e+04  1.0865202267019909e+04  1.0714296854098468e+04  1.0563391441178297e+04  1.0412486028259573e+04  1.0261580615342526e+04  1.0110675202427445e+04  9.9597697895147012e+03  9.8088643766047480e+03  9.6579589636981382e+03  9.5070535507955574e+03  9.3561481378978388e+03  9.2052427250059936e+03  9.0543373121212517e+03  8.9034318992451117e+03  8.7525264863793946e+03  8.6016210735263030e+03  8.4507156606885164e+03  8.2998102478692890e+03  8.1489048350725516e+03  7.9979994223030862e+03  7.8470940095666865e+03  7.6961885968703918e+03  7.5452831842227197e+03  7.3943777716340101e+03  7.2434723591168013e+03  7.0925669466863092e+03  6.9416615343609683e+03  6.7907561221631549e+03  6.6398507101200039e+03  6.4889452982644189e+03  6.3380398866363175e+03  6.1871344752841278e+03  6.0362290642665976e+03  5.8853236536549912e+03  5.7344182435357907e+03  5.5835128340139554e+03  5.4326074252168619e+03  5.2817020172991442e+03  5.1307966104485804e+03  4.9798912048932434e+03  4.8289858009102518e+03  4.6780803988364478e+03  4.5271749990815060e+03  4.3762696021439651e+03  4.2253642086309655e+03  4.0744588192825781e+03  3.9235534350019275e+03  3.7726480568925649e+03  3.6217426863051305e+03  3.4708373248959101e+03  3.3199319747008344e+03  3.1690266382295777e+03  3.0181213185864704e+03  2.8672160196273126e+03  2.7163107461651339e+03  2.5654055042437972e+03  2.4145003015072389e+03  2.2635951477061490e+03  2.1126900554062809e+03  1.9617850409993816e+03  1.8108801261797241e+03  1.6599753401564205e+03  1.5090707230660303e+03  1.3581663313956931e+03  1.2072622470168619e+03  1.0563585920724965e+03  9.0545556079181085e+02  7.5455344173387630e+02  6.0365294633915869e+02  4.5275398475738075e+02  3.0186470237432025e+02  1.5100001893833669e+02  3.0504525910469774e-02  3.3596447564530368e+04  3.3568344523934364e+04  3.3539893222904269e+04  3.3508646798936294e+04  3.3475647871262074e+04  3.3442972458653152e+04  3.3409064638209209e+04  2.4289238781072021e+04  2.4147894925798693e+04  2.3994782688775940e+04  2.3843503715899726e+04  2.3692447827341268e+04  2.3541451839747820e+04  2.3390489268008416e+04  2.3239546025645446e+04  2.3088614789650681e+04  2.2937691253212415e+04  2.2786772807833040e+04  2.2635857822055699e+04  2.2484945246890242e+04  2.2334034389988708e+04  2.2183124783071202e+04  2.2032216102104510e+04  2.1881308118091143e+04  2.1730400666034409e+04  2.1579493624938641e+04  2.1428586904652540e+04  2.1277680437042847e+04  2.1126774169961605e+04  2.0975868063048845e+04  2.0824962084762727e+04  2.0674056210244136e+04  2.0523150419758123e+04  2.0372244697540038e+04  2.0221339030930063e+04  2.0070433409716123e+04  1.9919527825629491e+04  1.9768622271953740e+04  1.9617716743218807e+04  1.9466811234959849e+04  1.9315905743525793e+04  1.9165000265926417e+04  1.9014094799709615e+04  1.8863189342862435e+04  1.8712283893731008e+04  1.8561378450955464e+04  1.8410473013417050e+04  1.8259567580194896e+04  1.8108662150530698e+04  1.7957756723799834e+04  1.7806851299487633e+04  1.7655945877169936e+04  1.7505040456497110e+04  1.7354135037180899e+04  1.7203229618983631e+04  1.7052324201709325e+04  1.6901418785196343e+04  1.6750513369311386e+04  1.6599607953944495e+04  1.6448702539004986e+04  1.6297797124418043e+04  1.6146891710121963e+04  1.5995986296065832e+04  1.5845080882207660e+04  1.5694175468512803e+04  1.5543270054952682e+04  1.5392364641503724e+04  1.5241459228146468e+04  1.5090553814864879e+04  1.4939648401645707e+04  1.4788742988478034e+04  1.4637837575352853e+04  1.4486932162262734e+04  1.4336026749201541e+04  1.4185121336164208e+04  1.4034215923146570e+04  1.3883310510145189e+04  1.3732405097157227e+04  1.3581499684180335e+04  1.3430594271212596e+04  1.3279688858252404e+04  1.3128783445298457e+04  1.2977878032349679e+04  1.2826972619405180e+04  1.2676067206464239e+04  1.2525161793526249e+04  1.2374256380590734e+04  1.2223350967657298e+04  1.2072445554725618e+04  1.1921540141795454e+04  1.1770634728866600e+04  1.1619729315938916e+04  1.1468823903012293e+04  1.1317918490086666e+04  1.1167013077162019e+04  1.1016107664238350e+04  1.0865202251315712e+04  1.0714296838394190e+04  1.0563391425473905e+04  1.0412486012555033e+04  1.0261580599637799e+04  1.0110675186722481e+04  9.9597697738094430e+03  9.8088643608991279e+03  9.6579589479920742e+03  9.5070535350889531e+03  9.3561481221905815e+03  9.2052427092979342e+03  9.0543372964122227e+03  8.9034318835349022e+03  8.7525264706677553e+03  8.6016210578129285e+03  8.4507156449730373e+03  8.2998102321512524e+03  8.1489048193514145e+03  7.9979994065781866e+03  7.8470939938372303e+03  7.6961885811354050e+03  7.5452831684810271e+03  7.3943777558841839e+03  7.2434723433571098e+03  7.0925669309146533e+03  6.9416615185748069e+03  6.7907561063593930e+03  6.6398506942948934e+03  6.4889452824134169e+03  6.3380398707539061e+03  6.1871344593636104e+03  6.0362290482998478e+03  5.8853236376321474e+03  5.7344182274448694e+03  5.5835128178404084e+03  5.4326074089430031e+03  5.2817020009034795e+03  5.1307965939049691e+03  4.9798911881698668e+03  4.8289857839683527e+03  4.6780803816287817e+03  4.5271749815504072e+03  4.3762695842189587e+03  4.2253641902257759e+03  4.0744588002913838e+03  3.9235534152946170e+03  3.7726480363087094e+03  3.6217426646462400e+03  3.4708373019153987e+03  3.3199319500908682e+03  3.1690266116036337e+03  3.0181212894558862e+03  2.8672159873692785e+03  2.7163107099783078e+03  2.5654054630856185e+03  2.4145002540036958e+03  2.2635950920191067e+03  2.1126899890338773e+03  1.9617849604680187e+03  1.8108800265552979e+03  1.6599752142444515e+03  1.5090705600542069e+03  1.3581661144741456e+03  1.2072619488909572e+03  1.0563581670576214e+03  9.0545492278004542e+02  7.5455245932296339e+02  6.0365113996854154e+02  4.5275160959572378e+02  3.0185741378310837e+02  1.5095887923297522e+02  -2.4393847623252157e-03  3.3595321032291882e+04  3.3567034999378571e+04  3.3538068119906013e+04  3.3507466735388058e+04  3.3475683788475901e+04  3.3443642387602398e+04  3.3412574094092968e+04  2.4292660071159196e+04  2.4144864668073657e+04  2.3994487694039799e+04  2.3843360680128124e+04  2.3692374499797705e+04  2.3541412249231103e+04  2.3390466710394798e+04  2.3239532591792926e+04  2.3088606449683681e+04  2.2937685879475219e+04  2.2786769228180634e+04  2.2635855365907242e+04  2.2484943516902953e+04  2.2334033143030138e+04  2.2183123865910653e+04  2.2032215415510949e+04  2.1881307596172974e+04  2.1730400264013697e+04  2.1579493311727638e+04  2.1428586658237491e+04  2.1277680241549278e+04  2.1126774013749633e+04  2.0975867937452920e+04  2.0824961983242280e+04  2.0674056127801214e+04  2.0523150352531378e+04  2.0372244642517206e+04  2.0221338985741248e+04  2.0070433372483025e+04  1.9919527794853959e+04  1.9768622246434301e+04  1.9617716721987465e+04  1.9466811217233630e+04  1.9315905728669284e+04  1.9165000253422524e+04  1.9014094789136547e+04  1.8863189333875478e+04  1.8712283886047961e+04  1.8561378444345017e+04  1.8410473007689376e+04  1.8259567575194065e+04  1.8108662146128543e+04  1.7957756719890931e+04  1.7806851295985220e+04  1.7655945874002573e+04  1.7505040453605958e+04  1.7354135034517487e+04  1.7203229616508015e+04  1.7052324199388579e+04  1.6901418783003319e+04  1.6750513367223703e+04  1.6599607951943701e+04  1.6448702537075867e+04  1.6297797122548040e+04  1.6146891708300731e+04  1.5995986294284832e+04  1.5845080880459849e+04  1.5694175466792367e+04  1.5543270053254839e+04  1.5392364639824515e+04  1.5241459226482628e+04  1.5090553813213717e+04  1.4939648400005006e+04  1.4788742986845971e+04  1.4637837573727906e+04  1.4486932160643664e+04  1.4336026747587310e+04  1.4185121334553980e+04  1.4034215921539640e+04  1.3883310508540981e+04  1.3732405095555256e+04  1.3581499682580212e+04  1.3430594269613994e+04  1.3279688856655055e+04  1.3128783443702143e+04  1.2977878030754213e+04  1.2826972617810416e+04  1.2676067204870040e+04  1.2525161791932522e+04  1.2374256378997379e+04  1.2223350966064248e+04  1.2072445553132815e+04  1.1921540140202836e+04  1.1770634727274120e+04  1.1619729314346538e+04  1.1468823901419977e+04  1.1317918488494382e+04  1.1167013075569726e+04  1.1016107662646014e+04  1.0865202249723301e+04  1.0714296836801661e+04  1.0563391423881216e+04  1.0412486010962133e+04  1.0261580598044635e+04  1.0110675185128985e+04  9.9597697722155372e+03  9.8088643593047127e+03  9.6579589463970424e+03  9.5070535334931647e+03  9.3561481205938690e+03  9.2052427077000975e+03  9.0543372948130236e+03  8.9034318819340497e+03  8.7525264690648928e+03  8.6016210562076285e+03  8.4507156433647797e+03  8.2998102305394059e+03  8.1489048177352206e+03  7.9979994049567167e+03  7.8470939922093576e+03  7.6961885794997697e+03  7.5452831668359786e+03  7.3943777542277176e+03  7.2434723416867973e+03  7.0925669292275506e+03  6.9416615168673361e+03  6.7907561046272212e+03  6.6398506925327601e+03  6.4889452806149402e+03  6.3380398689113435e+03  6.1871344574675650e+03  6.0362290463389145e+03  5.8853236355924828e+03  5.7344182253096606e+03  5.5835128155892353e+03  5.4326074065510556e+03  5.2817019983405989e+03  5.1307965911344754e+03  4.9798911851471257e+03  4.8289857806390073e+03  4.6780803779265725e+03  4.5271749773944775e+03  4.3762695795105165e+03  4.2253641848439129e+03  4.0744587940878459e+03  3.9235534080871976e+03  3.7726480278728563e+03  3.6217426547042865e+03  3.4708372901226430e+03  3.3199319360173617e+03  3.1690265947100770e+03  3.0181212690613079e+03  2.8672159626070638e+03  2.7163106797353953e+03  2.5654054259169861e+03  2.4145002080097938e+03  2.2635950