<?xml version="1.0"?>
<VTKFile type="UnstructuredGrid"  version="0.1"  >
<UnstructuredGrid>
<Piece  NumberOfPoints="21400" NumberOfCells="42336">
<Points>
<DataArray  type="Float64"  NumberOfComponents="3"  format="ascii">0 0 0  0.004583333333333333 0 0  0.009166666666666667 0 0  0.01375 0 0  0.01833333333333333 0 0  0.02291666666666667 0 0  0.0275 0 0  0.03208333333333334 0 0  0.03666666666666667 0 0  0.04125 0 0  0.04583333333333334 0 0  0.05041666666666667 0 0  0.055 0 0  0.05958333333333334 0 0  0.06416666666666668 0 0  0.06875000000000001 0 0  0.07333333333333333 0 0  0.07791666666666666 0 0  0.08249999999999999 0 0  0.08708333333333333 0 0  0.09166666666666667 0 0  0.09625000000000002 0 0  0.1008333333333333 0 0  0.1054166666666667 0 0  0.11 0 0  0.1145833333333333 0 0  0.1191666666666667 0 0  0.12375 0 0  0.1283333333333334 0 0  0.1329166666666667 0 0  0.1375 0 0  0.1420833333333333 0 0  0.1466666666666667 0 0  0.15125 0 0  0.1558333333333333 0 0  0.1604166666666667 0 0  0.165 0 0  0.1695833333333333 0 0  0.1741666666666667 0 0  0.17875 0 0  0.1833333333333333 0 0  0.1879166666666667 0 0  0.1925 0 0  0.1970833333333333 0 0  0.2016666666666667 0 0  0.20625 0 0  0.2108333333333333 0 0  0.2154166666666666 0 0  0.22 0 0  0.2245833333333334 0 0  0.2291666666666667 0 0  0.23375 0 0  0.2383333333333333 0 0  0.2429166666666667 0 0  0.2475 0 0  0.2520833333333333 0 0  0.2566666666666667 0 0  0.26125 0 0  0.2658333333333334 0 0  0.2704166666666666 0 0  0.275 0 0  0.2795833333333334 0 0  0.2841666666666667 0 0  0.28875 0 0  0.2933333333333333 0 0  0.2979166666666667 0 0  0.3025 0 0  0.3070833333333334 0 0  0.3116666666666666 0 0  0.31625 0 0  0.3208333333333333 0 0  0.3254166666666667 0 0  0.33 0 0  0.3345833333333333 0 0  0.3391666666666667 0 0  0.34375 0 0  0.3483333333333333 0 0  0.3529166666666667 0 0  0.3575 0 0  0.3620833333333333 0 0  0.3666666666666667 0 0  0.37125 0 0  0.3758333333333334 0 0  0.3804166666666667 0 0  0.3850000000000001 0 0  0.3895833333333333 0 0  0.3941666666666667 0 0  0.39875 0 0  0.4033333333333334 0 0  0.4079166666666666 0 0  0.4125 0 0  0.4170833333333334 0 0  0.4216666666666667 0 0  0.42625 0 0  0.4308333333333333 0 0  0.4354166666666667 0 0  0.44 0 0  0.4445833333333333 0 0  0.4491666666666667 0 0  0.45375 0 0  0.4583333333333333 0 0  0.4629166666666666 0 0  0.4675 0 0  0.4720833333333334 0 0  0.4766666666666667 0 0  0.4812500000000001 0 0  0.4858333333333333 0 0  0.4904166666666667 0 0  0.495 0 0  0.4995833333333334 0 0  0.5041666666666667 0 0  0.50875 0 0  0.5133333333333334 0 0  0.5179166666666667 0 0  0.5225 0 0  0.5270833333333333 0 0  0.5316666666666667 0 0  0.53625 0 0  0.5408333333333333 0 0  0.5454166666666667 0 0  0.55 0 0  0.5545833333333333 0 0  0.5591666666666667 0 0  0.5637500000000001 0 0  0.5683333333333334 0 0  0.5729166666666666 0 0  0.5775 0 0  0.5820833333333334 0 0  0.5866666666666667 0 0  0.5912499999999999 0 0  0.5958333333333334 0 0  0.6004166666666667 0 0  0.605 0 0  0.6095833333333334 0 0  0.6141666666666667 0 0  0.61875 0 0  0.6233333333333333 0 0  0.6279166666666667 0 0  0.6325000000000001 0 0  0.6370833333333333 0 0  0.6416666666666666 0 0  0.64625 0 0  0.6508333333333334 0 0  0.6554166666666666 0 0  0.6599999999999999 0 0  0.6645833333333334 0 0  0.6691666666666667 0 0  0.67375 0 0  0.6783333333333333 0 0  0.6829166666666667 0 0  0.6875 0 0  0.6920833333333333 0 0  0.6966666666666667 0 0  0.70125 0 0  0.7058333333333333 0 0  0.7104166666666667 0 0  0.7150000000000001 0 0  0.7195833333333334 0 0  0.7241666666666666 0 0  0.72875 0 0  0.7333333333333334 0 0  0.7379166666666667 0 0  0.7425 0 0  0.7470833333333333 0 0  0.7516666666666667 0 0  0.75625 0 0  0.7608333333333334 0 0  0.7654166666666666 0 0  0.7700000000000001 0 0  0 0.002380952380952381 0  0.004583333333333333 0.002380952380952381 0  0.009166666666666667 0.002380952380952381 0  0.01375 0.002380952380952381 0  0.01833333333333333 0.002380952380952381 0  0.02291666666666667 0.002380952380952381 0  0.0275 0.002380952380952381 0  0.03208333333333334 0.002380952380952381 0  0.03666666666666667 0.002380952380952381 0  0.04125 0.002380952380952381 0  0.04583333333333334 0.002380952380952381 0  0.05041666666666667 0.002380952380952381 0  0.055 0.002380952380952381 0  0.05958333333333334 0.002380952380952381 0  0.06416666666666668 0.002380952380952381 0  0.06875000000000001 0.002380952380952381 0  0.07333333333333333 0.002380952380952381 0  0.07791666666666666 0.002380952380952381 0  0.08249999999999999 0.002380952380952381 0  0.08708333333333333 0.002380952380952381 0  0.09166666666666667 0.002380952380952381 0  0.09625000000000002 0.002380952380952381 0  0.1008333333333333 0.002380952380952381 0  0.1054166666666667 0.002380952380952381 0  0.11 0.002380952380952381 0  0.1145833333333333 0.002380952380952381 0  0.1191666666666667 0.002380952380952381 0  0.12375 0.002380952380952381 0  0.1283333333333334 0.002380952380952381 0  0.1329166666666667 0.002380952380952381 0  0.1375 0.002380952380952381 0  0.1420833333333333 0.002380952380952381 0  0.1466666666666667 0.002380952380952381 0  0.15125 0.002380952380952381 0  0.1558333333333333 0.002380952380952381 0  0.1604166666666667 0.002380952380952381 0  0.165 0.002380952380952381 0  0.1695833333333333 0.002380952380952381 0  0.1741666666666667 0.002380952380952381 0  0.17875 0.002380952380952381 0  0.1833333333333333 0.002380952380952381 0  0.1879166666666667 0.002380952380952381 0  0.1925 0.002380952380952381 0  0.1970833333333333 0.002380952380952381 0  0.2016666666666667 0.002380952380952381 0  0.20625 0.002380952380952381 0  0.2108333333333333 0.002380952380952381 0  0.2154166666666666 0.002380952380952381 0  0.22 0.002380952380952381 0  0.2245833333333334 0.002380952380952381 0  0.2291666666666667 0.002380952380952381 0  0.23375 0.002380952380952381 0  0.2383333333333333 0.002380952380952381 0  0.2429166666666667 0.002380952380952381 0  0.2475 0.002380952380952381 0  0.2520833333333333 0.002380952380952381 0  0.2566666666666667 0.002380952380952381 0  0.26125 0.002380952380952381 0  0.2658333333333334 0.002380952380952381 0  0.2704166666666666 0.002380952380952381 0  0.275 0.002380952380952381 0  0.2795833333333334 0.002380952380952381 0  0.2841666666666667 0.002380952380952381 0  0.28875 0.002380952380952381 0  0.2933333333333333 0.002380952380952381 0  0.2979166666666667 0.002380952380952381 0  0.3025 0.002380952380952381 0  0.3070833333333334 0.002380952380952381 0  0.3116666666666666 0.002380952380952381 0  0.31625 0.002380952380952381 0  0.3208333333333333 0.002380952380952381 0  0.3254166666666667 0.002380952380952381 0  0.33 0.002380952380952381 0  0.3345833333333333 0.002380952380952381 0  0.3391666666666667 0.002380952380952381 0  0.34375 0.002380952380952381 0  0.3483333333333333 0.002380952380952381 0  0.3529166666666667 0.002380952380952381 0  0.3575 0.002380952380952381 0  0.3620833333333333 0.002380952380952381 0  0.3666666666666667 0.002380952380952381 0  0.37125 0.002380952380952381 0  0.3758333333333334 0.002380952380952381 0  0.3804166666666667 0.002380952380952381 0  0.3850000000000001 0.002380952380952381 0  0.3895833333333333 0.002380952380952381 0  0.3941666666666667 0.002380952380952381 0  0.39875 0.002380952380952381 0  0.4033333333333334 0.002380952380952381 0  0.4079166666666666 0.002380952380952381 0  0.4125 0.002380952380952381 0  0.4170833333333334 0.002380952380952381 0  0.4216666666666667 0.002380952380952381 0  0.42625 0.002380952380952381 0  0.4308333333333333 0.002380952380952381 0  0.4354166666666667 0.002380952380952381 0  0.44 0.002380952380952381 0  0.4445833333333333 0.002380952380952381 0  0.4491666666666667 0.002380952380952381 0  0.45375 0.002380952380952381 0  0.4583333333333333 0.002380952380952381 0  0.4629166666666666 0.002380952380952381 0  0.4675 0.002380952380952381 0  0.4720833333333334 0.002380952380952381 0  0.4766666666666667 0.002380952380952381 0  0.4812500000000001 0.002380952380952381 0  0.4858333333333333 0.002380952380952381 0  0.4904166666666667 0.002380952380952381 0  0.495 0.002380952380952381 0  0.4995833333333334 0.002380952380952381 0  0.5041666666666667 0.002380952380952381 0  0.50875 0.002380952380952381 0  0.5133333333333334 0.002380952380952381 0  0.5179166666666667 0.002380952380952381 0  0.5225 0.002380952380952381 0  0.5270833333333333 0.002380952380952381 0  0.5316666666666667 0.002380952380952381 0  0.53625 0.002380952380952381 0  0.5408333333333333 0.002380952380952381 0  0.5454166666666667 0.002380952380952381 0  0.55 0.002380952380952381 0  0.5545833333333333 0.002380952380952381 0  0.5591666666666667 0.002380952380952381 0  0.5637500000000001 0.002380952380952381 0  0.5683333333333334 0.002380952380952381 0  0.5729166666666666 0.002380952380952381 0  0.5775 0.002380952380952381 0  0.5820833333333334 0.002380952380952381 0  0.5866666666666667 0.002380952380952381 0  0.5912499999999999 0.002380952380952381 0  0.5958333333333334 0.002380952380952381 0  0.6004166666666667 0.002380952380952381 0  0.605 0.002380952380952381 0  0.6095833333333334 0.002380952380952381 0  0.6141666666666667 0.002380952380952381 0  0.61875 0.002380952380952381 0  0.6233333333333333 0.002380952380952381 0  0.6279166666666667 0.002380952380952381 0  0.6325000000000001 0.002380952380952381 0  0.6370833333333333 0.002380952380952381 0  0.6416666666666666 0.002380952380952381 0  0.64625 0.002380952380952381 0  0.6508333333333334 0.002380952380952381 0  0.6554166666666666 0.002380952380952381 0  0.6599999999999999 0.002380952380952381 0  0.6645833333333334 0.002380952380952381 0  0.6691666666666667 0.002380952380952381 0  0.67375 0.002380952380952381 0  0.6783333333333333 0.002380952380952381 0  0.6829166666666667 0.002380952380952381 0  0.6875 0.002380952380952381 0  0.6920833333333333 0.002380952380952381 0  0.6966666666666667 0.002380952380952381 0  0.70125 0.002380952380952381 0  0.7058333333333333 0.002380952380952381 0  0.7104166666666667 0.002380952380952381 0  0.7150000000000001 0.002380952380952381 
[...]
<PointData  Scalars="pressure"> 
<DataArray  type="Float64"  Name="pressure"  format="ascii">1.3987643163735995e+04  1.3957948096431297e+04  1.3930738503531606e+04  1.3902150091626781e+04  1.3872277527041719e+04  1.3836903241298651e+04  1.3804209513206068e+04  1.3771489388879361e+04  1.3735917328017906e+04  1.3706695178034532e+04  1.3682903151370940e+04  1.3656572025796011e+04  1.3629485890957021e+04  1.3602057696507474e+04  1.3574437692224110e+04  1.3546669201864965e+04  1.3518712659574330e+04  1.3490469069652638e+04  1.3461888389453547e+04  1.3433116868731067e+04  1.3404378608095798e+04  1.3375655697878929e+04  1.3346778107824146e+04  1.3317656086389885e+04  1.3288298567205256e+04  1.3258730474087499e+04  1.3229024943425642e+04  1.3199268404198521e+04  1.3169351577901391e+04  1.3139094346040280e+04  1.3108483141639263e+04  1.3077720235994866e+04  1.3047127696464881e+04  1.3017008413131720e+04  1.2987636557040158e+04  1.2959256797754391e+04  1.2936250726636883e+04  9.3965552609009592e+03  9.3740403795914099e+03  9.3538560125712975e+03  9.3292210352009279e+03  9.3062433952950305e+03  9.2839451504582939e+03  9.2617565457823639e+03  9.2396298183382078e+03  9.2174846059564225e+03  9.1952449815073378e+03  9.1729237684105410e+03  9.1504085394163048e+03  9.1277595639336905e+03  9.1048305364630287e+03  9.0817277665202982e+03  9.0582900006141444e+03  9.0345934098248490e+03  9.0094426760903789e+03  8.9827991419211721e+03  8.9545288171856937e+03  8.9258126672472445e+03  8.8987490810095551e+03  8.8664011193368915e+03  8.8352501917248646e+03  8.8027407997183836e+03  8.7685126619144285e+03  8.7325921655591283e+03  8.6950217177234790e+03  8.6561469031474335e+03  8.6156851154018314e+03  8.5719433982546616e+03  8.5259128643089243e+03  8.4791415182297369e+03  8.4321733329171548e+03  8.3857109384418090e+03  8.3382484936957699e+03  8.2978427829369248e+03  8.2654387563252112e+03  8.2322969646884358e+03  8.1998258645252281e+03  8.1678402280115761e+03  8.1355838031296425e+03  8.1038028576969746e+03  8.0721837245124279e+03  8.0412516020488547e+03  8.0105519667580229e+03  7.9804556061117710e+03  7.9500127697900280e+03  7.9194541201192715e+03  7.8892864180727565e+03  7.8595030788675440e+03  7.8300838292253202e+03  7.8009346924849078e+03  7.7720475246972737e+03  7.7433394075297510e+03  7.7148170873517820e+03  7.6864085179451622e+03  7.6581322923890602e+03  7.6299246572993352e+03  7.6018127774415434e+03  7.5737387940732742e+03  7.5457357925504193e+03  7.5177498908618163e+03  7.4898180271052670e+03  7.4618886306359818e+03  7.4340003958034449e+03  7.4061014181774653e+03  7.3782271961664728e+03  7.3503112387484180e+03  7.3223249814110213e+03  7.2940043643548952e+03  7.2651456876970005e+03  7.2357870606251990e+03  7.2059466047392752e+03  7.1755845790071289e+03  7.1446466832778697e+03  7.1130552283906673e+03  7.0807064217106272e+03  7.0474740030124713e+03  7.0132141947863056e+03  6.9778792933526338e+03  6.9419576074495053e+03  6.9061821612449903e+03  6.8699819160495517e+03  6.8331503763143819e+03  6.7971072162353521e+03  6.7335759521491127e+03  6.6022115380067316e+03  6.4525948687896662e+03  6.3052272258564462e+03  6.1594721952011323e+03  6.0136499243170501e+03  5.8671940954628208e+03  5.7199738795911207e+03  5.5720366619915740e+03  5.4234882679109942e+03  5.2744424060948013e+03  5.1250012403083392e+03  4.9752497884239529e+03  4.8252560987137867e+03  4.6750735169814607e+03  4.5247434199512591e+03  4.3742977572241125e+03  4.2237611861906807e+03  4.0731527756255305e+03  3.9224873272807595e+03  3.7717763851162185e+03  3.6210289997400464e+03  3.4702523056161999e+03  3.3194519570360580e+03  3.1686324583260857e+03  3.0177974150798350e+03  2.8669497263996354e+03  2.7160917329645417e+03  2.5652253318866660e+03  2.4143520664780854e+03  2.2634731969751961e+03  2.1125897567625002e+03  1.9617025975599545e+03  1.8108124262890583e+03  1.6599198358563374e+03  1.5090253318882069e+03  1.3581293575397574e+03  1.2072323194710966e+03  1.0563346174083608e+03  9.0543670387800148e+02  7.5453904578068659e+02  6.0364324659525016e+02  4.5274411358944712e+02  3.0190005649942373e+02  1.5056164242524395e+02  4.2690252338782839e+00  1.3985990653455960e+04  1.3957631454125263e+04  1.3931608599854464e+04  1.3900381084913228e+04  1.0104291491573227e+04  1.0079447246784837e+04  1.0055873617200859e+04  1.0032284079366422e+04  1.0007391235040735e+04  1.3707378639130748e+04  1.3683096107350309e+04  1.3656639276796612e+04  1.3629519941847248e+04  1.3602076750817438e+04  1.3574452374518138e+04  1.3546688277381792e+04  1.3518744362503563e+04  1.3490510076803743e+04  1.3461911662260642e+04  1.3433106778495221e+04  1.3404374015627403e+04  1.3375674896798913e+04  1.3346806763159884e+04  1.3317681264760615e+04  1.3288322398025199e+04  1.3258746869153105e+04  1.3229025164238206e+04  1.3199284414218246e+04  1.3169392312651667e+04  1.3139136963762778e+04  1.3108501823329196e+04  1.3077701137586680e+04  1.3047074293859388e+04  1.3016933448032789e+04  1.2987503446336472e+04  1.2959227549532143e+04  1.2933200882572781e+04  1.2899028036353538e+04  1.2868011448711441e+04  1.2840168664515795e+04  9.3289610107617445e+03  1.2775158852419569e+04  9.2839186676362606e+03  1.2714100138655234e+04  9.2396314408831404e+03  1.2653333741419741e+04  9.1952590554171511e+03  1.2592168588651703e+04  9.1504328736096904e+03  1.2530174670559814e+04  9.1048629898551826e+03  1.2466986352889542e+04  9.0583329138027293e+03  1.2402338031276804e+04  9.0097648827419398e+03  1.2331247483826202e+04  8.9546146535145472e+03  1.2252926858749521e+04  8.8980056754230245e+03  8.8663742351949932e+03  8.8354291122757841e+03  8.8029356696262985e+03  8.7686990947480044e+03  8.7327843259693964e+03  8.6951673617386750e+03  8.6562645595747799e+03  8.6161388904374726e+03  8.5721953079773593e+03  8.5259727437412712e+03  8.4791734955211996e+03  8.4321257956439622e+03  8.3855742497767078e+03  8.3393825030489115e+03  1.1391236615068761e+04  1.1346401772956946e+04  1.1300816991677009e+04  1.1256248592708471e+04  1.1212509886025002e+04  1.1168034713902973e+04  1.1124544028145154e+04  1.1080984180409436e+04  1.1038665732668444e+04  1.0996381189323263e+04  1.0955272685411010e+04  1.0913412951652035e+04  1.0871391889425393e+04  1.0829996330718684e+04  1.0789106173029388e+04  1.0748739642042823e+04  1.0708718025200198e+04  1.0669080950806203e+04  1.0629662677267801e+04  1.0590525435544974e+04  1.0551516768772097e+04  1.0512716569857221e+04  1.0473982589118787e+04  1.0435407435421630e+04  1.0396856134964117e+04  1.0358430066232486e+04  1.0319999161345619e+04  1.0281670530395411e+04  1.0243316926437303e+04  1.0205048256623548e+04  1.0166736662489526e+04  1.0128488263127987e+04  1.0090158096467707e+04  1.0051780890181682e+04  1.0012931130273764e+04  9.9733037706504128e+03  9.9329997934427520e+03  9.8920419201642526e+03  9.8503682158883057e+03  9.8079072087925470e+03  9.7645520939312701e+03  9.7201596505395646e+03  9.6745579742730370e+03  9.6275452933232955e+03  9.5789830619496661e+03  9.5295298008255031e+03  9.4805585792615948e+03  9.4308423976975446e+03  9.3801629470278967e+03  9.3303765543240497e+03  6.7414286518662411e+03  6.6033400883297336e+03  6.4520056609321909e+03  6.3050995343915356e+03  6.1594939339102775e+03  6.0137258407037116e+03  5.8672800664842562e+03  5.7200528640377124e+03  5.5721033428686678e+03  5.4235422658073749e+03  5.2744851916931639e+03  5.1250347702623094e+03  4.9752759432558769e+03  4.8252764868694576e+03  4.6750894390008880e+03  4.5247558961689174e+03  4.3743075750736598e+03  4.2237689483283466e+03  4.0731589418542176e+03  3.9224922485408642e+03  3.7717803299920670e+03  3.6210321746728446e+03  3.4702548701228211e+03  3.3194540350926991e+03  3.1686341468634373e+03  3.0177987903268863e+03  2.8669508486341942e+03  2.7160926500856608e+03  2.5652260821144196e+03  2.4143526804037201e+03  2.2634736991233590e+03  2.1125901667814314e+03  1.9617029311204292e+03  1.8108126957437842e+03  1.6599200506845507e+03  1.5090254989094976e+03  1.3581294808806153e+03  1.2072323997244234e+03  1.0563346527574026e+03  9.0543666630016446e+02  7.5453904280734082e+02  6.0364211218087166e+02  4.5275100342805501e+02  3.0183728742194023e+02  1.5112378259326604e+02  -2.3168753298059858e-01  1.3984835131601596e+04  1.3956768637873649e+04  1.3930144099802772e+04  1.3897425441814477e+04  1.3868406872060548e+04  1.3835910707682015e+04  1.3804223814094854e+04  1.3772535306573385e+04  1.3740057258786390e+04  1.3709685281153903e+04  1.3683634550316730e+04  1.3656870860891631e+04  1.3629632584975565e+04  1.3602140862161845e+04  1.3574501161532420e+04  1.3546751932346622e+04  1.3518854279263431e+04  1.3490660747081562e+04  1.3462000409949094e+04  1.3433056137506395e+04  1.3404353624358528e+04  1.3375746857018667e+04  1.3346910323050151e+04  1.3317766663804392e+04  1.3288406311590403e+04  1.3258810228308717e+04  1.3229012593110052e+04  1.3199338054977325e+04  1.3169540989178780e+04  1.3139291996667849e+04  1.3108570716143862e+04  1.3077633218932207e+04  1.3046886143507940e+04  1.3016664618727204e+04  1.2987135288714147e+04  1.2958458825193888e+04  1.2929873190819977e+04  1.2898438951301909e+04  1.2867658528363892e+04  1.2838669645160602e+04  1.2806169412853527e+04  1.2775062576587747e+04  1.2744486022475849e+04  1.2714080768780797e+04  1.2683736650589570e+04  1.2653337562138680e+04  1.2622847822010091e+04  1.2592188139158501e+04  1.2561332664949166e+04  1.2530208244683463e+04  1.2498792665954888e+04  1.2467027820534868e+04  1.2434916951078672e+04  1.2402493652115656e+04  1.2368994540805052e+04  1.2331413891794722e+04  1.2292652942846233e+04  1.2252941512124924e+04  1.2212939060867000e+04  1.2171465679872930e+04  1.2129277861641434e+04  1.2084692790565849e+04  1.2037656149525654e+04  1.1988381402500028e+04  1.1936687462708054e+04  1.1882900848574129e+04  1.1829163308407431e+04  1.1767965929356462e+04  1.1704112121871467e+04  1.1639846983438554e+04  1.1575200677246970e+04  1.1510542060580407e+04  1.1450109328030854e+04  1.1393008881075753e+04  1.1346102241151757e+04  1.1300685692541650e+04  1.1255934590228026e+04  1.1212907340796306e+04  1.1167581884740515e+04  1.1124799280081361e+04  1.1080499628070791e+04  1.1038895087375144e+04  1.0995899541885075e+04  1.0955608502815181e+04  1.0913411954984409e+04  1.0871233490473644e+04  1.0829918487722518e+04  1.0788983437034409e+04  1.0748693139003208e+04  1.0708621956990008e+04  1.0669059918159381e+04  1.0629586124367306e+04  1.0590522609157442e+04  1.0551453859471894e+04  1.0512726317240718e+04  1.0473929000448890e+04  1.0435425721424657e+04  1.0396808847477192e+04  1.0358454130124677e+04  1.0319956171527558e+04  1.0281698633229706e+04  1.0243277145750633e+04  1.0205079885201772e+04  1.0166700765472699e+04  1.0128526549689139e+04  1.0090136628341501e+04  1.0051884774513481e+04  1.0013095832898714e+04  9.9734309510804815e+03  9.9331252931256531e+03  9.8921823598999035e+03  9.8505208092097982e+03  9.8080809866102118e+03  9.7647541240768660e+03  9.7203947675246200e+03  9.6748332808930209e+03  9.6278679602853517e+03  9.5792232437801613e+03  9.5292759017783628e+03  9.4807888698404604e+03  9.4310476257442697e+03  9.3802754489179715e+03  9.3292541254080461e+03  9.2637776690387127e+03  6.6027491379674757e+03  6.4502709526064627e+03  6.3047056783247963e+03  6.1595955443104631e+03  6.0139994874171553e+03  5.8675818201475604e+03  5.7203275044000047e+03  5.5723341656038465e+03  5.4237287366343544e+03  5.2746327426945427e+03  5.1251503132221187e+03  4.9753660340116276e+03  4.8253466994997980e+03  4.6751442662961326e+03  4.5247988565809073e+03  4.3743413811158280e+03  4.2237956748243787e+03  4.0731801714024973e+03  3.9225091889836162e+03  3.7717939058079201e+03  3.6210430965728337e+03  3.4702636874070790e+03  3.3194611747951440e+03  3.1686399429577364e+03  3.0178035055356468e+03  2.8669546907624913e+03  2.7160957843065448e+03  2.5652286402560358e+03  2.4143547680041370e+03  2.2634754008084878e+03  2.1125915503641954e+03  1.9617040506988653e+03  1.8108135939768251e+03  1.6599207603290831e+03  1.5090260435913610e+03  1.3581298748582940e+03  1.2072326463112397e+03  1.0563347382379093e+03  9.0543656085453040e+02  7.5453858486300305e+02  6.0364167696596462e+02  4.5274588162662582e+02  3.0185946252828859e+02  1.5099744617496484e+02  3.0504872616273777e-02  1.3983714795369213e+04  1.3955651733407460e+04  1.3927361422554397e+04  1.3897006996899388e+04  1.3866851004408791e+04  1.3835566745628517e+04  1.3804224518876978e+04  1.3772910290316519e+04  1.3741624471469639e+04  1.3711896775965335e+04  1.3684414653061836e+04  1.3657218428220382e+04  1.3629809950898902e+04  1.3602242321591710e+04  1.3574576555694444e+04  1.3546850528947023e+04  1.3519040199867197e+04  1.3490952162647405e+04  1.3462197162459310e+04  1.3432889378264246e+04  1.3404306341529264e+04  1.3375893940087013e+04  1.3347106056553226e+04  1.3317902151996717e+04  1.3288550892002950e+04  1.3258959402450435e+04  1.3228921185802490e+04  1.3199427752918313e+04  1.3169827022746498e+04  1.3139585882576532e+04  1.3108705485893570e+04  1.3077509745609828e+04  1.3046547153790903e+04  1.3016207344591887e+04  1.2986550910802775e+04  1.2957373244601413e+04  1.2927925863702772e+04  1.2897321704814871e+04  1.2866826163526091e+04  1.2836862661126976e+04  1.2805750704709433e+04  1.2774902682699880e+04  1.2744419115005607e+04  1.2714070250914732e+04  1.2683750492369687e+04  1.2653379459672749e+04  1.2622903216758647e+04  1.2592267479772807e+04  1.2561424224416291e+04  1.2530322234861120e+04  1.2498914165653865e+04  1.2467160676256910e+04  1.2435047974323428e+04  1.2402612398207679e+04  1.2371075392458268e+04  1.2331537030254547e+04  1.2292980325636096e+04  1.2253406180012935e+04  1.2210337640859065e+04  1.2172112472623596e+04  1.2129986412628836e+04  1.2085462115668730e+04  1.2038330706701432e+04  1.1989057542177468e+04  1.1937677619850851e+04  1.1881994781647065e+04  1.1832556794130120e+04  1.1768227368856551e+04  1.1704289145121789e+04  1.1639817285769877e+04  1.1575755546740058e+04  1.1507863786943069e+04  1.1453526823788270e+04  1.1393769632812291e+04  1.1345367657961720e+04  1.1300707551986972e+04  1.1254349407503007e+04  1.1215108993825892e+04  1.1165211232213658e+04  1.1126706291787410e+04  1.1078083416769974e+04  1.1040713725505973e+04  1.0993549552719442e+04  1.0957327511935375e+04  1.0913177901793184e+04  1.0870808334127478e+04  1.0829840135724668e+04  1.0788607484575159e+04  1.0748695795177613e+04  1.0708301752945330e+04  1.0669124686314719e+04  1.0629306638975511e+04  1.0590631760706510e+04  1.0551202732553185e+04  1.0512866135313045e+04  1.0473697203670879e+04  1.0435586370738127e+04  1.0396590097840863e+04  1.0358628876594292e+04  1.0319746300357032e+04  1.0281883228427487e+04  1.0243073831081978e+04  1.0205272956860590e+04  1.0166505170916646e+04  1.0128735481835563e+04  1.0089966615252535e+04  1.0052197508047171e+04  1.0013444284849244e+04  9.9737160338745289e+03  9.9334007262914929e+03  9.8925000092385180e+03  9.8508606448935989e+03  9.8084698315677506e+03  9.7652076298824377e+03  9.7209207678127077e+03  9.6754542844608459e+03  9.6285636464484160e+03  9.5800690667201525e+03  9.5279813491972654e+03  9.4816522191188833e+03  9.4316380568858876e+03  9.3799124059523747e+03  9.3307726611436610e+03  6.7343082636890040e+03  6.5942618168680710e+03  6.4480248448388902e+03  6.3041995060211793e+03  6.1598614118294690e+03  6.0145057856270778e+03  5.8681134142270812e+03  5.7208024177461002e+03  5.5727297368108157e+03  5.4240467469312553e+03  5.2748836889635886e+03  5.1253465230089578e+03  4.9755189035660396e+03  4.8254658033156247e+03  4.6752372717677636e+03  4.5248717458411629e+03  4.3743987559005463e+03  4.2238410506821456e+03  4.0732162282297209e+03  3.9225379717073474e+03  3.7718169797766791e+03  3.6210616655428571e+03  3.4702786821448713e+03  3.3194733192534668e+03  3.1686498036249022e+03  3.0178115282819176e+03  2.8669612284396808e+03  2.7161011175149538e+03  2.5652329930511623e+03  2.4143583198357660e+03  2.2634782956290987e+03  2.1125939035787683e+03  1.9617059544260028e+03  1.8108151209258906e+03  1.6599219664426562e+03  1.5090269694152125e+03  1.3581305453310231e+03  1.2072330680069997e+03  1.0563348928420151e+03  9.0543638423112316e+02  7.5453796305769163e+02  6.0364014403437875e+02  4.5274370303542747e+02  3.0185230111354792e+02  1.5095636954031579e+02  -2.4384944260406986e-03  1.3982589105321009e+04  1.3954364406088134e+04  1.3925681380444952e+04  1.3895972682704434e+04  1.3865832305075914e+04  1.3835122307201658e+04  1.3804220701450862e+04  1.3773360227036756e+04  1.3742808082076039e+04  1.3713350978962597e+04  1.3685239510983220e+04  1.3657627556313673e+04  1.3630029986163461e+04  1.3602369351945841e+04  1.3574666423769564e+04  1.3546964562508387e+04  1.3519289857819947e+04  1.3491427436293834e+04  1.3462662357855917e+04  1.3432364790422840e+04  1.3404252484401059e+04  1.3376157872169177e+04  1.3347434763922460e+04  1.3318058896595572e+04  1.3288724055757692e+04  1.3259359264326507e+04  1.3228528228927800e+04  1.3199590040179090e+04  1.3170304427918552e+04  1.3140064562022520e+04  1.3108938644300428e+04  1.3077314008402813e+04  1.3046023888088466e+04  1.3015557819451751e+04  1.2985818039022630e+04  1.2956312402328378e+04  1.2926457968781444e+04  1.2896114742933540e+04  1.2865693155631594e+04  1.2835565036661501e+04  1.2805128211896385e+04  1.2774655594604243e+04  1.2744318755146511e+04  1.2714050599129368e+04  1.2683779557392943e+04  1.2653446765348919e+04  1.2623002825809996e+04  1.2592399223843093e+04  1.2561587158402470e+04  1.2530515196529672e+04  1.2499131433551325e+04  1.2467389459970089e+04  1.2435266978441745e+04  1.2402796557951098e+04  1.2371416191205066e+04  1.2332401566918867e+04  1.2294312086007738e+04  1.2254963479134936e+04  1.2211296289957361e+04  1.2173252502630685e+04  1.2131367404615368e+04  1.2086951031706654e+04  1.2039662491847161e+04  1.1989836812664911e+04  1.1941163998692062e+04  1.1878362872335909e+04  1.1833931084464086e+04  8.5725885551003084e+03  8.5278362137842287e+03  8.4781007520042003e+03  8.4358972954877026e+03  8.3816747398407097e+03  8.3431668781071676e+03  8.2985267982256373e+03  1.1341836213518412e+04  8.2323645372611827e+03  1.1255514074319295e+04  8.1675290359529727e+03  1.1164720124410404e+04  8.1025319703493287e+03  1.1077329402298228e+04  8.0399516386205723e+03  1.0992795925455244e+04  7.9792030234642052e+03  1.0913525090716452e+04  7.9157168930570588e+03  1.0830414485734984e+04  7.8562133408436339e+03  1.0749536578249432e+04  7.7980216972238186e+03  1.0670173498967541e+04  7.7406988326763567e+03  1.0591829675531571e+04  7.6839570786810673e+03  1.0514167238726810e+04  7.6276019152063918e+03  1.0436957637409601e+04  7.5715028082389808e+03  1.0360047649615361e+04  7.5155728283196913e+03  1.0283335164557406e+04  7.4597548196931129e+03  1.0206752988560869e+04  7.4040159649977895e+03  1.0130265495729132e+04  7.3483771727227040e+03  1.0054000491741725e+04  7.2942174026895291e+03  7.2673182147483894e+03  7.2374372780771801e+03  7.2079062067403993e+03  7.1777026043355499e+03  7.1470636159540227e+03  7.1158820330112630e+03  7.0839733552648577e+03  7.0513421427320527e+03  7.0177018390286285e+03  6.9828990402272584e+03  6.9434682658261381e+03  6.9095374948728950e+03  6.8724537729956055e+03  6.8331539855313777e+03  6.7907480414283964e+03  6.7067218913875658e+03  6.5835697099895960e+03  6.4454324582446952e+03  6.3039057634957690e+03  6.1604134019487119e+03  6.0152973727762428e+03  5.8688941160036293e+03  5.7214824982683031e+03  5.5732890597788746e+03  5.4244932768009585e+03  5.2752346639990028e+03  5.1256203472305679e+03  4.9757320146315897e+03  4.8256317815627526e+03  4.6753668920074269e+03  4.5249733690605462e+03  4.3744787932148220e+03  4.2239043911532763e+03  4.0732665955578618e+03  3.9225782066449838e+03  3.7718492572936229e+03  3.6210876590136158e+03  3.4702996863247190e+03  3.3194903419901198e+03  3.1686636342016295e+03  3.0178227884381054e+03  2.8669704105978799e+03  2.7161086135610612e+03  2.5652391161195410e+03  2.4143633208854390e+03  2.2634823