<?xml version="1.0"?>
<VTKFile type="UnstructuredGrid"  version="0.1"  >
<UnstructuredGrid>
<Piece  NumberOfPoints="21400" NumberOfCells="42336">
<Points>
<DataArray  type="Float64"  NumberOfComponents="3"  format="ascii">0 0 0  0.004583333333333333 0 0  0.009166666666666667 0 0  0.01375 0 0  0.01833333333333333 0 0  0.02291666666666667 0 0  0.0275 0 0  0.03208333333333334 0 0  0.03666666666666667 0 0  0.04125 0 0  0.04583333333333334 0 0  0.05041666666666667 0 0  0.055 0 0  0.05958333333333334 0 0  0.06416666666666668 0 0  0.06875000000000001 0 0  0.07333333333333333 0 0  0.07791666666666666 0 0  0.08249999999999999 0 0  0.08708333333333333 0 0  0.09166666666666667 0 0  0.09625000000000002 0 0  0.1008333333333333 0 0  0.1054166666666667 0 0  0.11 0 0  0.1145833333333333 0 0  0.1191666666666667 0 0  0.12375 0 0  0.1283333333333334 0 0  0.1329166666666667 0 0  0.1375 0 0  0.1420833333333333 0 0  0.1466666666666667 0 0  0.15125 0 0  0.1558333333333333 0 0  0.1604166666666667 0 0  0.165 0 0  0.1695833333333333 0 0  0.1741666666666667 0 0  0.17875 0 0  0.1833333333333333 0 0  0.1879166666666667 0 0  0.1925 0 0  0.1970833333333333 0 0  0.2016666666666667 0 0  0.20625 0 0  0.2108333333333333 0 0  0.2154166666666666 0 0  0.22 0 0  0.2245833333333334 0 0  0.2291666666666667 0 0  0.23375 0 0  0.2383333333333333 0 0  0.2429166666666667 0 0  0.2475 0 0  0.2520833333333333 0 0  0.2566666666666667 0 0  0.26125 0 0  0.2658333333333334 0 0  0.2704166666666666 0 0  0.275 0 0  0.2795833333333334 0 0  0.2841666666666667 0 0  0.28875 0 0  0.2933333333333333 0 0  0.2979166666666667 0 0  0.3025 0 0  0.3070833333333334 0 0  0.3116666666666666 0 0  0.31625 0 0  0.3208333333333333 0 0  0.3254166666666667 0 0  0.33 0 0  0.3345833333333333 0 0  0.3391666666666667 0 0  0.34375 0 0  0.3483333333333333 0 0  0.3529166666666667 0 0  0.3575 0 0  0.3620833333333333 0 0  0.3666666666666667 0 0  0.37125 0 0  0.3758333333333334 0 0  0.3804166666666667 0 0  0.3850000000000001 0 0  0.3895833333333333 0 0  0.3941666666666667 0 0  0.39875 0 0  0.4033333333333334 0 0  0.4079166666666666 0 0  0.4125 0 0  0.4170833333333334 0 0  0.4216666666666667 0 0  0.42625 0 0  0.4308333333333333 0 0  0.4354166666666667 0 0  0.44 0 0  0.4445833333333333 0 0  0.4491666666666667 0 0  0.45375 0 0  0.4583333333333333 0 0  0.4629166666666666 0 0  0.4675 0 0  0.4720833333333334 0 0  0.4766666666666667 0 0  0.4812500000000001 0 0  0.4858333333333333 0 0  0.4904166666666667 0 0  0.495 0 0  0.4995833333333334 0 0  0.5041666666666667 0 0  0.50875 0 0  0.5133333333333334 0 0  0.5179166666666667 0 0  0.5225 0 0  0.5270833333333333 0 0  0.5316666666666667 0 0  0.53625 0 0  0.5408333333333333 0 0  0.5454166666666667 0 0  0.55 0 0  0.5545833333333333 0 0  0.5591666666666667 0 0  0.5637500000000001 0 0  0.5683333333333334 0 0  0.5729166666666666 0 0  0.5775 0 0  0.5820833333333334 0 0  0.5866666666666667 0 0  0.5912499999999999 0 0  0.5958333333333334 0 0  0.6004166666666667 0 0  0.605 0 0  0.6095833333333334 0 0  0.6141666666666667 0 0  0.61875 0 0  0.6233333333333333 0 0  0.6279166666666667 0 0  0.6325000000000001 0 0  0.6370833333333333 0 0  0.6416666666666666 0 0  0.64625 0 0  0.6508333333333334 0 0  0.6554166666666666 0 0  0.6599999999999999 0 0  0.6645833333333334 0 0  0.6691666666666667 0 0  0.67375 0 0  0.6783333333333333 0 0  0.6829166666666667 0 0  0.6875 0 0  0.6920833333333333 0 0  0.6966666666666667 0 0  0.70125 0 0  0.7058333333333333 0 0  0.7104166666666667 0 0  0.7150000000000001 0 0  0.7195833333333334 0 0  0.7241666666666666 0 0  0.72875 0 0  0.7333333333333334 0 0  0.7379166666666667 0 0  0.7425 0 0  0.7470833333333333 0 0  0.7516666666666667 0 0  0.75625 0 0  0.7608333333333334 0 0  0.7654166666666666 0 0  0.7700000000000001 0 0  0 0.002380952380952381 0  0.004583333333333333 0.002380952380952381 0  0.009166666666666667 0.002380952380952381 0  0.01375 0.002380952380952381 0  0.01833333333333333 0.002380952380952381 0  0.02291666666666667 0.002380952380952381 0  0.0275 0.002380952380952381 0  0.03208333333333334 0.002380952380952381 0  0.03666666666666667 0.002380952380952381 0  0.04125 0.002380952380952381 0  0.04583333333333334 0.002380952380952381 0  0.05041666666666667 0.002380952380952381 0  0.055 0.002380952380952381 0  0.05958333333333334 0.002380952380952381 0  0.06416666666666668 0.002380952380952381 0  0.06875000000000001 0.002380952380952381 0  0.07333333333333333 0.002380952380952381 0  0.07791666666666666 0.002380952380952381 0  0.08249999999999999 0.002380952380952381 0  0.08708333333333333 0.002380952380952381 0  0.09166666666666667 0.002380952380952381 0  0.09625000000000002 0.002380952380952381 0  0.1008333333333333 0.002380952380952381 0  0.1054166666666667 0.002380952380952381 0  0.11 0.002380952380952381 0  0.1145833333333333 0.002380952380952381 0  0.1191666666666667 0.002380952380952381 0  0.12375 0.002380952380952381 0  0.1283333333333334 0.002380952380952381 0  0.1329166666666667 0.002380952380952381 0  0.1375 0.002380952380952381 0  0.1420833333333333 0.002380952380952381 0  0.1466666666666667 0.002380952380952381 0  0.15125 0.002380952380952381 0  0.1558333333333333 0.002380952380952381 0  0.1604166666666667 0.002380952380952381 0  0.165 0.002380952380952381 0  0.1695833333333333 0.002380952380952381 0  0.1741666666666667 0.002380952380952381 0  0.17875 0.002380952380952381 0  0.1833333333333333 0.002380952380952381 0  0.1879166666666667 0.002380952380952381 0  0.1925 0.002380952380952381 0  0.1970833333333333 0.002380952380952381 0  0.2016666666666667 0.002380952380952381 0  0.20625 0.002380952380952381 0  0.2108333333333333 0.002380952380952381 0  0.2154166666666666 0.002380952380952381 0  0.22 0.002380952380952381 0  0.2245833333333334 0.002380952380952381 0  0.2291666666666667 0.002380952380952381 0  0.23375 0.002380952380952381 0  0.2383333333333333 0.002380952380952381 0  0.2429166666666667 0.002380952380952381 0  0.2475 0.002380952380952381 0  0.2520833333333333 0.002380952380952381 0  0.2566666666666667 0.002380952380952381 0  0.26125 0.002380952380952381 0  0.2658333333333334 0.002380952380952381 0  0.2704166666666666 0.002380952380952381 0  0.275 0.002380952380952381 0  0.2795833333333334 0.002380952380952381 0  0.2841666666666667 0.002380952380952381 0  0.28875 0.002380952380952381 0  0.2933333333333333 0.002380952380952381 0  0.2979166666666667 0.002380952380952381 0  0.3025 0.002380952380952381 0  0.3070833333333334 0.002380952380952381 0  0.3116666666666666 0.002380952380952381 0  0.31625 0.002380952380952381 0  0.3208333333333333 0.002380952380952381 0  0.3254166666666667 0.002380952380952381 0  0.33 0.002380952380952381 0  0.3345833333333333 0.002380952380952381 0  0.3391666666666667 0.002380952380952381 0  0.34375 0.002380952380952381 0  0.3483333333333333 0.002380952380952381 0  0.3529166666666667 0.002380952380952381 0  0.3575 0.002380952380952381 0  0.3620833333333333 0.002380952380952381 0  0.3666666666666667 0.002380952380952381 0  0.37125 0.002380952380952381 0  0.3758333333333334 0.002380952380952381 0  0.3804166666666667 0.002380952380952381 0  0.3850000000000001 0.002380952380952381 0  0.3895833333333333 0.002380952380952381 0  0.3941666666666667 0.002380952380952381 0  0.39875 0.002380952380952381 0  0.4033333333333334 0.002380952380952381 0  0.4079166666666666 0.002380952380952381 0  0.4125 0.002380952380952381 0  0.4170833333333334 0.002380952380952381 0  0.4216666666666667 0.002380952380952381 0  0.42625 0.002380952380952381 0  0.4308333333333333 0.002380952380952381 0  0.4354166666666667 0.002380952380952381 0  0.44 0.002380952380952381 0  0.4445833333333333 0.002380952380952381 0  0.4491666666666667 0.002380952380952381 0  0.45375 0.002380952380952381 0  0.4583333333333333 0.002380952380952381 0  0.4629166666666666 0.002380952380952381 0  0.4675 0.002380952380952381 0  0.4720833333333334 0.002380952380952381 0  0.4766666666666667 0.002380952380952381 0  0.4812500000000001 0.002380952380952381 0  0.4858333333333333 0.002380952380952381 0  0.4904166666666667 0.002380952380952381 0  0.495 0.002380952380952381 0  0.4995833333333334 0.002380952380952381 0  0.5041666666666667 0.002380952380952381 0  0.50875 0.002380952380952381 0  0.5133333333333334 0.002380952380952381 0  0.5179166666666667 0.002380952380952381 0  0.5225 0.002380952380952381 0  0.5270833333333333 0.002380952380952381 0  0.5316666666666667 0.002380952380952381 0  0.53625 0.002380952380952381 0  0.5408333333333333 0.002380952380952381 0  0.5454166666666667 0.002380952380952381 0  0.55 0.002380952380952381 0  0.5545833333333333 0.002380952380952381 0  0.5591666666666667 0.002380952380952381 0  0.5637500000000001 0.002380952380952381 0  0.5683333333333334 0.002380952380952381 0  0.5729166666666666 0.002380952380952381 0  0.5775 0.002380952380952381 0  0.5820833333333334 0.002380952380952381 0  0.5866666666666667 0.002380952380952381 0  0.5912499999999999 0.002380952380952381 0  0.5958333333333334 0.002380952380952381 0  0.6004166666666667 0.002380952380952381 0  0.605 0.002380952380952381 0  0.6095833333333334 0.002380952380952381 0  0.6141666666666667 0.002380952380952381 0  0.61875 0.002380952380952381 0  0.6233333333333333 0.002380952380952381 0  0.6279166666666667 0.002380952380952381 0  0.6325000000000001 0.002380952380952381 0  0.6370833333333333 0.002380952380952381 0  0.6416666666666666 0.002380952380952381 0  0.64625 0.002380952380952381 0  0.6508333333333334 0.002380952380952381 0  0.6554166666666666 0.002380952380952381 0  0.6599999999999999 0.002380952380952381 0  0.6645833333333334 0.002380952380952381 0  0.6691666666666667 0.002380952380952381 0  0.67375 0.002380952380952381 0  0.6783333333333333 0.002380952380952381 0  0.6829166666666667 0.002380952380952381 0  0.6875 0.002380952380952381 0  0.6920833333333333 0.002380952380952381 0  0.6966666666666667 0.002380952380952381 0  0.70125 0.002380952380952381 0  0.7058333333333333 0.002380952380952381 0  0.7104166666666667 0.002380952380952381 0  0.7150000000000001 0.002380952380952381 
[...]
<PointData  Scalars="pressure"> 
<DataArray  type="Float64"  Name="pressure"  format="ascii">7.5256149073708066e+03  7.4959198226921753e+03  7.4687101670105249e+03  7.4401216431597068e+03  7.4102488943218141e+03  7.3748743104078694e+03  7.3421802087214965e+03  7.3094595931876484e+03  7.2738868479418161e+03  7.2446640174965414e+03  7.2208712834919706e+03  7.1945392069113941e+03  7.1674518783471067e+03  7.1400222032077418e+03  7.1124003663374206e+03  7.0846296046126599e+03  7.0566702392988300e+03  7.0284231361654320e+03  6.9998380969469727e+03  6.9710611963985848e+03  6.9423162927013818e+03  6.9135851213795650e+03  6.8846972245375546e+03  6.8555623776554439e+03  6.8261889382684330e+03  6.7966010598815055e+03  6.7668708326681926e+03  6.7370830964513261e+03  6.7071259466757056e+03  6.6768149865949290e+03  6.6461292937473618e+03  6.6152576731903455e+03  6.5844960000839746e+03  6.5540955653878964e+03  6.5241842024540547e+03  6.4948188904474337e+03  6.4661203490648504e+03  6.4383923283953609e+03  6.4132093045640313e+03  4.6543226026157927e+03  4.6261435437721357e+03  4.6026998245104087e+03  4.5804398562632705e+03  4.5584216054613362e+03  4.5366489961393372e+03  4.5149458409490071e+03  4.4933046073798378e+03  4.4716734967978955e+03  4.4500270938997855e+03  4.4283582719095893e+03  4.4066345628225454e+03  4.3848814661055540e+03  4.3630975383429777e+03  4.3412678867029026e+03  4.3185529229047988e+03  4.2947812820116587e+03  4.2701539842225693e+03  4.2455332999201783e+03  4.2230793116532259e+03  4.1970553797455732e+03  4.1730972987245523e+03  4.1492248707027247e+03  4.1251808915813463e+03  4.1008975242297392e+03  4.0761902674635585e+03  4.0510598059400563e+03  4.0254055083252238e+03  3.9984577059179510e+03  3.9707672859863260e+03  3.9435253559596194e+03  3.9174799571820326e+03  3.8914301194178424e+03  3.8627608989100713e+03  3.8370168653004075e+03  3.8143923295153681e+03  3.7893401917618071e+03  3.7649296828652223e+03  3.7417897880087912e+03  3.7193112412113624e+03  3.6964675694115185e+03  3.6722001464379687e+03  3.6464189040737024e+03  3.6192270023167957e+03  3.5917695649336342e+03  3.5638819318523861e+03  3.5361446269426465e+03  3.5079987599634264e+03  3.4795211131510009e+03  3.4500367740425677e+03  3.4196800423361815e+03  3.3880428317186188e+03  3.3558309229872966e+03  3.3229467195035863e+03  3.2902588360567129e+03  3.2575543916239226e+03  3.2255174012912094e+03  3.1937584546033290e+03  3.1627997648927017e+03  3.1321737312136611e+03  3.1022276884926728e+03  3.0719832554663199e+03  3.0416361574100006e+03  3.0116687274280744e+03  2.9820637638563394e+03  2.9527986017864314e+03  2.9237793985358021e+03  2.8950007151048453e+03  2.8663820408266497e+03  2.8379332621693443e+03  2.8095846366471051e+03  2.7813572624902904e+03  2.7531891450665303e+03  2.7251092673470848e+03  2.6970610488175939e+03  2.6690789019959170e+03  2.6411099587904960e+03  2.6131923161452046e+03  2.5852756176175731e+03  2.5574004342254420e+03  2.5295180927224683e+03  2.5016708131199402e+03  2.4738110428637328e+03  2.4459820954138613e+03  2.4181371613690799e+03  2.3903202768403180e+03  2.3624851242327231e+03  2.3346762161284664e+03  2.3068475599708586e+03  2.2790439811292408e+03  2.2512197002335688e+03  2.2234197439344916e+03  2.1955984660012259e+03  2.1678010097321485e+03  2.1399817889699743e+03  2.1121859721479591e+03  2.0843679158495406e+03  2.0565726237315662e+03  2.0287540333277391e+03  2.0009562101137055e+03  1.9731309422167635e+03  1.9453173179340556e+03  1.9174513574537375e+03  1.8895069609652401e+03  1.8612220275979103e+03  1.8323950151726790e+03  1.8030656002080384e+03  1.7732530723415152e+03  1.7429188220070162e+03  1.7120096416360752e+03  1.6804489088079097e+03  1.6481338960844002e+03  1.6149394435031588e+03  1.5807228978328430e+03  1.5454374587156431e+03  1.5095714212912596e+03  1.4738575051982009e+03  1.4377263590496884e+03  1.4009723805290516e+03  1.3650127579600833e+03  1.3016524620436035e+03  1.1706748400741769e+03  1.0215471174626939e+03  8.7473709767883929e+02  7.2963734145632316e+02  5.8460805098779429e+02  4.3912290626457104e+02  2.9316375686149792e+02  1.4631387844971096e+02  4.1500378186051110e+00  7.5239624017169190e+03  7.4956031846668629e+03  7.4695802713113653e+03  7.4383526334844319e+03  5.3969396552286653e+03  5.3720952002763970e+03  5.3485213035804973e+03  5.3249314151097815e+03  5.3000380992882274e+03  7.2453475112692113e+03  7.2210642635652266e+03  7.1946064836554087e+03  7.1674859599949923e+03  7.1400412952487959e+03  7.1124150956890071e+03  7.0846487393965090e+03  7.0567020166905058e+03  7.0284642347579093e+03  6.9998614791450254e+03  6.9710512405728987e+03  6.9423118743096584e+03  6.9136045413633092e+03  6.8847261508826832e+03  6.8555878873991796e+03  6.8262131832717332e+03  6.7966179779156373e+03  6.7668717383211215e+03  6.7371000675213463e+03  6.7071680819092571e+03  6.6768597484143274e+03  6.6461514822354993e+03  6.6152446303855922e+03  6.5844541178931859e+03  6.5540410318272934e+03  6.5241260016104761e+03  6.4947507499949943e+03  6.4660167772521572e+03  6.4382415793588671e+03  6.4123329128191317e+03  6.3872855880088573e+03  4.6257003535214481e+03  6.3183505471847220e+03  4.5803846482503550e+03  6.2575759071565217e+03  4.5366332837422124e+03  6.1979030046593734e+03  4.4933007033430040e+03  6.1385051398067926e+03  4.4500296342546280e+03  6.0790465929634702e+03  4.4066387597715275e+03  6.0193612427033586e+03  4.3630995112110650e+03  5.9595308198507755e+03  4.3187865809747291e+03  5.8957147045547599e+03  4.2701509140688195e+03  5.8280137454884907e+03  4.2223638696344797e+03  4.1969135065872015e+03  4.1731098321380923e+03  4.1492449818924642e+03  4.1252039239874221e+03  4.1009489401525052e+03  4.0762429467674865e+03  4.0510877781225768e+03  4.0255924437812641e+03  3.9985437434083742e+03  3.9707211105230867e+03  3.9433404654610595e+03  3.9174828683075302e+03  3.8916242439271946e+03  3.8636290728926374e+03  5.2677257915276541e+03  5.2365099607203329e+03  5.2016937597698588e+03  5.1681528724761793e+03  5.1364689728366093e+03  5.1057293760253551e+03  5.0745302993596424e+03  5.0411852944100538e+03  5.0058374945543992e+03  4.9682812301745753e+03  4.9307040269635099e+03  4.8922627860414987e+03  4.8543358398592982e+03  4.8156156716913747e+03  4.7766762985070873e+03  4.7361143690888666e+03  4.6945706947069211e+03  4.6509695752612024e+03  4.6068512151681725e+03  4.5615118124180017e+03  4.5167601993885382e+03  4.4716893536731641e+03  4.4278514262093522e+03  4.3841001522015431e+03  4.3417476122192593e+03  4.2995668178876567e+03  4.2586677711225138e+03  4.2170849076106633e+03  4.1753570890326719e+03  4.1342375861520750e+03  4.0935924284072134e+03  4.0534374578578913e+03  4.0135937825882766e+03  3.9741054132367835e+03  3.9348094827493101e+03  3.8957729785125098e+03  3.8568462581378481e+03  3.8181129527445614e+03  3.7794329747782372e+03  3.7409016295884585e+03  3.7023855216260063e+03  3.6639879818380527e+03  3.6255802106099172e+03  3.5872709783796390e+03  3.5489345985003583e+03  3.5106834906979307e+03  3.4723940563741012e+03  3.4341811457771864e+03  3.3959225517021578e+03  3.3577347349920474e+03  3.3194964119989272e+03  3.2813251071550817e+03  3.2431001488944971e+03  3.2049397621356507e+03  3.1667236807983463e+03  3.1285705889407923e+03  3.0903604873447644e+03  3.0522123552417779e+03  3.0140063604248662e+03  2.9758616545390678e+03  2.9376584790087186e+03  2.8995160306593966e+03  2.8613144692627438e+03  2.8231727852329627e+03  2.7849705821994644e+03  2.7468256659541389e+03  2.7086147859207590e+03  2.6704493246143916e+03  2.6321874750533084e+03  2.5938675367470541e+03  2.5550664791567096e+03  2.5154824137604260e+03  2.4752184081392734e+03  2.4342987391482411e+03  2.3926630365945171e+03  2.3502413240376359e+03  2.3069282591729348e+03  2.2625820778377356e+03  2.2170323846573119e+03  2.1700789687998072e+03  2.1215846390754064e+03  2.0722078892970176e+03  2.0233208216707169e+03  1.9736994622123389e+03  1.9231265631700169e+03  1.8734556931676429e+03  1.3094801077116911e+03  1.1717947050842586e+03  1.0209514424365276e+03  8.7459874566725887e+02  7.2964438811264927e+02  5.8466332494261508e+02  4.3919000181318347e+02  2.9314855344128063e+02  1.4688428795562743e+02  -2.2317687855433291e-01  7.5228068958285830e+03  7.4947403837291749e+03  7.4681157909577596e+03  7.4353970034878221e+03  7.4063782578754453e+03  7.3738818229621493e+03  7.3421945750612358e+03  7.3105056080743398e+03  7.2780269571533445e+03  7.2476542653596007e+03  7.2216027867590001e+03  7.1948381570108677e+03  7.1675987095658693e+03  7.1401055372356432e+03  7.1124640456078614e+03  7.0847125996499180e+03  7.0568121919071355e+03  7.0286152231723845e+03  6.9999506058257339e+03  6.9710010622958662e+03  6.9422920869553327e+03  6.9136772702660664e+03  6.8848306512186355e+03  6.8556744326794424e+03  6.8262985321669794e+03  6.7966831458654551e+03  6.7668615185886792e+03  6.7371570161070476e+03  6.7073215617792957e+03  6.6770221015346051e+03  6.6462322869151640e+03  6.6151973431136430e+03  6.5843037304279133e+03  6.5538488557036198e+03  6.5239258603826047e+03  6.4945177581696416e+03  6.4656792384282999e+03  6.4376390550670867e+03  6.4105718542792665e+03  6.3833097025462539e+03  6.3497172800389399e+03  6.3181770385071750e+03  6.2876520922299233e+03  6.2575285374247787e+03  6.2276513677298435e+03  6.1978821869534277e+03  6.1681880627159298e+03  6.1384964898269263e+03  6.1088000797376162e+03  6.0790447850102837e+03  6.0492387023070396e+03  6.0193555151587570e+03  5.9894468749525740e+03  5.9596018511493376e+03  5.9292507160159957e+03  5.8957698349527163e+03  5.8618656805064811e+03  5.8278998335162923e+03  5.7945411861619987e+03  5.7611499847070663e+03  5.7286845330655433e+03  5.6959253092768777e+03  5.6629182613273542e+03  5.6296988837658882e+03  5.5958332639071505e+03  5.5610619780147999e+03  5.5267225748472456e+03  5.4891469325349935e+03  5.4507638961312368e+03  5.4126254205388923e+03  5.3777902796981325e+03  5.3426329712511988e+03  5.3053024177418092e+03  5.2694291867244428e+03  5.2371631305224564e+03  5.2012649955350807e+03  5.1677730522190222e+03  5.1362790828771012e+03  5.1057758066336874e+03  5.0750776918598676e+03  5.0414655269212108e+03  5.0064728367223397e+03  4.9680331277747300e+03  4.9311030054315979e+03  4.8919246264111744e+03  4.8546927520650606e+03  4.8154608330659785e+03  4.7771906281560805e+03  4.7361128406103871e+03  4.6952031420932781e+03  4.6508424144566852e+03  4.6073318084636121e+03  4.5611429710577349e+03  4.5170685574486943e+03  4.4711941410016261e+03  4.4280776740000238e+03  4.3835819031920291e+03  4.3419506509908961e+03  4.2990645063717948e+03  4.2589898257978093e+03  4.2170816133663366e+03  4.1752027070697868e+03  4.1341662675798298e+03  4.0934762270994984e+03  4.0533978443765336e+03  4.0135032915870243e+03  3.9740897412266499e+03  3.9347370197759078e+03  3.8957739628685331e+03  3.8567861891376806e+03  3.8181253120890615e+03  3.7793813068966128e+03  3.7409216624371288e+03  3.7023394904546426e+03  3.6640131449639948e+03  3.6255379329937409e+03  3.5872995487290927e+03  3.5488948063791618e+03  3.5107143125063217e+03  3.4723559028571262e+03  3.4342134491893789e+03  3.3958854743596657e+03  3.3577680095597375e+03  3.3194600386463831e+03  3.2813590153288865e+03  3.2430642337517388e+03  3.2049740810686426e+03  3.1666880619799686e+03  3.1286051722323614e+03  3.0903250595634731e+03  3.0522471094454127e+03  3.0139710598252263e+03  2.9758965292283169e+03  2.9376232820875807e+03  2.8995510302918460e+03  2.8612794247888705e+03  2.8232080485754395e+03  2.7849359827725825e+03  2.7468619340492146e+03  2.7085822210044057e+03  2.6704905527652945e+03  2.6321680842982446e+03  2.5939731644837298e+03  2.5552321800525688e+03  2.5156102339465242e+03  2.4753442558552588e+03  2.4344392127536526e+03  2.3928153745066093e+03  2.3504145593329313e+03  2.3071294639844718e+03  2.2628160741322126e+03  2.2173062604883944e+03  2.1703999050527041e+03  2.1218230401603018e+03  2.0719527356404733e+03  2.0235488580224467e+03  1.9739023991163770e+03  1.9232366081260595e+03  1.8723332617768478e+03  1.8070249097255912e+03  1.1711858530422805e+03  1.0191936239974449e+03  8.7416810725368498e+02  7.2969492393988321e+02  5.8486924464382423e+02  4.3939868033032707e+02  2.9333046274223437e+02  1.4684541986943856e+02  3.1733633113397969e-02  7.5216865868937693e+03  7.4936235068785572e+03  7.4653331328480417e+03  7.4349785853252033e+03  7.4048224111130721e+03  7.3735378922983891e+03  7.3421953208870473e+03  7.3108806475682450e+03  7.2795942653849525e+03  7.2498659038109627e+03  7.2223830233293447e+03  7.1951858752078897e+03  7.1677762562661374e+03  7.1402072185730494e+03  7.1125397163578900e+03  7.0848115451910799e+03  7.0569985538396531e+03  7.0289071856055243e+03  7.0001480041831919e+03  6.9708350749102856e+03  6.9422458358952481e+03  6.9138256720845256e+03  6.8850279909095125e+03  6.8558118597255816e+03  6.8264455540726622e+03  6.7968353902478002e+03  6.7667740099101848e+03  6.7372522577846530e+03  6.7076155668593465e+03  6.6773279883349842e+03  6.6463864077600829e+03  6.6151070408029127e+03  6.5840247399090313e+03  6.5535079099937502e+03  6.5235906244045182e+03  6.4941389554634825e+03  6.4651345452928936e+03  6.4367165961625597e+03  6.4087626544118930e+03  6.3801446289533524e+03  6.3489201626611966e+03  6.3178850780301573e+03  6.2875004612311759e+03  6.2574533720231848e+03  6.2276060785659993e+03  6.1978648407565088e+03  6.1681807505016695e+03  6.1385072151179957e+03  6.1088153195691129e+03  6.0790723060166656e+03  6.0492614467074191e+03  6.0193732613505817e+03  5.9894409905109842e+03  5.9595420069745342e+03  5.9309269429418900e+03  5.8956646249862033e+03  5.8618808493849483e+03  5.8279952293515007e+03  5.7920182208869901e+03  5.7612161768311589e+03  5.7287544759593193e+03  5.6960076739793631e+03  5.6629697057100120e+03  5.6298484873360721e+03  5.5963411244390309e+03  5.5604351692107948e+03  5.5283741799447698e+03  5.4890730655902726e+03  5.4510189292707591e+03  5.4109667272174474e+03  5.3781720249445507e+03  5.3431826403834557e+03  5.3069578181641937e+03  5.2711585221986015e+03  5.2396511978964363e+03  5.1994245801610014e+03  5.1669761543520362e+03  5.1358432915704479e+03  5.1056282914181320e+03  5.0770277468478016e+03  5.0413480581460308e+03  5.0090434680177377e+03  4.9662038016162569e+03  4.9332751404473602e+03  4.8899072832550455e+03  4.8566554167220866e+03  4.8140251600058791e+03  4.7794884855967621e+03  4.7350275039115186e+03  4.6979079949801971e+03  4.6493104901164734e+03  4.6097739205151638e+03  4.5589473163073753e+03  4.5191411931476860e+03  4.4687008321076828e+03  4.4299391557637900e+03  4.3810768565814678e+03  4.3437110592303998e+03  4.2966651072058867e+03  4.2606734160909109e+03  4.2168442675637098e+03  4.1747874076659555e+03  4.1341036469829296e+03  4.0931144243172571e+03  4.0534172033334635e+03  4.0131948080245202e+03  3.9741675324653029e+03  3.9344660428828797e+03  3.8958923829502646e+03  3.8565409451193955e+03  3.8182714893896800e+03  3.7791534794516115e+03  3.7410865701262169e+03  3.7021233358695267e+03  3.6641905778150949e+03  3.6253295453669157e+03  3.5874853012070339e+03  3.5486915589133564e+03  3.5109055629710524e+03  3.4721560428460166e+03  3.4344083177618686e+03  3.3956878386450876e+03  3.3579652495466926e+03  3.3192638579787285e+03  3.2815578021032079e+03  3.2428690004346190e+03  3.2051738699897069e+03  3.1664934418103257e+03  3.1288056052209604e+03  3.0901308352277711e+03  3.0524479575969290e+03  3.0137770991221241e+03  2.9760976684769685e+03  2.9374295341563638e+03  2.8997524693269020e+03  2.8610859803098442e+03  2.8234101190285455e+03  2.7847433825544581e+03  2.7470663231214889e+03  2.7083935243755627e+03  2.6707066513999061e+03  2.6320023849667150e+03  2.5942901776428048e+03  2.5555827108944754e+03  2.5158967588721466e+03  2.4756204865191289e+03  2.4347569274927237e+03  2.3931546416864112e+03  2.3508021841869513e+03  2.3075811225564935e+03  2.2633395658908653e+03  2.2179240463671267e+03  2.1710917208469546e+03  2.1226644132412248e+03  2.0706564188629500e+03  2.0244063739621611e+03  1.9744872977803063e+03  1.9228693665761202e+03  1.8738419354979685e+03  1.3023588613992899e+03  1.1626881610864164e+03  1.0169063866673168e+03  8.7359922724508851e+02  7.2987415533207513e+02  5.8525983940905712e+02  4.3977865985504945e+02  2.9360434677006998e+02  1.4695119940597073e+02  -2.1498222503864504e-04  7.5205609359869341e+03  7.4923362182241644e+03  7.4636531277423137e+03  7.4339443113598645e+03  7.4038037550858689e+03  7.3730935074020426e+03  7.3421915712939644e+03  7.3113306737058510e+03  7.2807780018114972e+03  7.2513202697325032e+03  7.2232080624594173e+03  7.1955952128178506e+03  7.1679965437552064e+03  7.1403345585770367e+03  7.1126299699445863e+03  7.0849260656311862e+03  7.0572488316646886e+03  7.0293832374249414e+03  7.0006141153761255e+03  6.9703115125906552e+03  6.9421934412578230e+03  6.9140914727804429e+03  6.8853589661318656e+03  6.8559712796992726e+03  6.8266221255635573e+03  6.7972395899851135e+03  6.7663862021686618e+03  6.7374221804716526e+03  6.7081037057498297e+03  6.6778225108051101e+03  6.6466447261131761e+03  6.6149538638804943e+03  6.5835767240039859e+03  6.5529972809470573e+03  6.5231360151178342e+03  6.4936508637497745e+03  6.4644194824827264e+03  6.4356387618240442e+03  6.4070139893183241e+03  6.3780021401447975e+03  6.3478441186986383e+03  6.3174265190006754e+03  6.2872628412548202e+03  6.2573243392955410e+03  6.2275335008099673e+03  6.1978300113037612e+03  6.1681713696082643e+03  6.1385202674793181e+03  6.1088453610406696e+03  6.0791157724171844e+03  6.0493069249849186e+03  6.0194038609757627e+03  5.9894235449591442e+03  5.9594467173670573e+03  5.9307477310992736e+03  5.8955636215310424e+03  5.8619737007818076e+03  5.8280802788994997e+03  5.7918364666970065e+03  5.7613292248049402e+03  5.7289122429799472e+03  5.6961689219758246e+03  5.6630846164248060e+03  5.6297949805110820e+03  5.5983223669689123e+03  5.5582716995294286e+03  5.5282555728894904e+03  5.4892409138386165e+03  5.4516488086321197e+03  5.4116372811278452e+03  5.3787213826073257e+03  5.3441444082875387e+03  5.3087351269468081e+03  5.2716290168217283e+03  5.2405010597282799e+03  5.2010878400749234e+03  5.1646491086840961e+03  5.1354465447303710e+03  5.1052977359073866e+03  5.0771221144011188e+03  5.0444993250785610e+03  3.6499608954876858e+03  4.9652433857877704e+03  3.5943054880992522e+03  4.8888294731491178e+03  3.5371043999534459e+03  4.8148859496300392e+03  3.4812406532396380e+03  4.7370086375460151e+03  3.4225606584361904e+03  4.6507810289732206e+03  3.3565896945681870e+03  4.5590450751724184e+03  3.2893028840146990e+03  4.4679925609678276e+03  3.2239840758800356e+03  4.3801512156812532e+03  3.1612204090608498e+03  4.2957676045023545e+03  3.1008941052880909e+03  4.2171664779013654e+03  3.0379749627105030e+03  4.1347286696563579e+03  2.9788710324020813e+03  4.0543135057859618e+03  2.9209450430018446e+03  3.9752599607396833e+03  2.8637981323141776e+03  3.8971214450119523e+03  2.8071722475436827e+03  3.8195940143008788e+03  2.7508927032562574e+03  3.7424722186474232e+03  2.6948422482405440e+03  3.6656184638939267e+03  2.6389427866416986e+03  3.5889412550166389e+03  2.5831425976372157e+03  3.5123800703797015e+03  2.5274075728996422e+03  3.4358950364101233e+03  2.4717152951034741e+03  3.3594599711004244e+03  2.4160510773702340e+03  3.2830577412504817e+03  2.3604053343492742e+03  3.2066771854541466e+03  2.3047718473416458e+03  3.1303110845897377e+03  2.2491466238468188e+03  3.0539548237150429e+03  2.1935271471816336e+03  2.9776054972766983e+03  2.1379118786622289e+03  2.9012612802896956e+03  2.0822999565304831e+03  2.8249209870050868e+03  2.0266914065781875e+03  2.7485844827856740e+03  1.9710913701732568e+03  2.6722607446354682e+03  1.9155460753937170e+03  2.5961074872438680e+03  1.8614506194014921e+03  1.8345760298718476e+03  1.8047210617969251e+03  1.7752130319893847e+03  1.7450333581570289e+03  1.7144189580186530e+03  1.6832642422724864e+03  1.6513852480929636e+03  1.6187874879853862e+03  1.5851863035953174e+03  1.5504289