<?xml version="1.0"?>
<VTKFile type="UnstructuredGrid"  version="0.1"  >
<UnstructuredGrid>
<Piece  NumberOfPoints="21400" NumberOfCells="42336">
<Points>
<DataArray  type="Float64"  NumberOfComponents="3"  format="ascii">0 0 0  0.004583333333333333 0 0  0.009166666666666667 0 0  0.01375 0 0  0.01833333333333333 0 0  0.02291666666666667 0 0  0.0275 0 0  0.03208333333333334 0 0  0.03666666666666667 0 0  0.04125 0 0  0.04583333333333334 0 0  0.05041666666666667 0 0  0.055 0 0  0.05958333333333334 0 0  0.06416666666666668 0 0  0.06875000000000001 0 0  0.07333333333333333 0 0  0.07791666666666666 0 0  0.08249999999999999 0 0  0.08708333333333333 0 0  0.09166666666666667 0 0  0.09625000000000002 0 0  0.1008333333333333 0 0  0.1054166666666667 0 0  0.11 0 0  0.1145833333333333 0 0  0.1191666666666667 0 0  0.12375 0 0  0.1283333333333334 0 0  0.1329166666666667 0 0  0.1375 0 0  0.1420833333333333 0 0  0.1466666666666667 0 0  0.15125 0 0  0.1558333333333333 0 0  0.1604166666666667 0 0  0.165 0 0  0.1695833333333333 0 0  0.1741666666666667 0 0  0.17875 0 0  0.1833333333333333 0 0  0.1879166666666667 0 0  0.1925 0 0  0.1970833333333333 0 0  0.2016666666666667 0 0  0.20625 0 0  0.2108333333333333 0 0  0.2154166666666666 0 0  0.22 0 0  0.2245833333333334 0 0  0.2291666666666667 0 0  0.23375 0 0  0.2383333333333333 0 0  0.2429166666666667 0 0  0.2475 0 0  0.2520833333333333 0 0  0.2566666666666667 0 0  0.26125 0 0  0.2658333333333334 0 0  0.2704166666666666 0 0  0.275 0 0  0.2795833333333334 0 0  0.2841666666666667 0 0  0.28875 0 0  0.2933333333333333 0 0  0.2979166666666667 0 0  0.3025 0 0  0.3070833333333334 0 0  0.3116666666666666 0 0  0.31625 0 0  0.3208333333333333 0 0  0.3254166666666667 0 0  0.33 0 0  0.3345833333333333 0 0  0.3391666666666667 0 0  0.34375 0 0  0.3483333333333333 0 0  0.3529166666666667 0 0  0.3575 0 0  0.3620833333333333 0 0  0.3666666666666667 0 0  0.37125 0 0  0.3758333333333334 0 0  0.3804166666666667 0 0  0.3850000000000001 0 0  0.3895833333333333 0 0  0.3941666666666667 0 0  0.39875 0 0  0.4033333333333334 0 0  0.4079166666666666 0 0  0.4125 0 0  0.4170833333333334 0 0  0.4216666666666667 0 0  0.42625 0 0  0.4308333333333333 0 0  0.4354166666666667 0 0  0.44 0 0  0.4445833333333333 0 0  0.4491666666666667 0 0  0.45375 0 0  0.4583333333333333 0 0  0.4629166666666666 0 0  0.4675 0 0  0.4720833333333334 0 0  0.4766666666666667 0 0  0.4812500000000001 0 0  0.4858333333333333 0 0  0.4904166666666667 0 0  0.495 0 0  0.4995833333333334 0 0  0.5041666666666667 0 0  0.50875 0 0  0.5133333333333334 0 0  0.5179166666666667 0 0  0.5225 0 0  0.5270833333333333 0 0  0.5316666666666667 0 0  0.53625 0 0  0.5408333333333333 0 0  0.5454166666666667 0 0  0.55 0 0  0.5545833333333333 0 0  0.5591666666666667 0 0  0.5637500000000001 0 0  0.5683333333333334 0 0  0.5729166666666666 0 0  0.5775 0 0  0.5820833333333334 0 0  0.5866666666666667 0 0  0.5912499999999999 0 0  0.5958333333333334 0 0  0.6004166666666667 0 0  0.605 0 0  0.6095833333333334 0 0  0.6141666666666667 0 0  0.61875 0 0  0.6233333333333333 0 0  0.6279166666666667 0 0  0.6325000000000001 0 0  0.6370833333333333 0 0  0.6416666666666666 0 0  0.64625 0 0  0.6508333333333334 0 0  0.6554166666666666 0 0  0.6599999999999999 0 0  0.6645833333333334 0 0  0.6691666666666667 0 0  0.67375 0 0  0.6783333333333333 0 0  0.6829166666666667 0 0  0.6875 0 0  0.6920833333333333 0 0  0.6966666666666667 0 0  0.70125 0 0  0.7058333333333333 0 0  0.7104166666666667 0 0  0.7150000000000001 0 0  0.7195833333333334 0 0  0.7241666666666666 0 0  0.72875 0 0  0.7333333333333334 0 0  0.7379166666666667 0 0  0.7425 0 0  0.7470833333333333 0 0  0.7516666666666667 0 0  0.75625 0 0  0.7608333333333334 0 0  0.7654166666666666 0 0  0.7700000000000001 0 0  0 0.002380952380952381 0  0.004583333333333333 0.002380952380952381 0  0.009166666666666667 0.002380952380952381 0  0.01375 0.002380952380952381 0  0.01833333333333333 0.002380952380952381 0  0.02291666666666667 0.002380952380952381 0  0.0275 0.002380952380952381 0  0.03208333333333334 0.002380952380952381 0  0.03666666666666667 0.002380952380952381 0  0.04125 0.002380952380952381 0  0.04583333333333334 0.002380952380952381 0  0.05041666666666667 0.002380952380952381 0  0.055 0.002380952380952381 0  0.05958333333333334 0.002380952380952381 0  0.06416666666666668 0.002380952380952381 0  0.06875000000000001 0.002380952380952381 0  0.07333333333333333 0.002380952380952381 0  0.07791666666666666 0.002380952380952381 0  0.08249999999999999 0.002380952380952381 0  0.08708333333333333 0.002380952380952381 0  0.09166666666666667 0.002380952380952381 0  0.09625000000000002 0.002380952380952381 0  0.1008333333333333 0.002380952380952381 0  0.1054166666666667 0.002380952380952381 0  0.11 0.002380952380952381 0  0.1145833333333333 0.002380952380952381 0  0.1191666666666667 0.002380952380952381 0  0.12375 0.002380952380952381 0  0.1283333333333334 0.002380952380952381 0  0.1329166666666667 0.002380952380952381 0  0.1375 0.002380952380952381 0  0.1420833333333333 0.002380952380952381 0  0.1466666666666667 0.002380952380952381 0  0.15125 0.002380952380952381 0  0.1558333333333333 0.002380952380952381 0  0.1604166666666667 0.002380952380952381 0  0.165 0.002380952380952381 0  0.1695833333333333 0.002380952380952381 0  0.1741666666666667 0.002380952380952381 0  0.17875 0.002380952380952381 0  0.1833333333333333 0.002380952380952381 0  0.1879166666666667 0.002380952380952381 0  0.1925 0.002380952380952381 0  0.1970833333333333 0.002380952380952381 0  0.2016666666666667 0.002380952380952381 0  0.20625 0.002380952380952381 0  0.2108333333333333 0.002380952380952381 0  0.2154166666666666 0.002380952380952381 0  0.22 0.002380952380952381 0  0.2245833333333334 0.002380952380952381 0  0.2291666666666667 0.002380952380952381 0  0.23375 0.002380952380952381 0  0.2383333333333333 0.002380952380952381 0  0.2429166666666667 0.002380952380952381 0  0.2475 0.002380952380952381 0  0.2520833333333333 0.002380952380952381 0  0.2566666666666667 0.002380952380952381 0  0.26125 0.002380952380952381 0  0.2658333333333334 0.002380952380952381 0  0.2704166666666666 0.002380952380952381 0  0.275 0.002380952380952381 0  0.2795833333333334 0.002380952380952381 0  0.2841666666666667 0.002380952380952381 0  0.28875 0.002380952380952381 0  0.2933333333333333 0.002380952380952381 0  0.2979166666666667 0.002380952380952381 0  0.3025 0.002380952380952381 0  0.3070833333333334 0.002380952380952381 0  0.3116666666666666 0.002380952380952381 0  0.31625 0.002380952380952381 0  0.3208333333333333 0.002380952380952381 0  0.3254166666666667 0.002380952380952381 0  0.33 0.002380952380952381 0  0.3345833333333333 0.002380952380952381 0  0.3391666666666667 0.002380952380952381 0  0.34375 0.002380952380952381 0  0.3483333333333333 0.002380952380952381 0  0.3529166666666667 0.002380952380952381 0  0.3575 0.002380952380952381 0  0.3620833333333333 0.002380952380952381 0  0.3666666666666667 0.002380952380952381 0  0.37125 0.002380952380952381 0  0.3758333333333334 0.002380952380952381 0  0.3804166666666667 0.002380952380952381 0  0.3850000000000001 0.002380952380952381 0  0.3895833333333333 0.002380952380952381 0  0.3941666666666667 0.002380952380952381 0  0.39875 0.002380952380952381 0  0.4033333333333334 0.002380952380952381 0  0.4079166666666666 0.002380952380952381 0  0.4125 0.002380952380952381 0  0.4170833333333334 0.002380952380952381 0  0.4216666666666667 0.002380952380952381 0  0.42625 0.002380952380952381 0  0.4308333333333333 0.002380952380952381 0  0.4354166666666667 0.002380952380952381 0  0.44 0.002380952380952381 0  0.4445833333333333 0.002380952380952381 0  0.4491666666666667 0.002380952380952381 0  0.45375 0.002380952380952381 0  0.4583333333333333 0.002380952380952381 0  0.4629166666666666 0.002380952380952381 0  0.4675 0.002380952380952381 0  0.4720833333333334 0.002380952380952381 0  0.4766666666666667 0.002380952380952381 0  0.4812500000000001 0.002380952380952381 0  0.4858333333333333 0.002380952380952381 0  0.4904166666666667 0.002380952380952381 0  0.495 0.002380952380952381 0  0.4995833333333334 0.002380952380952381 0  0.5041666666666667 0.002380952380952381 0  0.50875 0.002380952380952381 0  0.5133333333333334 0.002380952380952381 0  0.5179166666666667 0.002380952380952381 0  0.5225 0.002380952380952381 0  0.5270833333333333 0.002380952380952381 0  0.5316666666666667 0.002380952380952381 0  0.53625 0.002380952380952381 0  0.5408333333333333 0.002380952380952381 0  0.5454166666666667 0.002380952380952381 0  0.55 0.002380952380952381 0  0.5545833333333333 0.002380952380952381 0  0.5591666666666667 0.002380952380952381 0  0.5637500000000001 0.002380952380952381 0  0.5683333333333334 0.002380952380952381 0  0.5729166666666666 0.002380952380952381 0  0.5775 0.002380952380952381 0  0.5820833333333334 0.002380952380952381 0  0.5866666666666667 0.002380952380952381 0  0.5912499999999999 0.002380952380952381 0  0.5958333333333334 0.002380952380952381 0  0.6004166666666667 0.002380952380952381 0  0.605 0.002380952380952381 0  0.6095833333333334 0.002380952380952381 0  0.6141666666666667 0.002380952380952381 0  0.61875 0.002380952380952381 0  0.6233333333333333 0.002380952380952381 0  0.6279166666666667 0.002380952380952381 0  0.6325000000000001 0.002380952380952381 0  0.6370833333333333 0.002380952380952381 0  0.6416666666666666 0.002380952380952381 0  0.64625 0.002380952380952381 0  0.6508333333333334 0.002380952380952381 0  0.6554166666666666 0.002380952380952381 0  0.6599999999999999 0.002380952380952381 0  0.6645833333333334 0.002380952380952381 0  0.6691666666666667 0.002380952380952381 0  0.67375 0.002380952380952381 0  0.6783333333333333 0.002380952380952381 0  0.6829166666666667 0.002380952380952381 0  0.6875 0.002380952380952381 0  0.6920833333333333 0.002380952380952381 0  0.6966666666666667 0.002380952380952381 0  0.70125 0.002380952380952381 0  0.7058333333333333 0.002380952380952381 0  0.7104166666666667 0.002380952380952381 0  0.7150000000000001 0.002380952380952381 
[...]
<PointData  Scalars="pressure"> 
<DataArray  type="Float64"  Name="pressure"  format="ascii">3.0557587924430700e+04  3.0527869943880360e+04  3.0500577772547804e+04  3.0471842581537821e+04  3.0441730777962028e+04  3.0405974202026260e+04  3.0372812486334180e+04  3.0339500639996881e+04  3.0303158181462491e+04  3.0273237936351525e+04  3.0248928030585896e+04  3.0222244607962893e+04  3.0199424615641510e+04  2.1970864227794948e+04  2.1945439561244821e+04  2.1919356494679963e+04  2.1891770213185082e+04  2.1861854580086194e+04  2.1828760328966346e+04  2.1791948573811536e+04  2.1751542243285479e+04  2.1708405194875762e+04  2.1663939108437960e+04  2.1619591986923493e+04  2.1576637999308670e+04  2.1536104464190266e+04  2.1500222458055014e+04  2.1444797783449358e+04  2.1320317732297746e+04  2.1146922322888662e+04  2.0964208354596944e+04  2.0786079931386896e+04  2.0613208050093759e+04  2.0444798187269251e+04  2.0279967399351379e+04  2.0117953358775208e+04  1.9958150825612047e+04  1.9800089847234551e+04  1.9643407244820752e+04  1.9487821529646088e+04  1.9333113254140200e+04  1.9179110183333982e+04  1.9025676231201782e+04  1.8872703203826462e+04  1.8720104602551972e+04  1.8567810935486374e+04  1.8415766138168834e+04  1.8263924816080129e+04  1.8112250101732439e+04  1.7960711975876049e+04  1.7809285942655268e+04  1.7657951977261102e+04  1.7506693685239083e+04  1.7355497627537050e+04  1.7204352776293865e+04  1.7053250074436055e+04  1.6902182078171991e+04  1.6751142666016643e+04  1.6600126801442093e+04  1.6449130338911658e+04  1.6298149865122397e+04  1.6147182568896984e+04  1.5996226134440454e+04  1.5845278653687652e+04  1.5694338554273943e+04  1.5543404540308031e+04  1.5392475543646866e+04  1.5241550683793655e+04  1.5090629234881344e+04  1.4939710598481943e+04  1.4788794281208464e+04  1.4637879876261033e+04  1.4486967048220235e+04  1.4336055520514630e+04  1.4185145065091030e+04  1.4034235493899607e+04  1.3883326651874459e+04  1.3732418411146635e+04  1.3581510666272992e+04  1.3430603330302407e+04  1.3279696331532228e+04  1.3128789610833866e+04  1.2977883119447490e+04  1.2826976817163646e+04  1.2676070670823765e+04  1.2525164653083697e+04  1.2374258741394104e+04  1.2223352917159629e+04  1.2072447165045580e+04  1.1921541472406156e+04  1.1770635828812952e+04  1.1619730225666135e+04  1.1468824655873846e+04  1.1317919113587728e+04  1.1167013593984950e+04  1.1016108093088342e+04  1.0865202607618159e+04  1.0714297134869776e+04  1.0563391672612857e+04  1.0412486219008228e+04  1.0261580772539262e+04  1.0110675331955386e+04  9.9597698962254090e+03  9.8088644644991364e+03  9.6579590360755974e+03  9.5070536103769900e+03  9.3561481869270865e+03  9.2052427653334926e+03  9.0543373452730175e+03  8.9034319264796450e+03  8.7525265087345779e+03  8.6016210918581164e+03  8.4507156757029388e+03  8.2998102601486171e+03  8.1489048450971177e+03  7.9979994304691527e+03  7.8470940162012366e+03  7.6961886022433046e+03  7.5452831885568412e+03  7.3943777751134521e+03  7.2434723618938178e+03  7.0925669488869607e+03  6.9416615360898286e+03  6.7907561235072144e+03  6.6398507111518984e+03  6.4889452990451591e+03  6.3380398872175410e+03  6.1871344757100460e+03  6.0362290645756357e+03  5.8853236538812380e+03  5.7344182437102500e+03  5.5835128341657373e+03  5.4326074253742636e+03  5.2817020174907302e+03  5.1307966107042694e+03  4.9798912052454680e+03  4.8289858013952226e+03  4.6780803994955850e+03  4.5271749999631229e+03  4.3762696033052480e+03  4.2253642101403839e+03  4.0744588212228532e+03  3.9235534374737290e+03  3.7726480600191726e+03  3.6217426902384009e+03  3.4708373298239731e+03  3.3199319808581740e+03  3.1690266459103987e+03  3.0181213281626892e+03  2.8672160315731335e+03  2.7163107610912166e+03  2.5654055229456112e+03  2.4145003250348796e+03  2.2635951774673467e+03  2.1126900933220286e+03  1.9617850897452281e+03  1.8108801895709266e+03  1.6599754237825077e+03  1.5090708353776363e+03  1.3581664856211974e+03  1.2072624648933518e+03  1.0563589098527700e+03  9.0545605295107418e+02  7.5455417551973244e+02  6.0365472288224635e+02  4.5275236540252206e+02  3.0190539317216934e+02  1.5056425484268496e+02  4.2690987422054025e+00  3.0555941524685008e+04  3.0527558940896892e+04  3.0501458317386925e+04  3.0470069596622958e+04  2.2174537545529085e+04  2.2149423050877853e+04  2.2125512942285135e+04  2.2101497367394764e+04  2.2076063160852402e+04  3.0273940003863765e+04  3.0249075117829500e+04  3.0222374236476684e+04  3.0196459154466964e+04  3.0160604058961464e+04  3.0125737908596795e+04  3.0090021974711024e+04  3.0052252233732670e+04  3.0011288558893462e+04  2.9965928695849285e+04  2.9915384733626099e+04  2.9859815659938384e+04  2.9800425190900598e+04  2.9739209964429192e+04  2.9678193698871572e+04  2.9619087524257819e+04  2.9563251986348077e+04  2.9513376215013246e+04  2.1452026132958545e+04  2.1326496925369149e+04  2.1147097812323082e+04  2.0963571870286047e+04  2.0785500459434737e+04  2.0612719872174017e+04  2.0444410664401159e+04  2.0279663028489307e+04  2.0117714556836425e+04  1.9957962752706237e+04  1.9799940943700203e+04  1.9643288700609141e+04  1.9487726663047288e+04  1.9333036981034631e+04  1.9179048609417303e+04  1.9025626349810380e+04  1.8872662674707160e+04  1.8720071589982213e+04  1.8567783989214120e+04  1.8415744105140351e+04  1.8263906774376344e+04  1.8112235310635489e+04  1.7960699837755095e+04  1.7809275973598826e+04  1.7657943784248699e+04  1.7506686948252569e+04  1.7355492085440594e+04  1.7204348215616519e+04  1.7053246320409569e+04  1.6902178987535091e+04  1.6751140121213037e+04  1.6600124705925096e+04  1.6449128613332778e+04  1.6298148444229146e+04  1.6147181399002555e+04  1.5996225171355871e+04  1.5845277861029374e+04  1.5694337902076852e+04  1.5543404003887526e+04  1.5392475102664546e+04  1.5241550321489440e+04  1.5090628937442169e+04  1.4939710354522369e+04  1.4788794081343221e+04  1.4637879712753051e+04  1.4486966914690849e+04  1.4336055411704807e+04  1.4185144976664686e+04  1.4034235422281505e+04  1.3883326594116616e+04  1.3732418364818232e+04  1.3581510629369604e+04  1.3430603301171195e+04  1.3279696308810233e+04  1.3128789593397169e+04  1.2977883106369281e+04  1.2826976807679648e+04  1.2676070664303725e+04  1.2525164649007891e+04  1.2374258739333933e+04  1.2223352916761658e+04  1.2072447166018344e+04  1.1921541474509308e+04  1.1770635831848278e+04  1.1619730229470184e+04  1.1468824660311822e+04  1.1317919118548476e+04  1.1167013599376800e+04  1.1016108098835699e+04  1.0865202613658683e+04  1.0714297141152058e+04  1.0563391679094502e+04  1.0412486225654262e+04  1.0261580779320855e+04  1.0110675338848749e+04  9.9597699032109340e+03  9.8088644715606351e+03  9.6579590431997367e+03  9.5070536175527468e+03  9.3561481941453803e+03  9.2052427725868147e+03  9.0543373525551797e+03  8.9034319337855177e+03  8.7525265160599356e+03  8.6016210991994449e+03  8.4507156830573222e+03  8.2998102675136270e+03  8.1489048524707241e+03  7.9979994378496476e+03  7.8470940235871640e+03  7.6961886096334092e+03  7.5452831959500272e+03  7.3943777825087409e+03  7.2434723692903062e+03  7.0925669562837893e+03  6.9416615434861533e+03  6.7907561309021658e+03  6.6398507185445642e+03  6.4889453064345316e+03  6.3380398946025016e+03  6.1871344830893004e+03  6.0362290719476796e+03  5.8853236612442906e+03  5.7344182510621949e+03  5.5835128415040372e+03  5.4326074326958642e+03  5.2817020247919409e+03  5.1307966179806208e+03  4.9798912124915396e+03  4.8289858086044187e+03  4.6780804066598821e+03  4.5271750070727285e+03  4.3762696103482021e+03  4.2253642171020456e+03  4.0744588280852695e+03  3.9235534442148155e+03  3.7726480666116968e+03  3.6217426966486451e+03  3.4708373360100318e+03  3.3199319867676895e+03  3.1690266514775690e+03  3.0181213333042292e+03  2.8672160361827482e+03  2.7163107650319162e+03  2.5654055260388104e+03  2.4145003270446555e+03  2.2635951780771811e+03  2.1126900920996127e+03  1.9617850860878366e+03  1.8108801826179792e+03  1.6599754122718487e+03  1.5090708173936005e+03  1.3581664581909761e+03  1.2072624228514924e+03  1.0563588467298075e+03  9.0545593698945731e+02  7.5455411128756066e+02  6.0365354200171259e+02  4.5275922197240970e+02  3.0184260143709139e+02  1.5112639414252288e+02  -2.3169241591566200e-01  3.0554807077289388e+04  3.0526716300301581e+04  3.0500019495343335e+04  3.0467130562290298e+04  3.0437882031846468e+04  3.0405035719913922e+04  3.0372897716990690e+04  3.0340639499361638e+04  3.0307448805218686e+04  3.0276304653397390e+04  3.0249544879493944e+04  3.0222152559182741e+04  3.0193494880356211e+04  3.0160405057043896e+04  3.0125936456720905e+04  3.0090416996693566e+04  3.0052874429573447e+04  3.0012159424112018e+04  2.9966971403348682e+04  2.9916398991834543e+04  2.9860593603044850e+04  2.9800781950865938e+04  2.9739161842180230e+04  2.9677812464060920e+04  2.9618443999270137e+04  2.9562425308989357e+04  2.9510591165017464e+04  2.9455937699164442e+04  2.1348454437670927e+04  2.1145806109903358e+04  2.0961480598870221e+04  2.0783455504348374e+04  2.0611034949515826e+04  2.0443073993154780e+04  2.0278614460816370e+04  2.0116891988515174e+04  1.9957314863148702e+04  1.9799427879374220e+04  1.9642880143981663e+04  1.9487399631661345e+04  1.9332773987572215e+04  1.9178836255941118e+04  1.9025454288870103e+04  1.8872522849501478e+04  1.8719957678516836e+04  1.8567690995440742e+04  1.8415668055728838e+04  1.8263844491684460e+04  1.8112184241034458e+04  1.7960657920532431e+04  1.7809241539902221e+04  1.7657915478500941e+04  1.7506663666548626e+04  1.7355472926906990e+04  1.7204332443758387e+04  1.7053233332221105e+04  1.6902168288693076e+04  1.6751131306071195e+04  1.6600117441321894e+04  1.6449122625445427e+04  1.6298143507872974e+04  1.6147177328901838e+04  1.5996221815009778e+04  1.5845275092872618e+04  1.5694335618693902e+04  1.5543402120086210e+04  1.5392473548251732e+04  1.5241549038621430e+04  1.5090627878445954e+04  1.4939709480103225e+04  1.4788793359109461e+04  1.4637879116001477e+04  1.4486966421406460e+04  1.4336055003736841e+04  1.4185144639047739e+04  1.4034235142676114e+04  1.3883326362348231e+04  1.3732418172497190e+04  1.3581510469577899e+04  1.3430603168204219e+04  1.3279696197963924e+04  1.3128789500792454e+04  1.2977883028807390e+04  1.2826976742522758e+04  1.2676070609376604e+04  1.2525164602516747e+04  1.2374258699799528e+04  1.2223352882964142e+04  1.2072447136951778e+04  1.1921541449344135e+04  1.1770635809900406e+04  1.1619730210175472e+04  1.1468824643205040e+04  1.1317919103245978e+04  1.1167013585562205e+04  1.1016108086248103e+04  1.0865202602082918e+04  1.0714297130410687e+04  1.0563391669041192e+04  1.0412486216168338e+04  1.0261580770302789e+04  1.0110675330216460e+04  9.9597698948967209e+03  9.8088644635086584e+03  9.6579590353639269e+03  9.5070536098951015e+03  9.3561481866345312e+03  9.2052427651968719e+03  9.0543373452647629e+03  8.9034319265769536e+03  8.7525265089186014e+03  8.6016210921132279e+03  8.4507156760161615e+03  8.2998102605091426e+03  8.1489048454959029e+03  7.9979994308985824e+03  7.8470940166548344e+03  7.6961886027154924e+03  7.5452831890427369e+03  7.3943777756086865e+03  7.2434723623943682e+03  7.0925669493890009e+03  6.9416615365895877e+03  6.7907561240008308e+03  6.6398507116352903e+03  6.4889452995138472e+03  6.3380398876665085e+03  6.1871344761335286e+03  6.0362290649669094e+03  5.8853236542323639e+03  5.7344182440117811e+03  5.5835128344063451e+03  5.4326074255403155e+03  5.2817020175657526e+03  5.1307966106683134e+03  4.9798912050743265e+03  4.8289858010594662e+03  4.6780803989593851e+03  4.5271749991827792e+03  4.3762696022273749e+03  4.2253642086996479e+03  4.0744588193391205e+03  3.9235534350484627e+03  3.7726480569308515e+03  3.6217426863366186e+03  3.4708373249217975e+03  3.3199319747221057e+03  3.1690266382470472e+03  3.0181213186008076e+03  2.8672160196390691e+03  2.7163107461747672e+03  2.5654055042516839e+03  2.4145003015136881e+03  2.2635951477114154e+03  2.1126900554105755e+03  1.9617850410028782e+03  1.8108801261825640e+03  1.6599753401587211e+03  1.5090707230678875e+03  1.3581663313971856e+03  1.2072622470180538e+03  1.0563585920734392e+03  9.0545556079254618e+02  7.5455344173443655e+02  6.0365294633956910e+02  4.5275398475765593e+02  3.0186470237448179e+02  1.5100001893845803e+02  3.0504525927510524e-02  3.0553722802234712e+04  3.0525635792118010e+04  3.0497261828762130e+04  3.0466746604966142e+04  3.0436352082494443e+04  3.0404729401080247e+04  3.0372944340852042e+04  3.0341070058832815e+04  3.0309096975398596e+04  3.0278587797576751e+04  3.0250247245332539e+04  3.0221946408349319e+04  3.0192337217715147e+04  3.0160200909540887e+04  3.0126429719726795e+04  3.0091355097029609e+04  3.0054332873397827e+04  3.0014250779715479e+04  2.9969518617709000e+04  2.9918861940297011e+04  2.9862508411638351e+04  2.9801608425724535e+04  2.9739025336004786e+04  2.9676877033387467e+04  2.9616907796470256e+04  2.9560337986550207e+04  2.9507364235043646e+04  2.9456910415676277e+04  2.1352119651752244e+04  2.1143178159213279e+04  2.0957523376864265e+04  2.0779910810497520e+04  2.0608153533824960e+04  2.0440801410536005e+04  2.0276834769275330e+04  2.0115496356411881e+04  1.9956215346350968e+04  1.9798556788127025e+04  1.9642186148830602e+04  1.9486843858159777e+04  1.9332326853431601e+04  1.9178475084366761e+04  1.9025161553655566e+04  1.8872284893983746e+04  1.8719763778844132e+04  1.8567532671299461e+04  1.8415538558777516e+04  1.8263738422191185e+04  1.8112097257707821e+04  1.7960586518724896e+04  1.7809182880482433e+04  1.7657867254666107e+04  1.7506623999338684e+04  1.7355440282648098e+04  1.7204305568418858e+04  1.7053211198924542e+04  1.6902150055548551e+04  1.6751116282151601e+04  1.6600105059118334e+04  1.6449112418497472e+04  1.6298135092555844e+04  1.6147170389566041e+04  1.5996216091834325e+04  1.5845270371921228e+04  1.5694331723764508e+04  1.5543398906023214e+04  1.5392470895453869e+04  1.5241546848528144e+04  1.5090626069825743e+04  1.4939707985999959e+04  1.4788792124329037e+04  1.4637878095042426e+04  1.4486965576755678e+04  1.4336054304465677e+04  1.4185144059655257e+04  1.4034234662135910e+04  1.3883325963322848e+04  1.3732417840690609e+04  1.3581510193201773e+04  1.3430602937537860e+04  1.3279696004991540e+04  1.3128789338904069e+04  1.2977882892552230e+04  1.2826976627405957e+04  1.2676070511691512e+04  1.2525164519206723e+04  1.2374258628343920e+04  1.2223352821284314e+04  1.2072447083333578e+04  1.1921541402373983e+04  1.1770635768412592e+04  1.1619730173208693e+04  1.1468824609966545e+04  1.1317919073082021e+04  1.1167013557933666e+04  1.1016108060710389e+04  1.0865202578269393e+04  1.0714297108018982e+04  1.0563391647821958e+04  1.0412486195915937e+04  1.0261580750847632e+04  1.0110675311418670e+04  9.9597698766409394e+03  9.8088644456997281e+03  9.6579590179233510e+03  9.5070535927581204e+03  9.3561481697476975e+03  9.2052427485160697e+03  9.0543373287535505e+03  8.9034319102052195e+03  8.7525264926614291e+03  8.6016210759499718e+03  8.4507156599296814e+03  8.2998102444851593e+03  8.1489048295224666e+03  7.9979994149656222e+03  7.8470940007537965e+03  7.6961885868390100e+03  7.5452831731843589e+03  7.3943777597626340e+03  7.2434723465553234e+03  7.0925669335519060e+03  6.9416615207494578e+03  6.7907561081525646e+03  6.6398506957734799e+03  6.4889452836325790e+03  6.3380398717591388e+03  6.1871344601924284e+03  6.0362290489831867e+03  5.8853236381955203e+03  5.7344182279093166e+03  5.5835128182232784e+03  5.4326074092586059e+03  5.2817020011636132e+03  5.1307965941193625e+03  4.9798911883465462e+03  4.8289857841139356e+03  4.6780803817487240e+03  4.5271749816492093e+03  4.3762695843003312e+03  4.2253641902927784e+03  4.0744588003465415e+03  3.9235534153400095e+03  3.7726480363460551e+03  3.6217426646769527e+03  3.4708373019406449e+03  3.3199319501116120e+03  3.1690266116206676e+03  3.0181212894698638e+03  2.8672159873807395e+03  2.7163107099876979e+03  2.5654054630933042e+03  2.4145002540099790e+03  2.2635950920242371e+03  2.1126899890380591e+03  1.9617849604714220e+03  1.8108800265580614e+03  1.6599752142466889e+03  1.5090705600560127e+03  1.3581661144755958e+03  1.2072619488921148e+03  1.0563581670585363e+03  9.0545492278075926e+02  7.5455245932350772e+02  6.0365113996894104e+02  4.5275160959599725e+02  3.0185741378328180e+02  1.5095887923307103e+02  -2.4393847521613846e-03  3.0552648875498257e+04  3.0524399504195124e+04  3.0495630293049624e+04  3.0465764302988959e+04  3.0435387995421112e+04  3.0404349994150805e+04  3.0373018076917710e+04  3.0341612261663697e+04  3.0310388589509072e+04  3.0280129547073950e+04  3.0251036556997879e+04  3.0222031443075775e+04  3.0192033021208070e+04  3.0160363747063100e+04  3.0127237711303635e+04  3.0092794496147450e+04  3.0056603383978709e+04  3.0017584633329283e+04  2.9973773765705802e+04  2.9922840890011688e+04  2.9865780298006961e+04  2.9802818138026323e+04  2.9738772239066551e+04  2.9675328309034270e+04  2.9614421446954988e+04  2.9557164024565252e+04  2.9503811555608965e+04  2.9458336131334185e+04  2.1337397694891733e+04  2.1137453195637056e+04  2.0951428799704030e+04  2.0774822019693223e+04  2.0604098867077311e+04  2.0437625905895446e+04  2.0274353459672697e+04  2.0113551107782689e+04  1.9954682139493987e+04  1.9797341240620975e+04  1.9641216987662141e+04  1.9486067162662737e+04  1.9331701578795921e+04  1.9177969738095388e+04  1.9024751768277900e+04  1.8871951659588380e+04  1.8719492151162147e+04  1.8567310820432660e+04  1.8415357062329029e+04  1.8263589734778088e+04  1.8111975308823014e+04  1.7960486404895008e+04  1.7809100627415686e+04  1.7657799631891958e+04  1.7506568374621129e+04  1.7355394506833869e+04  1.7204267883791206e+04  1.7053180165867030e+04  1.6902124493583615e+04  1.6751095222343596e+04  1.6600087705517337e+04  1.6449098116814566e+04  1.6298123304650269e+04  1.6147160672622311e+04  1.5996208081337380e+04  1.5845263767716411e+04  1.5694326278629464e+04  1.5543394416289539e+04  1.5392467193304321e+04  1.5241543795665650e+04  1.5090623552266869e+04  1.4939705909791068e+04  1.4788790412020177e+04  1.4637876682784034e+04  1.4486964411907391e+04  1.4336053343626481e+04  1.4185143267040470e+04  1.4034234008239700e+04  1.3883325423815897e+04  1.3732417395511517e+04  1.3581509825808089e+04  1.3430602634288629e+04  1.3279695754638255e+04  1.3128789132170969e+04  1.2977882721790278e+04  1.2826976486307492e+04  1.2676070395055014e+04  1.2525164422742797e+04  1.2374258548515334e+04  1.2223352755174108e+04  1.2072447028536280e+04  1.1921541356905924e+04  1.1770635730637918e+04  1.1619730141778404e+04  1.1468824583768173e+04  1.1317919051198161e+04  1.1167013539607768e+04  1.1016108045318551e+04  1.0865202565297110e+04  1.0714297097041954e+04  1.0563391638490270e+04  1.0412486187941009e+04  1.0261580743991473e+04  1.0110675305485003e+04  9.9597698714678736e+03  9.8088644411537280e+03  9.6579590138942676e+03  9.5070535891550699e+03  9.3561481664956791e+03  9.2052427455531761e+03  9.0543373260286444e+03  8.9034319076760421e+03  8.7525264902930157e+03  8.6016210737133533e+03  8.4507156578008035e+03  8.2998102424439785e+03  8.1489048275522155e+03  7.9979994130521773e+03  7.8470939988851433e+03  7.6961885850048166e+03  7.5452831713755668e+03  7.3943777579711386e+03  7.2434723447736542e+03  7.0925669317729689e+03  6.9416615189662580e+03  6.7907561063579396e+03  6.6398506939598437e+03  6.4889452817916335e+03  6.3380398698815525e+03  6.1871344582675001e+03  6.0362290469984364e+03  5.8853236361362142e+03  5.7344182257579105e+03  5.5835128159587475e+03  5.4326074068556436e+03  5.2817019985916486e+03  5.1307965913413782e+03  4.9798911853176278e+03  4.8289857807794951e+03  4.6780803780423130e+03  4.5271749774898153e+03  4.3762695795890322e+03  4.2253641849085589e+03  4.0744587941410600e+03  3.9235534081309897e+03  3.7726480279088796e+03  3.6217426547339091e+03  3.4708372901469916e+03  3.3199319360373643e+03  3.1690265947264998e+03  3.0181212690747825e+03  2.8672159626181101e+03  2.7163106797444425e+03  2.5654054259243890e+03  2.4145002080158433e+03  2.2635950