<?xml version="1.0"?>
<VTKFile type="UnstructuredGrid"  version="0.1"  >
<UnstructuredGrid>
<Piece  NumberOfPoints="21400" NumberOfCells="42336">
<Points>
<DataArray  type="Float64"  NumberOfComponents="3"  format="ascii">0 0 0  0.004583333333333333 0 0  0.009166666666666667 0 0  0.01375 0 0  0.01833333333333333 0 0  0.02291666666666667 0 0  0.0275 0 0  0.03208333333333334 0 0  0.03666666666666667 0 0  0.04125 0 0  0.04583333333333334 0 0  0.05041666666666667 0 0  0.055 0 0  0.05958333333333334 0 0  0.06416666666666668 0 0  0.06875000000000001 0 0  0.07333333333333333 0 0  0.07791666666666666 0 0  0.08249999999999999 0 0  0.08708333333333333 0 0  0.09166666666666667 0 0  0.09625000000000002 0 0  0.1008333333333333 0 0  0.1054166666666667 0 0  0.11 0 0  0.1145833333333333 0 0  0.1191666666666667 0 0  0.12375 0 0  0.1283333333333334 0 0  0.1329166666666667 0 0  0.1375 0 0  0.1420833333333333 0 0  0.1466666666666667 0 0  0.15125 0 0  0.1558333333333333 0 0  0.1604166666666667 0 0  0.165 0 0  0.1695833333333333 0 0  0.1741666666666667 0 0  0.17875 0 0  0.1833333333333333 0 0  0.1879166666666667 0 0  0.1925 0 0  0.1970833333333333 0 0  0.2016666666666667 0 0  0.20625 0 0  0.2108333333333333 0 0  0.2154166666666666 0 0  0.22 0 0  0.2245833333333334 0 0  0.2291666666666667 0 0  0.23375 0 0  0.2383333333333333 0 0  0.2429166666666667 0 0  0.2475 0 0  0.2520833333333333 0 0  0.2566666666666667 0 0  0.26125 0 0  0.2658333333333334 0 0  0.2704166666666666 0 0  0.275 0 0  0.2795833333333334 0 0  0.2841666666666667 0 0  0.28875 0 0  0.2933333333333333 0 0  0.2979166666666667 0 0  0.3025 0 0  0.3070833333333334 0 0  0.3116666666666666 0 0  0.31625 0 0  0.3208333333333333 0 0  0.3254166666666667 0 0  0.33 0 0  0.3345833333333333 0 0  0.3391666666666667 0 0  0.34375 0 0  0.3483333333333333 0 0  0.3529166666666667 0 0  0.3575 0 0  0.3620833333333333 0 0  0.3666666666666667 0 0  0.37125 0 0  0.3758333333333334 0 0  0.3804166666666667 0 0  0.3850000000000001 0 0  0.3895833333333333 0 0  0.3941666666666667 0 0  0.39875 0 0  0.4033333333333334 0 0  0.4079166666666666 0 0  0.4125 0 0  0.4170833333333334 0 0  0.4216666666666667 0 0  0.42625 0 0  0.4308333333333333 0 0  0.4354166666666667 0 0  0.44 0 0  0.4445833333333333 0 0  0.4491666666666667 0 0  0.45375 0 0  0.4583333333333333 0 0  0.4629166666666666 0 0  0.4675 0 0  0.4720833333333334 0 0  0.4766666666666667 0 0  0.4812500000000001 0 0  0.4858333333333333 0 0  0.4904166666666667 0 0  0.495 0 0  0.4995833333333334 0 0  0.5041666666666667 0 0  0.50875 0 0  0.5133333333333334 0 0  0.5179166666666667 0 0  0.5225 0 0  0.5270833333333333 0 0  0.5316666666666667 0 0  0.53625 0 0  0.5408333333333333 0 0  0.5454166666666667 0 0  0.55 0 0  0.5545833333333333 0 0  0.5591666666666667 0 0  0.5637500000000001 0 0  0.5683333333333334 0 0  0.5729166666666666 0 0  0.5775 0 0  0.5820833333333334 0 0  0.5866666666666667 0 0  0.5912499999999999 0 0  0.5958333333333334 0 0  0.6004166666666667 0 0  0.605 0 0  0.6095833333333334 0 0  0.6141666666666667 0 0  0.61875 0 0  0.6233333333333333 0 0  0.6279166666666667 0 0  0.6325000000000001 0 0  0.6370833333333333 0 0  0.6416666666666666 0 0  0.64625 0 0  0.6508333333333334 0 0  0.6554166666666666 0 0  0.6599999999999999 0 0  0.6645833333333334 0 0  0.6691666666666667 0 0  0.67375 0 0  0.6783333333333333 0 0  0.6829166666666667 0 0  0.6875 0 0  0.6920833333333333 0 0  0.6966666666666667 0 0  0.70125 0 0  0.7058333333333333 0 0  0.7104166666666667 0 0  0.7150000000000001 0 0  0.7195833333333334 0 0  0.7241666666666666 0 0  0.72875 0 0  0.7333333333333334 0 0  0.7379166666666667 0 0  0.7425 0 0  0.7470833333333333 0 0  0.7516666666666667 0 0  0.75625 0 0  0.7608333333333334 0 0  0.7654166666666666 0 0  0.7700000000000001 0 0  0 0.002380952380952381 0  0.004583333333333333 0.002380952380952381 0  0.009166666666666667 0.002380952380952381 0  0.01375 0.002380952380952381 0  0.01833333333333333 0.002380952380952381 0  0.02291666666666667 0.002380952380952381 0  0.0275 0.002380952380952381 0  0.03208333333333334 0.002380952380952381 0  0.03666666666666667 0.002380952380952381 0  0.04125 0.002380952380952381 0  0.04583333333333334 0.002380952380952381 0  0.05041666666666667 0.002380952380952381 0  0.055 0.002380952380952381 0  0.05958333333333334 0.002380952380952381 0  0.06416666666666668 0.002380952380952381 0  0.06875000000000001 0.002380952380952381 0  0.07333333333333333 0.002380952380952381 0  0.07791666666666666 0.002380952380952381 0  0.08249999999999999 0.002380952380952381 0  0.08708333333333333 0.002380952380952381 0  0.09166666666666667 0.002380952380952381 0  0.09625000000000002 0.002380952380952381 0  0.1008333333333333 0.002380952380952381 0  0.1054166666666667 0.002380952380952381 0  0.11 0.002380952380952381 0  0.1145833333333333 0.002380952380952381 0  0.1191666666666667 0.002380952380952381 0  0.12375 0.002380952380952381 0  0.1283333333333334 0.002380952380952381 0  0.1329166666666667 0.002380952380952381 0  0.1375 0.002380952380952381 0  0.1420833333333333 0.002380952380952381 0  0.1466666666666667 0.002380952380952381 0  0.15125 0.002380952380952381 0  0.1558333333333333 0.002380952380952381 0  0.1604166666666667 0.002380952380952381 0  0.165 0.002380952380952381 0  0.1695833333333333 0.002380952380952381 0  0.1741666666666667 0.002380952380952381 0  0.17875 0.002380952380952381 0  0.1833333333333333 0.002380952380952381 0  0.1879166666666667 0.002380952380952381 0  0.1925 0.002380952380952381 0  0.1970833333333333 0.002380952380952381 0  0.2016666666666667 0.002380952380952381 0  0.20625 0.002380952380952381 0  0.2108333333333333 0.002380952380952381 0  0.2154166666666666 0.002380952380952381 0  0.22 0.002380952380952381 0  0.2245833333333334 0.002380952380952381 0  0.2291666666666667 0.002380952380952381 0  0.23375 0.002380952380952381 0  0.2383333333333333 0.002380952380952381 0  0.2429166666666667 0.002380952380952381 0  0.2475 0.002380952380952381 0  0.2520833333333333 0.002380952380952381 0  0.2566666666666667 0.002380952380952381 0  0.26125 0.002380952380952381 0  0.2658333333333334 0.002380952380952381 0  0.2704166666666666 0.002380952380952381 0  0.275 0.002380952380952381 0  0.2795833333333334 0.002380952380952381 0  0.2841666666666667 0.002380952380952381 0  0.28875 0.002380952380952381 0  0.2933333333333333 0.002380952380952381 0  0.2979166666666667 0.002380952380952381 0  0.3025 0.002380952380952381 0  0.3070833333333334 0.002380952380952381 0  0.3116666666666666 0.002380952380952381 0  0.31625 0.002380952380952381 0  0.3208333333333333 0.002380952380952381 0  0.3254166666666667 0.002380952380952381 0  0.33 0.002380952380952381 0  0.3345833333333333 0.002380952380952381 0  0.3391666666666667 0.002380952380952381 0  0.34375 0.002380952380952381 0  0.3483333333333333 0.002380952380952381 0  0.3529166666666667 0.002380952380952381 0  0.3575 0.002380952380952381 0  0.3620833333333333 0.002380952380952381 0  0.3666666666666667 0.002380952380952381 0  0.37125 0.002380952380952381 0  0.3758333333333334 0.002380952380952381 0  0.3804166666666667 0.002380952380952381 0  0.3850000000000001 0.002380952380952381 0  0.3895833333333333 0.002380952380952381 0  0.3941666666666667 0.002380952380952381 0  0.39875 0.002380952380952381 0  0.4033333333333334 0.002380952380952381 0  0.4079166666666666 0.002380952380952381 0  0.4125 0.002380952380952381 0  0.4170833333333334 0.002380952380952381 0  0.4216666666666667 0.002380952380952381 0  0.42625 0.002380952380952381 0  0.4308333333333333 0.002380952380952381 0  0.4354166666666667 0.002380952380952381 0  0.44 0.002380952380952381 0  0.4445833333333333 0.002380952380952381 0  0.4491666666666667 0.002380952380952381 0  0.45375 0.002380952380952381 0  0.4583333333333333 0.002380952380952381 0  0.4629166666666666 0.002380952380952381 0  0.4675 0.002380952380952381 0  0.4720833333333334 0.002380952380952381 0  0.4766666666666667 0.002380952380952381 0  0.4812500000000001 0.002380952380952381 0  0.4858333333333333 0.002380952380952381 0  0.4904166666666667 0.002380952380952381 0  0.495 0.002380952380952381 0  0.4995833333333334 0.002380952380952381 0  0.5041666666666667 0.002380952380952381 0  0.50875 0.002380952380952381 0  0.5133333333333334 0.002380952380952381 0  0.5179166666666667 0.002380952380952381 0  0.5225 0.002380952380952381 0  0.5270833333333333 0.002380952380952381 0  0.5316666666666667 0.002380952380952381 0  0.53625 0.002380952380952381 0  0.5408333333333333 0.002380952380952381 0  0.5454166666666667 0.002380952380952381 0  0.55 0.002380952380952381 0  0.5545833333333333 0.002380952380952381 0  0.5591666666666667 0.002380952380952381 0  0.5637500000000001 0.002380952380952381 0  0.5683333333333334 0.002380952380952381 0  0.5729166666666666 0.002380952380952381 0  0.5775 0.002380952380952381 0  0.5820833333333334 0.002380952380952381 0  0.5866666666666667 0.002380952380952381 0  0.5912499999999999 0.002380952380952381 0  0.5958333333333334 0.002380952380952381 0  0.6004166666666667 0.002380952380952381 0  0.605 0.002380952380952381 0  0.6095833333333334 0.002380952380952381 0  0.6141666666666667 0.002380952380952381 0  0.61875 0.002380952380952381 0  0.6233333333333333 0.002380952380952381 0  0.6279166666666667 0.002380952380952381 0  0.6325000000000001 0.002380952380952381 0  0.6370833333333333 0.002380952380952381 0  0.6416666666666666 0.002380952380952381 0  0.64625 0.002380952380952381 0  0.6508333333333334 0.002380952380952381 0  0.6554166666666666 0.002380952380952381 0  0.6599999999999999 0.002380952380952381 0  0.6645833333333334 0.002380952380952381 0  0.6691666666666667 0.002380952380952381 0  0.67375 0.002380952380952381 0  0.6783333333333333 0.002380952380952381 0  0.6829166666666667 0.002380952380952381 0  0.6875 0.002380952380952381 0  0.6920833333333333 0.002380952380952381 0  0.6966666666666667 0.002380952380952381 0  0.70125 0.002380952380952381 0  0.7058333333333333 0.002380952380952381 0  0.7104166666666667 0.002380952380952381 0  0.7150000000000001 0.002380952380952381 
[...]
<PointData  Scalars="pressure"> 
<DataArray  type="Float64"  Name="pressure"  format="ascii">8.6090216315936086e+03  8.5793265449627706e+03  8.5521168822449072e+03  8.5235283458570520e+03  8.4936555764051118e+03  8.4582809591943751e+03  8.4255868158485682e+03  8.3928661456624359e+03  8.3572933245191180e+03  8.3280704187591073e+03  8.3042776067116902e+03  8.2779454256807185e+03  8.2508579666709447e+03  8.2234281307287547e+03  8.1958060963206717e+03  8.1680350919230423e+03  8.1400754280919491e+03  8.1118279577970261e+03  8.0832424690800153e+03  8.0544650224474099e+03  8.0257194570858810e+03  7.9969874807972265e+03  7.9680986041360584e+03  7.9389625719290407e+03  7.9095877099434765e+03  7.8799981360833563e+03  7.8502659046840135e+03  7.8204758156463704e+03  7.7905159097466640e+03  7.7602017309572557e+03  7.7295122979271873e+03  7.6986363418661740e+03  7.6678696242650831e+03  7.6374632649810146e+03  7.6075448766584977e+03  7.5781712029797673e+03  7.5494627642528058e+03  7.5217232075778429e+03  7.4965276593249837e+03  5.4434701701727827e+03  5.4152699384177658e+03  5.3918052419201485e+03  5.3695193587220447e+03  5.3474716571719891e+03  5.3256621139975905e+03  5.3039171010491082e+03  5.2822239011086358e+03  5.2605343563659735e+03  5.2388166632809234e+03  5.2170686163940782e+03  5.1952506391790312e+03  5.1733944936457792e+03  5.1514919401701218e+03  5.1295348126136059e+03  5.1066721276778098e+03  5.0827386669593971e+03  5.0579338943658595e+03  5.0331315455441481e+03  5.0105069245339082e+03  4.9842825762150205e+03  4.9601376826817277e+03  4.9360773470834010e+03  4.9118418090211799e+03  4.8873609366646697e+03  4.8624457522723360e+03  4.8370919216645398e+03  4.8111885876481829e+03  4.7839462940502181e+03  4.7559041123378529e+03  4.7282339267540210e+03  4.7016288147859259e+03  4.6747736539811331e+03  4.6448770273610380e+03  4.6177776199953532e+03  4.5937588063980920e+03  4.5670586715217059e+03  4.5409717236172792e+03  4.5161367488993865e+03  4.4918321521940152e+03  4.4668860751193788e+03  4.4401297141802215e+03  4.4114976069839822e+03  4.3811805568562986e+03  4.3505217524336440e+03  4.3193205577396602e+03  4.2880848796600540e+03  4.2560513296864410e+03  4.2233552442392493e+03  4.1896520588014109e+03  4.1557676131242970e+03  4.1215542210624080e+03  4.0878451422499279e+03  4.0543468153361605e+03  4.0217058816408858e+03  3.9894822554075968e+03  3.9581749136588446e+03  3.9272846149803481e+03  3.8971429752491667e+03  3.8667498905936750e+03  3.8362888496279861e+03  3.8062345602149117e+03  3.7765640838603208e+03  3.7472491841225856e+03  3.7181923056581236e+03  3.6893848223730524e+03  3.6607441501987169e+03  3.6322784105454652e+03  3.6039167148256643e+03  3.5756791786328090e+03  3.5475031673437834e+03  3.5194171084628151e+03  3.4913640581694567e+03  3.4633781091900291e+03  3.4354061835782181e+03  3.4074861908582125e+03  3.3795676515781856e+03  3.3516910252235907e+03  3.3238075657562563e+03  3.2959594259008218e+03  3.2680990096802734e+03  3.2402695888830908e+03  3.2124243270521006e+03  3.1846072316812961e+03  3.1567719639710176e+03  3.1289630090223141e+03  3.1011343450005875e+03  3.0733307519452437e+03  3.0455063835994729e+03  3.0177061570014653e+03  2.9898842361415191e+03  2.9620854384269192e+03  2.9342635397075405e+03  2.9064624482628246e+03  2.8786337881010645e+03  2.8508164840068866e+03  2.8229463443145801e+03  2.7949970318185733e+03  2.7667060858712903e+03  2.7378716824019984e+03  2.7085332066162932e+03  2.6787095587425670e+03  2.6483617189419601e+03  2.6174359903429836e+03  2.5858551550060633e+03  2.5535158307316988e+03  2.5202921165963817e+03  2.4860405428925396e+03  2.4507136529513755e+03  2.4147998554675814e+03  2.3790321940208610e+03  2.3428399104966902e+03  2.3060166971273920e+03  2.2699820321382922e+03  2.2064671308771231e+03  2.0751387050095573e+03  1.9255662963662589e+03  1.7782474247772539e+03  1.6325476469312589e+03  1.4867897000102498e+03  1.3404100273124525e+03  1.1932810248884175e+03  1.0454539903380171e+03  8.9703961732045593e+02  7.4815765700460327e+02  5.9891893489828408e+02  4.4941230446559325e+02  2.9977532505248718e+02  1.4953037593693119e+02  4.2401807176449147e+00  8.6073691264604404e+03  8.5790099074199261e+03  8.5529869874400865e+03  8.5217593358550639e+03  6.1861618532987550e+03  6.1613173748721156e+03  6.1377434483858351e+03  6.1141535208956520e+03  6.0892601527561837e+03  8.3287539161200657e+03  8.3044705894122035e+03  8.2780127051967374e+03  8.2508920515926511e+03  8.2234472267336405e+03  8.1958208305443113e+03  8.1680542327463809e+03  8.1401072129419508e+03  8.1118690653621616e+03  8.0832658617132538e+03  8.0544550790070753e+03  8.0257150542393092e+03  7.9970069198636093e+03  7.9681275528406168e+03  7.9389881073982542e+03  7.9096119846789770e+03  7.8800150877087553e+03  7.8502668479094036e+03  7.8204928305908588e+03  7.7905580954229818e+03  7.7602465492998854e+03  7.7295345504919487e+03  7.6986233751485497e+03  7.6678278369519858e+03  7.6374088510426373e+03  7.6074868219122136e+03  7.5781032317916288e+03  7.5493593727661228e+03  7.5215726387122850e+03  7.4956510527715236e+03  7.4705887875629369e+03  5.4148270277404899e+03  7.4015972491238163e+03  5.3694648424506559e+03  7.3407467344863417e+03  5.3256473696487101e+03  7.2809658326169911e+03  5.2822212688497830e+03  7.2214165889758724e+03  5.2388207637306905e+03  7.1617515660298195e+03  5.1952565630236722e+03  7.1017953820688836e+03  5.1514956106569762e+03  7.0416273544558499e+03  5.1069087364022062e+03  6.9773860195576372e+03  5.0579316317407711e+03  6.9091910901177343e+03  5.0097863825949380e+03  4.9841398318268875e+03  4.9601504863582313e+03  4.9360978437221156e+03  4.9118654428624177e+03  4.8874135058238917e+03  4.8625000958963328e+03  4.8371223888206996e+03  4.8113808985934947e+03  4.7840384898515595e+03  4.7558659083795392e+03  4.7280621567488233e+03  4.7016588175634934e+03  4.6750094860644303e+03  4.6458257948888840e+03  6.3395621795507532e+03  6.3064177370774378e+03  6.2693070643536812e+03  6.2334670035177787e+03  6.1994705496233373e+03  6.1662418152647251e+03  6.1321728449513903e+03  6.0954043016703981e+03  6.0561379883882428e+03  6.0142566790306519e+03  5.9722985717220427e+03  5.9293077449550319e+03  5.8866162522890972e+03  5.8425482656416107e+03  5.7977895158131396e+03  5.7513294959516861e+03  5.7049285214469337e+03  5.6577640562644119e+03  5.6116240717744940e+03  5.5654647831740922e+03  5.5208059273125582e+03  5.4764176686375868e+03  5.4335915810985143e+03  5.3910488411635597e+03  5.3498843966889526e+03  5.3080986491320728e+03  5.2662153788324422e+03  5.2249772256381229e+03  5.1842428647790812e+03  5.1440199897698794e+03  5.1041250091702650e+03  5.0645973127179795e+03  5.0252714139637428e+03  4.9862117411942118e+03  4.9472672069824193e+03  4.9085200155174671e+03  4.8698292741764253e+03  4.8312894799306732e+03  4.7927667814167544e+03  4.7543640429953766e+03  4.7159522026066215e+03  4.6776397564053359e+03  4.6393008646018716e+03  4.6010477830378186e+03  4.5627568231654368e+03  4.5245427357685785e+03  4.4862832606897618e+03  4.4480947966574886e+03  4.4098560276575445e+03  4.3716844353009719e+03  4.3334593226407569e+03  4.2952988745108260e+03  4.2570827877108668e+03  4.2189296836839130e+03  4.1807194738993921e+03  4.1425709922623582e+03  4.1043641486439010e+03  4.0662176705096354e+03  4.0280109439883122e+03  3.9898615612305184e+03  3.9516460415600850e+03  3.9134755557147132e+03  3.8752079922103917e+03  3.8368813547074242e+03  3.7980720727945527e+03  3.7584778935249469e+03  3.7182014980619469e+03  3.6772666100960460e+03  3.6356123093636097e+03  3.5931679515155265e+03  3.5498273666145324e+03  3.5054478982925975e+03  3.4598581353976797e+03  3.4128567272192026e+03  3.3643054815662531e+03  3.3148630592852578e+03  3.2659024772125144e+03  3.2161972099763261e+03  3.1655291942705262e+03  3.1157545365824117e+03  2.2143175573486733e+03  2.0762665837111977e+03  1.9249766904230128e+03  1.7781190214971537e+03  1.6325684022178136e+03  1.4868643360196108e+03  1.3404943703998215e+03  1.1933579590616666e+03  1.0455180991458481e+03  8.9709036839504654e+02  7.4819646720405069e+02  5.9894639513567154e+02  4.4943912029483255e+02  2.9972559395854506e+02  1.5009477685725787e+02  -2.2960807175014236e-01  8.6062136223637899e+03  8.5781471082007392e+03  8.5515225092937126e+03  8.5188037073280066e+03  8.4897849420367584e+03  8.4572884768913173e+03  8.4256011894545827e+03  8.3939121713002714e+03  8.3614334533853962e+03  8.3310606824990955e+03  8.3050091213101005e+03  8.2782443881321124e+03  8.2510048124553723e+03  8.2235114824007069e+03  8.1958697972753253e+03  8.1681181138528254e+03  8.1402174139672788e+03  8.1120200849118983e+03  8.0833550244603830e+03  8.0544049432235479e+03  8.0256953206742446e+03  7.9970797149891359e+03  7.9682321306494132e+03  7.9390747415536134e+03  7.9096974366623144e+03  7.8800803722282726e+03  7.8502567574166842e+03  7.8205499312565316e+03  7.7907117502971278e+03  7.7604090979280545e+03  7.7296155760533911e+03  7.6985763496367099e+03  7.6676777765375655e+03  7.6372170888718083e+03  7.6072871878873020e+03  7.5778708279160410e+03  7.5490224708200349e+03  7.5209707038060451e+03  7.4938899571243646e+03  7.4666111851863179e+03  7.4329937442967521e+03  7.4014245406387936e+03  7.3708651971298605e+03  7.3407005594225957e+03  7.3107742536102387e+03  7.2809466291713779e+03  7.2511831667427450e+03  7.2214099946350689e+03  7.1916180758436803e+03  7.1617521643274731e+03  7.1318191086571678e+03  7.1017921267425054e+03  7.0717227577547974e+03  7.0417012266763359e+03  7.0111542458563717e+03  6.9774430024192361e+03  6.9432952919346762e+03  6.9090770733047384e+03  6.8754649474817879e+03  6.8418159742368034e+03  6.8090971120080821e+03  6.7760802389600340e+03  6.7428109312482429e+03  6.7093225652480132e+03  6.6751736332332657e+03  6.6400972132174011e+03  6.6054292930519314e+03  6.5674499012084361e+03  6.5285913089351288e+03  6.4898803726644492e+03  6.4543324773553031e+03  6.4181237988765515e+03  6.3792176965132294e+03  6.3414120061507838e+03  6.3071399580287025e+03  6.2688637009641852e+03  6.2330875141273682e+03  6.1993149157430889e+03  6.1663609871249446e+03  6.1328423987060651e+03  6.0957722384243307e+03  6.0568751718297017e+03  6.0139880029786700e+03  5.9727502621884223e+03  5.9289820725462023e+03  5.8871184021271338e+03  5.8424763591538149e+03  5.7983699003433785e+03  5.7510663541338236e+03  5.7053333612922279e+03  5.6572980263651480e+03  5.6118831110713354e+03  5.5649106412802294e+03  5.5210016573649873e+03  5.4758634818704422e+03  5.4337760026100141e+03  5.3905254121886755e+03  5.3501956916865665e+03  5.3080856891483591e+03  5.2660540549223342e+03  5.2248999468375423e+03  5.1841226960706927e+03  5.1439770206124476e+03  5.1040322851486389e+03  5.0645797475484660e+03  5.0251976806817029e+03  4.9862116411006627e+03  4.9472064024364818e+03  4.9085317416129119e+03  4.8697771718728827e+03  4.8313091354080052e+03  4.7927204884192024e+03  4.7543889765031126e+03  4.7159097638575349e+03  4.6776681838658669e+03  4.6392609709764574e+03  4.6010785135045226e+03  4.5627186038585915e+03  4.5245749787863533e+03  4.4862461392956329e+03  4.4481280299590462e+03  4.4098196244386472e+03  4.3717183158826974e+03  4.3334233898317298e+03  4.2953331810848358e+03  4.2570471694291982e+03  4.2189642842614448e+03  4.1806840887941216e+03  4.1426058415931711e+03  4.1043290116102471e+03  4.0662528808711440e+03  4.0279763320571487e+03  3.9898978664866440e+03  3.9516135456443590e+03  3.9135169255697547e+03  3.8751887788927752e+03  3.8369872949583678e+03  3.7982381408123629e+03  3.7586061530781130e+03  3.7183279039251815e+03  3.6774077418321199e+03  3.6357654354107176e+03  3.5933421426580626e+03  3.5500296982680770e+03  3.5056832203547756e+03  3.4601335656407896e+03  3.4131794444960110e+03  3.3645456765725380e+03  3.3146092319683748e+03  3.2661326948052110e+03  3.2164023336389305e+03  3.1656415680133946e+03  3.1146322235802054e+03  3.0491720816623433e+03  2.0756744687851779e+03  1.9232405287207846e+03  1.7777226967214642e+03  1.6326666115222022e+03  1.4871335603542479e+03  1.3407905040736659e+03  1.1936255246231344e+03  1.0457400419049914e+03  8.9726569338044703e+02  7.4832989277059562e+02  5.9904449168891256e+02  4.4950283894866266e+02  2.9979106444790148e+02  1.4999030423386500e+02  3.0790454084651666e-02  8.6050933164909238e+03  8.5770302344469092e+03  8.5487398533319920e+03  8.5183852921571506e+03  8.4882290976056865e+03  8.4569445497199013e+03  8.4256019398308454e+03  8.3942872169499915e+03  8.3630007721322963e+03  8.3332723366774953e+03  8.3057893723934412e+03  8.2785921225223246e+03  8.2511823783410273e+03  8.2236131869894980e+03  8.1959454965909463e+03  8.1682170948674375e+03  8.1404038200176228e+03  8.1123121009772776e+03  8.0835524844658712e+03  8.0542390267273158e+03  8.0256491617471675e+03  7.9972282308557878e+03  7.9684296033256187e+03  7.9392123197753144e+03  7.9098446355780143e+03  7.8802328180348759e+03  7.8501694654810144e+03  7.8206454346601340e+03  7.7910060565564409e+03  7.7607153187507765e+03  7.7297700712503956e+03  7.6984864886012383e+03  7.6673993400648033e+03  7.6368768511381659e+03  7.6069528255960686e+03  7.5774930417167834e+03  7.5484788902177161e+03  7.5200493300467333e+03  7.4920814637717194e+03  7.4634459097166891e+03  7.4321980291366863e+03  7.4011345738545824e+03  7.3707160028886929e+03  7.3406282967631114e+03  7.3107323583109646e+03  7.2809332128175784e+03  7.2511803277441431e+03  7.2214257481194627e+03  7.1916388311399769e+03  7.1617856174714925e+03  7.1318479973065751e+03  7.1018160352769055e+03  7.0717227395059690e+03  7.0416468213648805e+03  7.0128466151704142e+03  6.9773406157169529e+03  6.9433135059907518e+03  6.9091751504912882e+03  6.8729239726623582e+03  6.8418835212281656e+03  6.8091681263335686e+03  6.7761640066472291e+03  6.7428642435402362e+03  6.7094761518730675e+03  6.6756898420441603e+03  6.6394727919236593e+03  6.6071100390848251e+03  6.5673933529625956e+03  6.5288777200721734e+03  6.4882520700684445e+03  6.4548218332844135e+03  6.4188314585994221e+03  6.3810991019990479e+03  6.3433576006394778e+03  6.3098525765567392e+03  6.2669248298606199e+03  6.2322962832208996e+03  6.1989618764889074e+03  6.1663661344014281e+03  6.1351473239898860e+03  6.0957852401570817e+03  6.0598037334537394e+03  6.0119620513830714e+03  5.9751725548887152e+03  5.9268502851573967e+03  5.8895729336003324e+03  5.8411131218193877e+03  5.8010551387130390e+03  5.7491088333558828e+03  5.7076763259476329e+03  5.6548132556543715e+03  5.6138899102105061e+03  5.5622433902280090e+03  5.5228209114421306e+03  5.4732531614514992e+03  5.4355096568939562e+03  5.3880647602958006e+03  5.3518620871278135e+03  5.3078235923506536e+03  5.2656246514706054e+03  5.2248227054812705e+03  5.1837528654677335e+03  5.1439881721262600e+03  5.1037192828162979e+03  5.0646529162517709e+03  5.0249241293036648e+03  4.9863274174078697e+03  4.9469596648363686e+03  4.9086763773263947e+03  4.8695484605923593e+03  4.8314731255406714e+03  4.7925038002444935e+03  4.7545658515364230e+03  4.7157010474480103e+03  4.6778535893123335e+03  4.6390575163060657e+03  4.6012695419466318e+03  4.5625186096597163e+03  4.5247697001521137e+03  4.4860484139734654e+03  4.4483251687570346e+03  4.4096233833045735e+03  4.3719170341971494e+03  4.3332281209269859e+03  4.2955329381191123e+03  4.2568525500884289e+03  4.2191647571784106e+03  4.1804899481316052e+03  4.1428069182954214e+03  4.1041353694951831e+03  4.0664548292157947e+03  4.0277836957576656e+03  3.9901023574897158e+03  3.9514249750313629e+03  3.9137333868584046e+03  3.8750234172374471e+03  3.8373050797913515e+03  3.7985894714293945e+03  3.7588936494469185e+03  3.7186054038539160e+03  3.6777269211131465e+03  3.6361064594947879e+03  3.5937319180041559e+03  3.5504838770504280e+03  3.5062096780513511e+03  3.4607548451884973e+03  3.4138752475127048e+03  3.3653914624168810e+03  3.3133149941644388e+03  3.2669958028873216e+03  3.2169924987730337e+03  3.1652783765379227e+03  3.1161500463787656e+03  2.2071977037855518e+03  2.0671870860009230e+03  1.9209917620193778e+03  1.7772122876232136e+03  1.6329266718057352e+03  1.4876323256457977e+03  1.3413125339400710e+03  1.1940884045350654e+03  1.0461205200793663e+03  8.9756475613043631e+02  7.4855698618010013e+02  5.9921027094032752e+02  4.4961739389926902e+02  2.9985761423563599e+02  1.4998510331573078e+02  -1.9528106451809802e-03  8.6039676699737684e+03  8.5757429501279348e+03  8.5470598523724293e+03  8.5173510226914259e+03  8.4872104464097829e+03  8.4565001707771062e+03  8.4255981977552929e+03  8.3947372529571239e+03  8.3641845223867131e+03  8.3347267204103755e+03  8.3066144311779299e+03  8.2790014826405695e+03  8.2514026926338338e+03  8.2237405594925567e+03  8.1960357900672243e+03  8.1683316648985510e+03  8.1406541599513257e+03  8.1127882293821649e+03  8.0840186836656931e+03  8.0537155584453694e+03  8.0255968984349001e+03  7.9974941941738425e+03  7.9687607679247685e+03  7.9393719502432514e+03  7.9100214572737104e+03  7.8806373119881146e+03  7.8497819465564571e+03  7.8208157343491866e+03  7.7914946244231560e+03  7.7612103120973252e+03  7.7300289105669481e+03  7.6983339189077878e+03  7.6669520930732406e+03  7.6363672207689169e+03  7.6064994637187210e+03  7.5770064070194121e+03  7.5477654380933864e+03  7.5189731793306610e+03  7.4903343754359912e+03  7.4613050100281216e+03  7.4311246003325841e+03  7.4006794924402084e+03  7.3704826384590679e+03  7.3405042974384132e+03  7.3106657031086961e+03  7.2809052060600206e+03  7.2511787698342678e+03  7.2214475498599322e+03  7.1916785495697432e+03  7.1618394361877936e+03  7.1319043015680663e+03  7.1018574193666618e+03  7.0717155951812292e+03  7.0415605240256928e+03  7.0126782449832872e+03  6.9772537615457140e+03  6.9434186684021051e+03  6.9092688152692772e+03  6.8727442617972392e+03  6.8419986398627170e+03  6.8093280063069360e+03  6.7763278132124660e+03  6.7429825984470044e+03  6.7094273930988184e+03  6.6776950140309536e+03  6.6373026366040513e+03  6.6070236327754328e+03  6.5676386830331394e+03  6.5296400833560647e+03  6.4890721082652954e+03  6.4555592750030419e+03  6.4200989685120821e+03  6.3832441924738750e+03  6.3440479335845930e+03  6.3108810594614952e+03  6.2687402704021142e+03  6.2298942483918918e+03  6.1987220576124701e+03  6.1662561326266778e+03  6.1356362195895736e+03  6.0996449120595844e+03  4.4156949283560334e+03  6.0109460020525839e+03  4.3532906284825094e+03  5.9257235802406412e+03  4.2906200829225636e+03  5.8428949758652052e+03  4.2252422276044827e+03  5.7499119546028423e+03  4.1555878922697502e+03  5.6544231397266658e+03  4.0863332665077437e+03  5.5612403111480717e+03  4.0198276590830728e+03  5.4721456199532931e+03  3.9563888592616977e+03  5.3870599170990126e+03  3.8956893754702842e+03  5.3080585871261846e+03  3.8325353705187817e+03  5.2253976395771861e+03  3.7733191032080622e+03  5.1448564285295824e+03  3.7153285466465436e+03  5.0657295837666234e+03  3.6581434746258060e+03  4.9875474857246318e+03  3.6014945865158684e+03  4.9099936691963358e+03  3.5452009552631780e+03  4.8328556650715318e+03  3.4891417703660127e+03  4.7559918499598489e+03  3.4332368613100007e+03  4.6793083690752010e+03  3.3774332766064190e+03  4.6027432970035034e+03  3.3216961694986421e+03  4.5262559174508988e+03  3.2660026784611377e+03  4.4498195419654830e+03  3.2103378514984897e+03  4.3734167326952829e+03  3.1546919455023840e+03  4.2970361337382210e+03  3.0990586384590056e+03  4.2206703575479496e+03  3.0434338398015402e+03  4.1443145393413706e+03  2.9878149219995435e+03  4.0679653370574642e+03  2.9322006050683203e+03  3.9916209422093189e+03  2.8765949426800889e+03  3.9152888278060077e+03  2.8210431124886063e+03  3.8391251651062439e+03  2.7669394054594886e+03  2.7400587006302017e+03  2.7101967602111213e+03  2.6806785467211457e+03  2.6504871346422965e+03  2.6198587623977064e+03  2.5886861413929910e+03  2.5567856119060452e+03  2.5241619825652324e+03  2.4905288882568434e+03  2.4557332138920510e+03  2.4163103891070919e+03  2.3823865711479566e+03  2.3453106612729221e+03  2.3060194247467157e+03  2.2636227553019435e+03  2.1796156