<?xml version="1.0"?>
<VTKFile type="UnstructuredGrid"  version="0.1"  >
<UnstructuredGrid>
<Piece  NumberOfPoints="21400" NumberOfCells="42336">
<Points>
<DataArray  type="Float64"  NumberOfComponents="3"  format="ascii">0 0 0  0.004583333333333333 0 0  0.009166666666666667 0 0  0.01375 0 0  0.01833333333333333 0 0  0.02291666666666667 0 0  0.0275 0 0  0.03208333333333334 0 0  0.03666666666666667 0 0  0.04125 0 0  0.04583333333333334 0 0  0.05041666666666667 0 0  0.055 0 0  0.05958333333333334 0 0  0.06416666666666668 0 0  0.06875000000000001 0 0  0.07333333333333333 0 0  0.07791666666666666 0 0  0.08249999999999999 0 0  0.08708333333333333 0 0  0.09166666666666667 0 0  0.09625000000000002 0 0  0.1008333333333333 0 0  0.1054166666666667 0 0  0.11 0 0  0.1145833333333333 0 0  0.1191666666666667 0 0  0.12375 0 0  0.1283333333333334 0 0  0.1329166666666667 0 0  0.1375 0 0  0.1420833333333333 0 0  0.1466666666666667 0 0  0.15125 0 0  0.1558333333333333 0 0  0.1604166666666667 0 0  0.165 0 0  0.1695833333333333 0 0  0.1741666666666667 0 0  0.17875 0 0  0.1833333333333333 0 0  0.1879166666666667 0 0  0.1925 0 0  0.1970833333333333 0 0  0.2016666666666667 0 0  0.20625 0 0  0.2108333333333333 0 0  0.2154166666666666 0 0  0.22 0 0  0.2245833333333334 0 0  0.2291666666666667 0 0  0.23375 0 0  0.2383333333333333 0 0  0.2429166666666667 0 0  0.2475 0 0  0.2520833333333333 0 0  0.2566666666666667 0 0  0.26125 0 0  0.2658333333333334 0 0  0.2704166666666666 0 0  0.275 0 0  0.2795833333333334 0 0  0.2841666666666667 0 0  0.28875 0 0  0.2933333333333333 0 0  0.2979166666666667 0 0  0.3025 0 0  0.3070833333333334 0 0  0.3116666666666666 0 0  0.31625 0 0  0.3208333333333333 0 0  0.3254166666666667 0 0  0.33 0 0  0.3345833333333333 0 0  0.3391666666666667 0 0  0.34375 0 0  0.3483333333333333 0 0  0.3529166666666667 0 0  0.3575 0 0  0.3620833333333333 0 0  0.3666666666666667 0 0  0.37125 0 0  0.3758333333333334 0 0  0.3804166666666667 0 0  0.3850000000000001 0 0  0.3895833333333333 0 0  0.3941666666666667 0 0  0.39875 0 0  0.4033333333333334 0 0  0.4079166666666666 0 0  0.4125 0 0  0.4170833333333334 0 0  0.4216666666666667 0 0  0.42625 0 0  0.4308333333333333 0 0  0.4354166666666667 0 0  0.44 0 0  0.4445833333333333 0 0  0.4491666666666667 0 0  0.45375 0 0  0.4583333333333333 0 0  0.4629166666666666 0 0  0.4675 0 0  0.4720833333333334 0 0  0.4766666666666667 0 0  0.4812500000000001 0 0  0.4858333333333333 0 0  0.4904166666666667 0 0  0.495 0 0  0.4995833333333334 0 0  0.5041666666666667 0 0  0.50875 0 0  0.5133333333333334 0 0  0.5179166666666667 0 0  0.5225 0 0  0.5270833333333333 0 0  0.5316666666666667 0 0  0.53625 0 0  0.5408333333333333 0 0  0.5454166666666667 0 0  0.55 0 0  0.5545833333333333 0 0  0.5591666666666667 0 0  0.5637500000000001 0 0  0.5683333333333334 0 0  0.5729166666666666 0 0  0.5775 0 0  0.5820833333333334 0 0  0.5866666666666667 0 0  0.5912499999999999 0 0  0.5958333333333334 0 0  0.6004166666666667 0 0  0.605 0 0  0.6095833333333334 0 0  0.6141666666666667 0 0  0.61875 0 0  0.6233333333333333 0 0  0.6279166666666667 0 0  0.6325000000000001 0 0  0.6370833333333333 0 0  0.6416666666666666 0 0  0.64625 0 0  0.6508333333333334 0 0  0.6554166666666666 0 0  0.6599999999999999 0 0  0.6645833333333334 0 0  0.6691666666666667 0 0  0.67375 0 0  0.6783333333333333 0 0  0.6829166666666667 0 0  0.6875 0 0  0.6920833333333333 0 0  0.6966666666666667 0 0  0.70125 0 0  0.7058333333333333 0 0  0.7104166666666667 0 0  0.7150000000000001 0 0  0.7195833333333334 0 0  0.7241666666666666 0 0  0.72875 0 0  0.7333333333333334 0 0  0.7379166666666667 0 0  0.7425 0 0  0.7470833333333333 0 0  0.7516666666666667 0 0  0.75625 0 0  0.7608333333333334 0 0  0.7654166666666666 0 0  0.7700000000000001 0 0  0 0.002380952380952381 0  0.004583333333333333 0.002380952380952381 0  0.009166666666666667 0.002380952380952381 0  0.01375 0.002380952380952381 0  0.01833333333333333 0.002380952380952381 0  0.02291666666666667 0.002380952380952381 0  0.0275 0.002380952380952381 0  0.03208333333333334 0.002380952380952381 0  0.03666666666666667 0.002380952380952381 0  0.04125 0.002380952380952381 0  0.04583333333333334 0.002380952380952381 0  0.05041666666666667 0.002380952380952381 0  0.055 0.002380952380952381 0  0.05958333333333334 0.002380952380952381 0  0.06416666666666668 0.002380952380952381 0  0.06875000000000001 0.002380952380952381 0  0.07333333333333333 0.002380952380952381 0  0.07791666666666666 0.002380952380952381 0  0.08249999999999999 0.002380952380952381 0  0.08708333333333333 0.002380952380952381 0  0.09166666666666667 0.002380952380952381 0  0.09625000000000002 0.002380952380952381 0  0.1008333333333333 0.002380952380952381 0  0.1054166666666667 0.002380952380952381 0  0.11 0.002380952380952381 0  0.1145833333333333 0.002380952380952381 0  0.1191666666666667 0.002380952380952381 0  0.12375 0.002380952380952381 0  0.1283333333333334 0.002380952380952381 0  0.1329166666666667 0.002380952380952381 0  0.1375 0.002380952380952381 0  0.1420833333333333 0.002380952380952381 0  0.1466666666666667 0.002380952380952381 0  0.15125 0.002380952380952381 0  0.1558333333333333 0.002380952380952381 0  0.1604166666666667 0.002380952380952381 0  0.165 0.002380952380952381 0  0.1695833333333333 0.002380952380952381 0  0.1741666666666667 0.002380952380952381 0  0.17875 0.002380952380952381 0  0.1833333333333333 0.002380952380952381 0  0.1879166666666667 0.002380952380952381 0  0.1925 0.002380952380952381 0  0.1970833333333333 0.002380952380952381 0  0.2016666666666667 0.002380952380952381 0  0.20625 0.002380952380952381 0  0.2108333333333333 0.002380952380952381 0  0.2154166666666666 0.002380952380952381 0  0.22 0.002380952380952381 0  0.2245833333333334 0.002380952380952381 0  0.2291666666666667 0.002380952380952381 0  0.23375 0.002380952380952381 0  0.2383333333333333 0.002380952380952381 0  0.2429166666666667 0.002380952380952381 0  0.2475 0.002380952380952381 0  0.2520833333333333 0.002380952380952381 0  0.2566666666666667 0.002380952380952381 0  0.26125 0.002380952380952381 0  0.2658333333333334 0.002380952380952381 0  0.2704166666666666 0.002380952380952381 0  0.275 0.002380952380952381 0  0.2795833333333334 0.002380952380952381 0  0.2841666666666667 0.002380952380952381 0  0.28875 0.002380952380952381 0  0.2933333333333333 0.002380952380952381 0  0.2979166666666667 0.002380952380952381 0  0.3025 0.002380952380952381 0  0.3070833333333334 0.002380952380952381 0  0.3116666666666666 0.002380952380952381 0  0.31625 0.002380952380952381 0  0.3208333333333333 0.002380952380952381 0  0.3254166666666667 0.002380952380952381 0  0.33 0.002380952380952381 0  0.3345833333333333 0.002380952380952381 0  0.3391666666666667 0.002380952380952381 0  0.34375 0.002380952380952381 0  0.3483333333333333 0.002380952380952381 0  0.3529166666666667 0.002380952380952381 0  0.3575 0.002380952380952381 0  0.3620833333333333 0.002380952380952381 0  0.3666666666666667 0.002380952380952381 0  0.37125 0.002380952380952381 0  0.3758333333333334 0.002380952380952381 0  0.3804166666666667 0.002380952380952381 0  0.3850000000000001 0.002380952380952381 0  0.3895833333333333 0.002380952380952381 0  0.3941666666666667 0.002380952380952381 0  0.39875 0.002380952380952381 0  0.4033333333333334 0.002380952380952381 0  0.4079166666666666 0.002380952380952381 0  0.4125 0.002380952380952381 0  0.4170833333333334 0.002380952380952381 0  0.4216666666666667 0.002380952380952381 0  0.42625 0.002380952380952381 0  0.4308333333333333 0.002380952380952381 0  0.4354166666666667 0.002380952380952381 0  0.44 0.002380952380952381 0  0.4445833333333333 0.002380952380952381 0  0.4491666666666667 0.002380952380952381 0  0.45375 0.002380952380952381 0  0.4583333333333333 0.002380952380952381 0  0.4629166666666666 0.002380952380952381 0  0.4675 0.002380952380952381 0  0.4720833333333334 0.002380952380952381 0  0.4766666666666667 0.002380952380952381 0  0.4812500000000001 0.002380952380952381 0  0.4858333333333333 0.002380952380952381 0  0.4904166666666667 0.002380952380952381 0  0.495 0.002380952380952381 0  0.4995833333333334 0.002380952380952381 0  0.5041666666666667 0.002380952380952381 0  0.50875 0.002380952380952381 0  0.5133333333333334 0.002380952380952381 0  0.5179166666666667 0.002380952380952381 0  0.5225 0.002380952380952381 0  0.5270833333333333 0.002380952380952381 0  0.5316666666666667 0.002380952380952381 0  0.53625 0.002380952380952381 0  0.5408333333333333 0.002380952380952381 0  0.5454166666666667 0.002380952380952381 0  0.55 0.002380952380952381 0  0.5545833333333333 0.002380952380952381 0  0.5591666666666667 0.002380952380952381 0  0.5637500000000001 0.002380952380952381 0  0.5683333333333334 0.002380952380952381 0  0.5729166666666666 0.002380952380952381 0  0.5775 0.002380952380952381 0  0.5820833333333334 0.002380952380952381 0  0.5866666666666667 0.002380952380952381 0  0.5912499999999999 0.002380952380952381 0  0.5958333333333334 0.002380952380952381 0  0.6004166666666667 0.002380952380952381 0  0.605 0.002380952380952381 0  0.6095833333333334 0.002380952380952381 0  0.6141666666666667 0.002380952380952381 0  0.61875 0.002380952380952381 0  0.6233333333333333 0.002380952380952381 0  0.6279166666666667 0.002380952380952381 0  0.6325000000000001 0.002380952380952381 0  0.6370833333333333 0.002380952380952381 0  0.6416666666666666 0.002380952380952381 0  0.64625 0.002380952380952381 0  0.6508333333333334 0.002380952380952381 0  0.6554166666666666 0.002380952380952381 0  0.6599999999999999 0.002380952380952381 0  0.6645833333333334 0.002380952380952381 0  0.6691666666666667 0.002380952380952381 0  0.67375 0.002380952380952381 0  0.6783333333333333 0.002380952380952381 0  0.6829166666666667 0.002380952380952381 0  0.6875 0.002380952380952381 0  0.6920833333333333 0.002380952380952381 0  0.6966666666666667 0.002380952380952381 0  0.70125 0.002380952380952381 0  0.7058333333333333 0.002380952380952381 0  0.7104166666666667 0.002380952380952381 0  0.7150000000000001 0.002380952380952381 
[...]
<PointData  Scalars="pressure"> 
<DataArray  type="Float64"  Name="pressure"  format="ascii">2.8162028627033495e+04  2.8132325192383578e+04  2.8105085438908805e+04  2.8076443448192225e+04  2.8046483625337671e+04  2.8010969796221525e+04  2.7978104504523031e+04  2.7945164610743825e+04  2.7909296888068664e+04  2.7879791627945371e+04  2.7855726183989995e+04  2.7829061666350273e+04  2.7801623616994868e+04  2.7773901140670823e+04  2.7746219173944803e+04  2.7719958217708241e+04  2.0173059077941489e+04  2.0145444495531032e+04  2.0120583507085234e+04  2.0095169147750326e+04  2.0069121446910005e+04  2.0041993047127446e+04  2.0013250044581517e+04  1.9982660275296941e+04  1.9950275716632244e+04  1.9916119630623238e+04  1.9880196496966259e+04  1.9842540790320712e+04  1.9802937981026269e+04  1.9761282625065585e+04  1.9717967019364383e+04  1.9673785518965935e+04  1.9629658052846189e+04  1.9586403652890414e+04  1.9544622396513812e+04  1.9504680209415605e+04  1.9466756011365564e+04  1.9430924890994251e+04  1.9397405180728110e+04  1.9367621866060384e+04  1.9332824479795527e+04  1.9279403355624963e+04  1.9171135987805250e+04  1.9013088222489081e+04  1.8842458910027177e+04  1.8672253619221839e+04  1.8504025876460324e+04  1.8338015890860050e+04  1.8174162123655500e+04  1.8012276442387036e+04  1.7852129230034519e+04  1.7693486267866127e+04  1.7536127240945727e+04  1.7379853894108139e+04  1.7224492593024494e+04  1.7069893910898747e+04  1.6915930760903699e+04  1.6762495932688511e+04  1.6609499501573060e+04  1.6456866351953235e+04  1.6304533926967035e+04  1.6152450244606220e+04  1.6000572182109747e+04  1.5848864011331305e+04  1.5697296159429317e+04  1.5545844166799574e+04  1.5394487814844113e+04  1.5243210398345345e+04  1.5091998119995937e+04  1.4940839587536575e+04  1.4789725396723565e+04  1.4638647785868958e+04  1.4487600349923614e+04  1.4336577804006207e+04  1.4185575787935695e+04  1.4034590704729184e+04  1.3883619587210653e+04  1.3732659987869407e+04  1.3581709887936815e+04  1.3430767622342375e+04  1.3279831817785169e+04  1.3128901341635081e+04  1.2977975259774112e+04  1.2827052801816639e+04  1.2676133332419067e+04  1.2525216327613973e+04  1.2374301355289768e+04  1.2223388059090352e+04  1.2072476145135861e+04  1.1921565371070654e+04  1.1770655537030678e+04  1.1619746478194143e+04  1.1468838058637924e+04  1.1317930166270946e+04  1.1167022708655802e+04  1.1016115609562861e+04  1.0865208806128541e+04  1.0714302246511787e+04  1.0563395887961402e+04  1.0412489695222339e+04  1.0261583639221277e+04  1.0110677695982771e+04  9.9597718457354131e+03  9.8088660721747219e+03  9.6579603618552683e+03  9.5070547036894095e+03  9.3561490885339335e+03  9.2052435088491366e+03  9.0543379584177746e+03  8.9034324321132463e+03  8.7525269257084346e+03  8.6016214357181689e+03  8.4507159592692387e+03  8.2998104939933073e+03  8.1489050379385744e+03  7.9979995894970425e+03  7.8470941473445600e+03  7.6961887103914505e+03  7.5452832777418689e+03  7.3943778486604315e+03  7.2434724225447826e+03  7.0925669989031494e+03  6.9416615773359881e+03  6.7907561575211103e+03  6.6398507392016681e+03  6.4889453221765680e+03  6.3380399062930019e+03  6.1871344914407446e+03  6.0362290775480524e+03  5.8853236645790175e+03  5.7344182525322412e+03  5.5835128414408455e+03  5.4326074313737281e+03  5.2817020224382204e+03  5.1307966147842453e+03  4.9798912086100408e+03  4.8289858041698317e+03  4.6780804017836808e+03  4.5271750018500115e+03  4.3762696048612770e+03  4.2253642114235636e+03  4.0744588222810271e+03  3.9235534383463455e+03  3.7726480607387671e+03  3.6217426908318016e+03  3.4708373303133039e+03  3.3199319812616773e+03  3.1690266462431182e+03  3.0181213284370297e+03  2.8672160317993230e+03  2.7163107612776885e+03  2.5654055230993163e+03  2.4145003251615485e+03  2.2635951775717026e+03  2.1126900934079608e+03  1.9617850898159420e+03  1.8108801896290570e+03  1.6599754238302223e+03  1.5090708354167152e+03  1.3581664856530954e+03  1.2072624649192596e+03  1.0563589098736534e+03  9.0545605296771157e+02  7.5455417553274401e+02  6.0365472289211698e+02  4.5275236540962021e+02  3.0190539317676030e+02  1.5056425484493238e+02  4.2690987422686160e+00  2.8160378347740942e+04  2.8132010606129301e+04  2.8105959346013373e+04  2.8074672975160687e+04  2.0429684583322611e+04  2.0404741760726745e+04  2.0381045042347752e+04  2.0357297937322990e+04  2.0332199970448211e+04  2.7880486554161413e+04  2.7855925044448086e+04  2.7829131389401613e+04  2.7801654057265368e+04  2.7773895306532035e+04  2.7746183877246047e+04  2.7719285966949443e+04  2.7690670383347722e+04  2.7654804877054608e+04  2.7620634761607122e+04  2.7585760105183170e+04  2.7550058924712375e+04  2.7512889243755882e+04  2.7473459055133790e+04  2.7431453460658744e+04  2.7386995870879378e+04  2.7340110307972333e+04  2.7290782995742440e+04  2.7239125600923278e+04  2.7184781957791220e+04  2.7127551887386526e+04  2.7067992923664879e+04  2.7007231238388100e+04  2.6946557117804874e+04  2.6887108887397142e+04  2.6829711325027565e+04  2.6774860598453655e+04  2.6722791804479410e+04  2.6673607197497924e+04  2.6627435009628403e+04  2.6586298266993388e+04  1.9332054918327005e+04  1.9287293344896672e+04  1.9177153843166816e+04  1.9013715139479646e+04  1.8842300652875194e+04  1.8672032610598715e+04  1.8503779189430934e+04  1.8337779826956910e+04  1.8173947453096192e+04  1.8012087300676616e+04  1.7851965823650142e+04  1.7693346940636580e+04  1.7536009512739092e+04  1.7379755044679659e+04  1.7224409968909767e+04  1.7069825074055840e+04  1.6915873547878102e+04  1.6762448465196889e+04  1.6609460172235718e+04  1.6456833798671410e+04  1.6304507003409572e+04  1.6152427990768805e+04  1.6000553796908147e+04  1.5848848828066361e+04  1.5697283624348202e+04  1.5545833820657592e+04  1.5394479277218252e+04  1.5243203354390384e+04  1.5091992309324303e+04  1.4940834794919081e+04  1.4789721444336499e+04  1.4638644526845224e+04  1.4487597662998089e+04  1.4336575589075674e+04  1.4185573962381219e+04  1.4034589200372491e+04  1.3883618347796999e+04  1.3732658966986914e+04  1.3581709047297394e+04  1.3430766930361860e+04  1.3279831248410945e+04  1.3128900873378258e+04  1.2977974874910731e+04  1.2827052485728500e+04  1.2676133073049779e+04  1.2525216115020225e+04  1.2374301181271117e+04  1.2223387916883801e+04  1.2072476029163981e+04  1.1921565276733782e+04  1.1770655460535536e+04  1.1619746416412489e+04  1.1468838008989966e+04  1.1317930126629204e+04  1.1167022677265808e+04  1.1016115584977753e+04  1.0865208787155158e+04  1.0714302232166150e+04  1.0563395877432082e+04  1.0412489687840158e+04  1.0261583634434401e+04  1.0110677693336120e+04  9.9597718448536962e+03  9.8088660727484530e+03  9.6579603636292213e+03  9.5070547064531056e+03  9.3561490921137884e+03  9.2052435131020047e+03  9.0543379632255928e+03  8.9034324373786330e+03  8.7525269313510926e+03  8.6016214416718467e+03  8.4507159654792904e+03  8.2998105004146364e+03  8.1489050445339681e+03  7.9979995962357789e+03  7.8470941542012579e+03  7.6961887173451232e+03  7.5452832847751506e+03  7.3943778557589230e+03  7.2434724296965142e+03  7.0925670060981374e+03  6.9416615845658616e+03  6.7907561647787998e+03  6.6398507464811382e+03  6.4889453294725990e+03  6.3380399136009846e+03  6.1871344987565162e+03  6.0362290848677449e+03  5.8853236718988983e+03  5.7344182598485841e+03  5.5835128487497859e+03  5.4326074386711143e+03  5.2817020297194649e+03  5.1307966220441322e+03  4.9798912158425364e+03  4.8289858113678329e+03  4.6780804089387457e+03  4.5271750089520028e+03  4.3762696118979502e+03  4.2253642183800494e+03  4.0744588291391724e+03  3.9235534450839114e+03  3.7726480673283863e+03  3.6217426972396511e+03  3.4708373364973872e+03  3.3199319871695648e+03  3.1690266518089456e+03  3.0181213335774623e+03  2.8672160364080246e+03  2.7163107652176345e+03  2.5654055261918943e+03  2.4145003271708138e+03  2.2635951781811159e+03  2.1126900921851993e+03  1.9617850861582649e+03  1.8108801826758754e+03  1.6599754123193713e+03  1.5090708174325209e+03  1.3581664582227459e+03  1.2072624228772961e+03  1.0563588467506065e+03  9.0545593700602728e+02  7.5455411130051971e+02  6.0365354201154366e+02  4.5275922197947938e+02  3.0184260144166285e+02  1.5112639414476962e+02  -2.3169241591986031e-01  2.8159230528228127e+04  2.8131155158244772e+04  2.8104504199865645e+04  2.8071723349025979e+04  2.8042620922617472e+04  2.8009997207450051e+04  2.7978145910465912e+04  2.7946248801022823e+04  2.7913505375138357e+04  2.7882832637305561e+04  2.7856482969490971e+04  2.7829372540952085e+04  2.7801754829998172e+04  2.7773890848374718e+04  2.7745989871442336e+04  2.7718036009244890e+04  2.7688246616449676e+04  2.7654917850173828e+04  2.7620771453042860e+04  2.7585900750999466e+04  2.7550341393588587e+04  2.7513349145072931e+04  2.7473979185802691e+04  2.7431926088942491e+04  2.7387468247560584e+04  2.7340600468113284e+04  2.7291213112907164e+04  2.7239658206426382e+04  2.7185373730721534e+04  2.7128025216370104e+04  2.7068233567688872e+04  2.7007209688763469e+04  2.6946307591236382e+04  2.6886697420850327e+04  2.6829204515279012e+04  2.6774310729294277e+04  2.6722228311163733e+04  2.6673017002977398e+04  2.6626791607279309e+04  2.6583929338797945e+04  2.6536804122130055e+04  2.6487132372135598e+04  1.9198553983323851e+04  1.9014190599451489e+04  1.8841870127150021e+04  1.8671223873227736e+04  1.8502919064712172e+04  1.8336957655094673e+04  1.8173202048801537e+04  1.8011431494522079e+04  1.7851399819826176e+04  1.7692864668943908e+04  1.7535602196601769e+04  1.7379413157959414e+04  1.7224124265883431e+04  1.7069587083517941e+04  1.6915675765748350e+04  1.6762284383894774e+04  1.6609324227025641e+04  1.6456721276489967e+04  1.6304413939285303e+04  1.6152351065117929e+04  1.6000490240236240e+04  1.5848796335822766e+04  1.5697240282619250e+04  1.5545798042314327e+04  1.5394449747625667e+04  1.5243178985590012e+04  1.5091972201575696e+04  1.4940818204546413e+04  1.4789707756926460e+04  1.4638633234956089e+04  1.4487588347652834e+04  1.4336567904417587e+04  1.4185567622964978e+04  1.4034583970646909e+04  1.3883614033407277e+04  1.3732655407585391e+04  1.3581706110603820e+04  1.3430764507257602e+04  1.3279829248888338e+04  1.3128899223196811e+04  1.2977973512837307e+04  1.2827051361259844e+04  1.2676132144533358e+04  1.2525215348103809e+04  1.2374300547623745e+04  1.2223387393140705e+04  1.2072475596056254e+04  1.1921564918370508e+04  1.1770655163811711e+04  1.1619746170520675e+04  1.1468837805017536e+04  1.1317929957226152e+04  1.1167022536370801e+04  1.1016115467592217e+04  1.0865208689156923e+04  1.0714302150155820e+04  1.0563395808606296e+04  1.0412489629887088e+04  1.0261583585447563e+04  1.0110677651743306e+04  9.9597718093583662e+03  9.8088660422813846e+03  9.6579603373086611e+03  9.5070546835518890e+03  9.3561490720322327e+03  9.2052434953455540e+03  9.0543379473863679e+03  8.9034324231202372e+03  8.7525269183960736e+03  8.6016214297913375e+03  8.4507159544844890e+03  8.2998104901497554e+03  8.1489050348704423e+03  7.9979995870674566e+03  7.8470941454404519e+03  7.6961887089193415e+03  7.5452832766243919e+03  7.3943778478334334e+03  7.2434724219549471e+03  7.0925669985059967e+03  6.9416615770942199e+03  6.7907561574032243e+03  6.6398507391807771e+03  6.4889453222294023e+03  6.3380399063990326e+03  6.1871344915814179e+03  6.0362290777061035e+03  5.8853236647378180e+03  5.7344182526751692e+03  5.5835128415506606e+03  5.4326074314319167e+03  5.2817020224242960e+03  5.1307966146749386e+03  4.9798912083784135e+03  4.8289858037841959e+03  4.6780804012063472e+03  4.5271750010357437e+03  4.3762696037554297e+03  4.2253642099597591e+03  4.0744588203782700e+03  3.9235534359053904e+03  3.7726480576375088e+03  3.6217426869193509e+03  3.4708373254023309e+03  3.3199319751183548e+03  3.1690266385737850e+03  3.0181213188702163e+03  2.8672160198611923e+03  2.7163107463578863e+03  2.5654055044026254e+03  2.4145003016380797e+03  2.2635951478138954e+03  2.1126900554949639e+03  1.9617850410723202e+03  1.8108801262396494e+03  1.6599753402055783e+03  1.5090707231062631e+03  1.3581663314285104e+03  1.2072622470434960e+03  1.0563585920939472e+03  9.0545556080888434e+02  7.5455344174721449e+02  6.0365294634926272e+02  4.5275398476462658e+02  3.0186470237898953e+02  1.5100001894067145e+02  3.0504525927219615e-02  2.8158123378519911e+04  2.8130051551680659e+04  2.8101730628650570e+04  2.8071317442497049e+04  2.8041074452421872e+04  2.8009667010903642e+04  2.7978163824329338e+04  2.7946645890931111e+04  2.7915108707265059e+04  2.7885093172378565e+04  2.7857296589725713e+04  2.7829739291794685e+04  2.7801920251183717e+04  2.7773901472122529e+04  2.7745732911538456e+04  2.7717163583031048e+04  2.7687170484502683e+04  2.7654978801805501e+04  2.7621183492787983e+04  2.7586157901769944e+04  2.7551008393159576e+04  2.7514481987018477e+04  2.7475257450246147e+04  2.7433025103660875e+04  2.7388575621830001e+04  2.7341824752659450e+04  2.7292148630299929e+04  2.7240950450367218e+04  2.7186839305124377e+04  2.7129181116555617e+04  2.7068811714231924e+04  2.7007145843836519e+04  2.6945692899274658e+04  2.6885698829667304e+04  2.6827983535934796e+04  2.6772994454404488e+04  2.6720887506831932e+04  2.6671644323679600e+04  2.6625214041661107e+04  2.6580866200213412e+04  2.6535745582996158e+04  2.6490910362651855e+04  1.9203634526541726e+04  1.9014949679397461e+04  1.8840824573000769e+04  1.8669785004189693e+04  1.8501418505014582e+04  1.8335537442554862e+04  1.8171920193686794e+04  1.8010306839701250e+04  1.7850430921152209e+04  1.7692040121205275e+04  1.7534906397467923e+04  1.7378829481276553e+04  1.7223636717315847e+04  1.7069181081878189e+04  1.6915338434313668e+04  1.6762004578196880e+04  1.6609092430028220e+04  1.6456529435168730e+04  1.6304255283257540e+04  1.6152219928674360e+04  1.6000381898138654e+04  1.5848706857093495e+04  1.5697166403220535e+04  1.5545737055900028e+04  1.5394399412745704e+04  1.5243137447433290e+04  1.5091937926316148e+04  1.4940789924473376e+04  1.4789684424720039e+04  1.4638613985666687e+04  1.4487572467140220e+04  1.4336554803186355e+04  1.4185556814496138e+04  1.4034575053467603e+04  1.3883606676263316e+04  1.3732649337186163e+04  1.3581701101497401e+04  1.3430760373468709e+04  1.3279825837014057e+04  1.3128896406707221e+04  1.2977971187371582e+04  1.2827049440744571e+04  1.2676130557979670e+04  1.2525214036964939e+04  1.2374299463615109e+04  1.2223386496441643e+04  1.2072474853826736e+04  1.1921564303527663e+04  1.1770654654020709e+04  1.1619745747362427e+04  1.1468837453302267e+04  1.1317929664427278e+04  1.1167022292158028e+04  1.1016115263446483e+04  1.0865208518052852e+04  1.0714302006299838e+04  1.0563395687220647e+04  1.0412489527031734e+04  1.0261583497873298e+04  1.0110677576770629e+04  9.9597717447775867e+03  9.8088659862702389e+03  9.6579602883643820e+03  9.5070546404351735e+03  9.3561490337210489e+03  9.2052434609970205e+03  9.0543379163053523e+03  8.9034323947334233e+03  8.7525268922305877e+03  8.6016214054571337e+03  8.4507159316597827e+03  8.2998104685690523e+03  8.1489050143146233e+03  7.9979995673556086e+03  7.8470941264231296e+03  7.6961886904729963e+03  7.5452832586467603e+03  7.3943778302397259e+03  7.2434724046746887e+03  7.0925669814803941e+03  6.9416615602739821e+03  6.7907561407467037e+03  6.6398507226524353e+03  6.4889453057984774e+03  6.3380398900383834e+03  6.1871344752665182e+03  6.0362290614141275e+03  5.8853236484467707e+03  5.7344182363630734e+03  5.5835128251947190e+03  5.4326074150076474e+03  5.2817020059045935e+03  5.1307965980290373e+03  4.9798911915706813e+03  4.8289857867727360e+03  4.6780803839413156e+03  4.5271749834573384e+03  4.3762695857914086e+03  4.2253641915223989e+03  4.0744588013605453e+03  3.9235534161762034e+03  3.7726480370356126e+03  3.6217426652455842e+03  3.4708373024095508e+03  3.3199319504982732e+03  3.1690266119394996e+03  3.0181212897327528e+03  2.8672159875974880e+03  2.7163107101663859e+03  2.5654054632405928e+03  2.4145002541313606e+03  2.2635950921242365e+03  2.1126899891204052e+03  1.9617849605391839e+03  1.8108800266137662e+03  1.6599752142924128e+03  1.5090705600934600e+03  1.3581661145061632e+03  1.2072619489169415e+03  1.0563581670785484e+03  9.0545492279670214e+02  7.5455245933597632e+02  6.0365113997839990e+02  4.5275160960279919e+02  3.0185741378768046e+02  1.5095887923523031e+02  -2.4393847529380146e-03  2.8157016627665584e+04  2.8128782883172204e+04  2.8100068270684384e+04  2.8070302025185880e+04  2.8040075547098859e+04  2.8009246234795111e+04  2.7978188712770621e+04  2.7947131601043115e+04  2.7916339267784828e+04  2.7886601649813401e+04  2.7858168966633977e+04  2.7830181268495904e+04  2.7802139533127302e+04  2.7773945143684803e+04  2.7745539188464452e+04  2.7716671457739074e+04  2.7686794895608844e+04  2.7655399098280755e+04  2.7622049878953461e+04  2.7586250968028675e+04  2.7552086380273435e+04  2.7516375216606968e+04  2.7477421675530059e+04  2.7434669086483515e+04  2.7390224194196711e+04  2.7344065652409154e+04  2.7293222116140169e+04  2.7243132361711007e+04  2.7189319966854106e+04  2.7131089181052179e+04  2.7069743650011154e+04  2.7007012040605459e+04  2.6944664554454746e+04  2.6884069693000110e+04  2.6826013684233010e+04  2.6770892351033443e+04  2.6718772152383379e+04  2.6669515227257431e+04  2.6622890037553560e+04  2.6578255791156684e+04  2.6534552662486338e+04  2.6496102550911186e+04  1.9195169339802644e+04  1.9014426420213109e+04  1.8838992435353051e+04  1.8667630364595407e+04  1.8499244290828574e+04  1.8333504704997558e+04  1.8170097391823696e+04  1.8008713989169290e+04  1.7849062314843228e+04  1.7690877533756811e+04  1.7533926585885187e+04  1.7378008296212614e+04  1.7222951218210157e+04  1.7068610505940345e+04  1.6914864528035152e+04  1.6761611589813223e+04  1.6608766934499166e+04  1.6456260088089821e+04  1.6304032556246953e+04  1.6152035853513889e+04  1.6000229832615994e+04  1.5848581277527597e+04  1.5697062724365427e+04  1.5545651476741634e+04  1.5394328785714879e+04  1.5243079168225300e+04  1.5091889841524368e+04  1.4940750254438413e+04  1.4789651699264174e+04  1.4638586990673441e+04  1.4487550200220579e+04  1.4336536436932287e+04  1.4185541666053083e+04  1.4034562559359054e+04  1.3883596371574024e+04  1.3732640838357878e+04  1.3581694092116057e+04  1.3430754592526697e+04  1.3279821069219146e+04  1.3128892474482942e+04  1.2977967944255093e+04  1.2827046765938543e+04  1.2676128351857109e+04  1.2525212217360531e+04  1.2374297962765762e+04  1.2223385258462744e+04  1.2072473832630414e+04  1.1921563461105708e+04  1.1770653959028363e+04  1.1619745173950327e+04  1.1468836980153079e+04  1.1317929273961197e+04  1.1167021969877533e+04  1.1016114997395944e+04  1.0865208298372869e+04  1.0714301824859722e+04  1.0563395537315309e+04  1.0412489403131742e+04  1.0261583395418727e+04  1.0110677492001079e+04  9.9597716745919824e+03  9.8088659281112250e+03  9.6579602401229713e+03  9.5070546003721465e+03  9.3561490004020798e+03  9.2052434332392204e+03  9.0543378931331717e+03  8.9034323753422741e+03  8.7525268759568462e+03  8.6016213917533987e+03  8.4507159200744736e+03  8.2998104587295693e+03  8.1489050059134534e+03  7.9979995601388655e+03  7.8470941201810820e+03  7.6961886850322535e+03  7.5452832538638049e+03  7.3943778259955652e+03  7.2434724008704188e+03  7.0925669780335102e+03  6.9416615571152952e+03  6.7907561378177770e+03  6.6398507199033929e+03  6.4889453031861394e+03  6.3380398875246656e+03  6.1871344728169997e+03  6.0362290589967688e+03  5.8853236460307153e+03  5.7344182339174695e+03  5.5835128226875777e+03  5.4326074124046118e+03  5.2817020031676402e+03  5.1307965951149936e+03  4.9798911884295612e+03  4.8289857833457663e+03  4.6780803801585998e+03  4.5271749792350192e+03  4.3762695810282185e+03  4.2253641860953876e+03  4.0744587951197764e+03  3.9235534089380835e+03  3.7726480285744406e+03  3.6217426552827505e+03  3.4708372905995780e+03  3.3199319364105691e+03  3.1690265950342350e+03  3.0181212693285233e+03  2.8672159628273153e+03  2.7163106799169113e+03  2.5654054260665521e+03  2.4145002081330013e+03  2.2635950