<?xml version="1.0"?>
<VTKFile type="UnstructuredGrid"  version="0.1"  >
<UnstructuredGrid>
<Piece  NumberOfPoints="21400" NumberOfCells="42336">
<Points>
<DataArray  type="Float64"  NumberOfComponents="3"  format="ascii">0 0 0  0.004583333333333333 0 0  0.009166666666666667 0 0  0.01375 0 0  0.01833333333333333 0 0  0.02291666666666667 0 0  0.0275 0 0  0.03208333333333334 0 0  0.03666666666666667 0 0  0.04125 0 0  0.04583333333333334 0 0  0.05041666666666667 0 0  0.055 0 0  0.05958333333333334 0 0  0.06416666666666668 0 0  0.06875000000000001 0 0  0.07333333333333333 0 0  0.07791666666666666 0 0  0.08249999999999999 0 0  0.08708333333333333 0 0  0.09166666666666667 0 0  0.09625000000000002 0 0  0.1008333333333333 0 0  0.1054166666666667 0 0  0.11 0 0  0.1145833333333333 0 0  0.1191666666666667 0 0  0.12375 0 0  0.1283333333333334 0 0  0.1329166666666667 0 0  0.1375 0 0  0.1420833333333333 0 0  0.1466666666666667 0 0  0.15125 0 0  0.1558333333333333 0 0  0.1604166666666667 0 0  0.165 0 0  0.1695833333333333 0 0  0.1741666666666667 0 0  0.17875 0 0  0.1833333333333333 0 0  0.1879166666666667 0 0  0.1925 0 0  0.1970833333333333 0 0  0.2016666666666667 0 0  0.20625 0 0  0.2108333333333333 0 0  0.2154166666666666 0 0  0.22 0 0  0.2245833333333334 0 0  0.2291666666666667 0 0  0.23375 0 0  0.2383333333333333 0 0  0.2429166666666667 0 0  0.2475 0 0  0.2520833333333333 0 0  0.2566666666666667 0 0  0.26125 0 0  0.2658333333333334 0 0  0.2704166666666666 0 0  0.275 0 0  0.2795833333333334 0 0  0.2841666666666667 0 0  0.28875 0 0  0.2933333333333333 0 0  0.2979166666666667 0 0  0.3025 0 0  0.3070833333333334 0 0  0.3116666666666666 0 0  0.31625 0 0  0.3208333333333333 0 0  0.3254166666666667 0 0  0.33 0 0  0.3345833333333333 0 0  0.3391666666666667 0 0  0.34375 0 0  0.3483333333333333 0 0  0.3529166666666667 0 0  0.3575 0 0  0.3620833333333333 0 0  0.3666666666666667 0 0  0.37125 0 0  0.3758333333333334 0 0  0.3804166666666667 0 0  0.3850000000000001 0 0  0.3895833333333333 0 0  0.3941666666666667 0 0  0.39875 0 0  0.4033333333333334 0 0  0.4079166666666666 0 0  0.4125 0 0  0.4170833333333334 0 0  0.4216666666666667 0 0  0.42625 0 0  0.4308333333333333 0 0  0.4354166666666667 0 0  0.44 0 0  0.4445833333333333 0 0  0.4491666666666667 0 0  0.45375 0 0  0.4583333333333333 0 0  0.4629166666666666 0 0  0.4675 0 0  0.4720833333333334 0 0  0.4766666666666667 0 0  0.4812500000000001 0 0  0.4858333333333333 0 0  0.4904166666666667 0 0  0.495 0 0  0.4995833333333334 0 0  0.5041666666666667 0 0  0.50875 0 0  0.5133333333333334 0 0  0.5179166666666667 0 0  0.5225 0 0  0.5270833333333333 0 0  0.5316666666666667 0 0  0.53625 0 0  0.5408333333333333 0 0  0.5454166666666667 0 0  0.55 0 0  0.5545833333333333 0 0  0.5591666666666667 0 0  0.5637500000000001 0 0  0.5683333333333334 0 0  0.5729166666666666 0 0  0.5775 0 0  0.5820833333333334 0 0  0.5866666666666667 0 0  0.5912499999999999 0 0  0.5958333333333334 0 0  0.6004166666666667 0 0  0.605 0 0  0.6095833333333334 0 0  0.6141666666666667 0 0  0.61875 0 0  0.6233333333333333 0 0  0.6279166666666667 0 0  0.6325000000000001 0 0  0.6370833333333333 0 0  0.6416666666666666 0 0  0.64625 0 0  0.6508333333333334 0 0  0.6554166666666666 0 0  0.6599999999999999 0 0  0.6645833333333334 0 0  0.6691666666666667 0 0  0.67375 0 0  0.6783333333333333 0 0  0.6829166666666667 0 0  0.6875 0 0  0.6920833333333333 0 0  0.6966666666666667 0 0  0.70125 0 0  0.7058333333333333 0 0  0.7104166666666667 0 0  0.7150000000000001 0 0  0.7195833333333334 0 0  0.7241666666666666 0 0  0.72875 0 0  0.7333333333333334 0 0  0.7379166666666667 0 0  0.7425 0 0  0.7470833333333333 0 0  0.7516666666666667 0 0  0.75625 0 0  0.7608333333333334 0 0  0.7654166666666666 0 0  0.7700000000000001 0 0  0 0.002380952380952381 0  0.004583333333333333 0.002380952380952381 0  0.009166666666666667 0.002380952380952381 0  0.01375 0.002380952380952381 0  0.01833333333333333 0.002380952380952381 0  0.02291666666666667 0.002380952380952381 0  0.0275 0.002380952380952381 0  0.03208333333333334 0.002380952380952381 0  0.03666666666666667 0.002380952380952381 0  0.04125 0.002380952380952381 0  0.04583333333333334 0.002380952380952381 0  0.05041666666666667 0.002380952380952381 0  0.055 0.002380952380952381 0  0.05958333333333334 0.002380952380952381 0  0.06416666666666668 0.002380952380952381 0  0.06875000000000001 0.002380952380952381 0  0.07333333333333333 0.002380952380952381 0  0.07791666666666666 0.002380952380952381 0  0.08249999999999999 0.002380952380952381 0  0.08708333333333333 0.002380952380952381 0  0.09166666666666667 0.002380952380952381 0  0.09625000000000002 0.002380952380952381 0  0.1008333333333333 0.002380952380952381 0  0.1054166666666667 0.002380952380952381 0  0.11 0.002380952380952381 0  0.1145833333333333 0.002380952380952381 0  0.1191666666666667 0.002380952380952381 0  0.12375 0.002380952380952381 0  0.1283333333333334 0.002380952380952381 0  0.1329166666666667 0.002380952380952381 0  0.1375 0.002380952380952381 0  0.1420833333333333 0.002380952380952381 0  0.1466666666666667 0.002380952380952381 0  0.15125 0.002380952380952381 0  0.1558333333333333 0.002380952380952381 0  0.1604166666666667 0.002380952380952381 0  0.165 0.002380952380952381 0  0.1695833333333333 0.002380952380952381 0  0.1741666666666667 0.002380952380952381 0  0.17875 0.002380952380952381 0  0.1833333333333333 0.002380952380952381 0  0.1879166666666667 0.002380952380952381 0  0.1925 0.002380952380952381 0  0.1970833333333333 0.002380952380952381 0  0.2016666666666667 0.002380952380952381 0  0.20625 0.002380952380952381 0  0.2108333333333333 0.002380952380952381 0  0.2154166666666666 0.002380952380952381 0  0.22 0.002380952380952381 0  0.2245833333333334 0.002380952380952381 0  0.2291666666666667 0.002380952380952381 0  0.23375 0.002380952380952381 0  0.2383333333333333 0.002380952380952381 0  0.2429166666666667 0.002380952380952381 0  0.2475 0.002380952380952381 0  0.2520833333333333 0.002380952380952381 0  0.2566666666666667 0.002380952380952381 0  0.26125 0.002380952380952381 0  0.2658333333333334 0.002380952380952381 0  0.2704166666666666 0.002380952380952381 0  0.275 0.002380952380952381 0  0.2795833333333334 0.002380952380952381 0  0.2841666666666667 0.002380952380952381 0  0.28875 0.002380952380952381 0  0.2933333333333333 0.002380952380952381 0  0.2979166666666667 0.002380952380952381 0  0.3025 0.002380952380952381 0  0.3070833333333334 0.002380952380952381 0  0.3116666666666666 0.002380952380952381 0  0.31625 0.002380952380952381 0  0.3208333333333333 0.002380952380952381 0  0.3254166666666667 0.002380952380952381 0  0.33 0.002380952380952381 0  0.3345833333333333 0.002380952380952381 0  0.3391666666666667 0.002380952380952381 0  0.34375 0.002380952380952381 0  0.3483333333333333 0.002380952380952381 0  0.3529166666666667 0.002380952380952381 0  0.3575 0.002380952380952381 0  0.3620833333333333 0.002380952380952381 0  0.3666666666666667 0.002380952380952381 0  0.37125 0.002380952380952381 0  0.3758333333333334 0.002380952380952381 0  0.3804166666666667 0.002380952380952381 0  0.3850000000000001 0.002380952380952381 0  0.3895833333333333 0.002380952380952381 0  0.3941666666666667 0.002380952380952381 0  0.39875 0.002380952380952381 0  0.4033333333333334 0.002380952380952381 0  0.4079166666666666 0.002380952380952381 0  0.4125 0.002380952380952381 0  0.4170833333333334 0.002380952380952381 0  0.4216666666666667 0.002380952380952381 0  0.42625 0.002380952380952381 0  0.4308333333333333 0.002380952380952381 0  0.4354166666666667 0.002380952380952381 0  0.44 0.002380952380952381 0  0.4445833333333333 0.002380952380952381 0  0.4491666666666667 0.002380952380952381 0  0.45375 0.002380952380952381 0  0.4583333333333333 0.002380952380952381 0  0.4629166666666666 0.002380952380952381 0  0.4675 0.002380952380952381 0  0.4720833333333334 0.002380952380952381 0  0.4766666666666667 0.002380952380952381 0  0.4812500000000001 0.002380952380952381 0  0.4858333333333333 0.002380952380952381 0  0.4904166666666667 0.002380952380952381 0  0.495 0.002380952380952381 0  0.4995833333333334 0.002380952380952381 0  0.5041666666666667 0.002380952380952381 0  0.50875 0.002380952380952381 0  0.5133333333333334 0.002380952380952381 0  0.5179166666666667 0.002380952380952381 0  0.5225 0.002380952380952381 0  0.5270833333333333 0.002380952380952381 0  0.5316666666666667 0.002380952380952381 0  0.53625 0.002380952380952381 0  0.5408333333333333 0.002380952380952381 0  0.5454166666666667 0.002380952380952381 0  0.55 0.002380952380952381 0  0.5545833333333333 0.002380952380952381 0  0.5591666666666667 0.002380952380952381 0  0.5637500000000001 0.002380952380952381 0  0.5683333333333334 0.002380952380952381 0  0.5729166666666666 0.002380952380952381 0  0.5775 0.002380952380952381 0  0.5820833333333334 0.002380952380952381 0  0.5866666666666667 0.002380952380952381 0  0.5912499999999999 0.002380952380952381 0  0.5958333333333334 0.002380952380952381 0  0.6004166666666667 0.002380952380952381 0  0.605 0.002380952380952381 0  0.6095833333333334 0.002380952380952381 0  0.6141666666666667 0.002380952380952381 0  0.61875 0.002380952380952381 0  0.6233333333333333 0.002380952380952381 0  0.6279166666666667 0.002380952380952381 0  0.6325000000000001 0.002380952380952381 0  0.6370833333333333 0.002380952380952381 0  0.6416666666666666 0.002380952380952381 0  0.64625 0.002380952380952381 0  0.6508333333333334 0.002380952380952381 0  0.6554166666666666 0.002380952380952381 0  0.6599999999999999 0.002380952380952381 0  0.6645833333333334 0.002380952380952381 0  0.6691666666666667 0.002380952380952381 0  0.67375 0.002380952380952381 0  0.6783333333333333 0.002380952380952381 0  0.6829166666666667 0.002380952380952381 0  0.6875 0.002380952380952381 0  0.6920833333333333 0.002380952380952381 0  0.6966666666666667 0.002380952380952381 0  0.70125 0.002380952380952381 0  0.7058333333333333 0.002380952380952381 0  0.7104166666666667 0.002380952380952381 0  0.7150000000000001 0.002380952380952381 
[...]
<PointData  Scalars="pressure"> 
<DataArray  type="Float64"  Name="pressure"  format="ascii">3.4194548738426485e+04  3.4164668706704739e+04  3.4137568030127441e+04  3.4088686739703735e+04  2.4753501457946582e+04  2.4596960508809148e+04  2.4446339810729773e+04  2.4295539496418965e+04  2.4144723810796015e+04  2.3993873765882476e+04  2.3843003364391960e+04  2.3692120163587628e+04  2.3541229021977921e+04  2.3390332881817860e+04  2.3239433556140710e+04  2.3088532175752251e+04  2.2937629455972430e+04  2.2786725855003817e+04  2.2635821669608456e+04  2.2484917093828986e+04  2.2334012255591359e+04  2.2183107239838540e+04  2.2032202103329815e+04  2.1881296884208161e+04  2.1730391608241087e+04  2.1579486292922982e+04  2.1428580950189764e+04  2.1277675588225549e+04  2.1126770212670963e+04  2.0975864827435034e+04  2.0824959435242890e+04  2.0674054038006605e+04  2.0523148637077273e+04  2.0372243233416964e+04  2.0221337827716456e+04  2.0070432420476202e+04  1.9919527012062172e+04  1.9768621602744694e+04  1.9617716192725384e+04  1.9466810782156259e+04  1.9315905371152992e+04  1.9164999959804551e+04  1.9014094548179863e+04  1.8863189136332967e+04  1.8712283724306413e+04  1.8561378312134028e+04  1.8410472899842836e+04  1.8259567487454609e+04  1.8108662074986867e+04  1.7957756662453878e+04  1.7806851249867246e+04  1.7655945837236417e+04  1.7505040424569183e+04  1.7354135011871895e+04  1.7203229599149778e+04  1.7052324186407150e+04  1.6901418773647558e+04  1.6750513360873934e+04  1.6599607948088702e+04  1.6448702535293858e+04  1.6297797122491049e+04  1.6146891709681648e+04  1.5995986296866789e+04  1.5845080884047411e+04  1.5694175471224286e+04  1.5543270058398050e+04  1.5392364645569254e+04  1.5241459232738329e+04  1.5090553819905641e+04  1.4939648407071492e+04  1.4788742994236136e+04  1.4637837581399785e+04  1.4486932168562604e+04  1.4336026755724739e+04  1.4185121342886307e+04  1.4034215930047427e+04  1.3883310517208172e+04  1.3732405104368598e+04  1.3581499691528779e+04  1.3430594278688764e+04  1.3279688865848600e+04  1.3128783453008318e+04  1.2977878040167958e+04  1.2826972627327548e+04  1.2676067214487124e+04  1.2525161801646722e+04  1.2374256388806347e+04  1.2223350975966059e+04  1.2072445563125882e+04  1.1921540150285853e+04  1.1770634737446024e+04  1.1619729324606442e+04  1.1468823911767164e+04  1.1317918498928277e+04  1.1167013086089857e+04  1.1016107673252007e+04  1.0865202260414871e+04  1.0714296847578584e+04  1.0563391434743333e+04  1.0412486021909353e+04  1.0261580609076917e+04  1.0110675196246337e+04  9.9597697834180108e+03  9.8088643705924369e+03  9.6579589577701863e+03  9.5070535449519757e+03  9.3561481321386582e+03  9.2052427193312760e+03  9.0543373065310898e+03  8.9034318937396365e+03  8.7525264809587698e+03  8.6016210681907396e+03  8.4507156554382764e+03  8.2998102427046906e+03  8.1489048299940032e+03  7.9979994173110717e+03  7.8470940046618061e+03  7.6961885920533696e+03  7.5452831794944414e+03  7.3943777669955452e+03  7.2434723545694605e+03  7.0925669422316751e+03  6.9416615300009635e+03  6.7907561179001113e+03  6.6398507059567501e+03  6.4889452942043936e+03  6.3380398826836908e+03  6.1871344714439574e+03  6.0362290605450216e+03  5.8853236500594749e+03  5.7344182400753889e+03  5.5835128306996648e+03  5.4326074220620521e+03  5.2817020143200652e+03  5.1307966076650009e+03  4.9798912023292278e+03  4.8289857985951057e+03  4.6780803968059035e+03  4.5271749973791848e+03  4.3762696008231878e+03  4.2253642077570148e+03  4.0744588189355518e+03  3.9235534352803334e+03  3.7726480579179115e+03  3.6217426882278105e+03  3.4708373279028565e+03  3.3199319790255558e+03  3.1690266441654830e+03  3.0181213265048309e+03  2.8672160300018172e+03  2.7163107596060404e+03  2.5654055215462645e+03  2.4145003237211404e+03  2.2635951762390705e+03  2.1126900921791453e+03  1.9617850886877477e+03  1.8108801885989403e+03  1.6599754228962049e+03  1.5090708345773255e+03  1.3581664849073463e+03  1.2072624642666517e+03  1.0563589093142448e+03  9.0545605250227152e+02  7.5455417516309728e+02  6.0365472262176752e+02  4.5275236524602985e+02  3.0190539312167215e+02  1.5056425518422176e+02  4.2690995540409400e+00  3.4192941126896214e+04  3.4164399237242891e+04  3.4138091948823916e+04  2.4833175566332338e+04  2.4749626682060160e+04  2.4597161350467381e+04  2.4446317937829161e+04  2.4295547554852732e+04  2.4144727189878071e+04  2.3993876092026268e+04  2.3843004783701381e+04  2.3692121057299082e+04  2.3541229592072814e+04  2.3390333252117223e+04  2.3239433800862007e+04  2.3088532340357760e+04  2.2937629568743447e+04  2.2786725933814760e+04  2.2635821725916441e+04  2.2484917135070555e+04  2.2334012286647598e+04  2.2183107263945440e+04  2.2032202122652430e+04  2.1881296900207377e+04  2.1730391621910640e+04  2.1579486304944214e+04  2.1428580961033535e+04  2.1277675598219859e+04  2.1126770222046220e+04  2.0975864836354496e+04  2.0824959443823274e+04  2.0674054046332156e+04  2.0523148645209385e+04  2.0372243241400822e+04  2.0221337835585673e+04  2.0070432428255994e+04  1.9919527019771689e+04  1.9768621610398579e+04  1.9617716200334988e+04  1.9466810789730403e+04  1.9315905378698615e+04  1.9164999967327098e+04  1.9014094555683740e+04  1.8863189143821637e+04  1.8712283731782689e+04  1.8561378319600179e+04  1.8410472907300711e+04  1.8259567494905677e+04  1.8108662082432362e+04  1.7957756669894785e+04  1.7806851257304381e+04  1.7655945844670459e+04  1.7505040432000671e+04  1.7354135019301277e+04  1.7203229606577428e+04  1.7052324193833367e+04  1.6901418781072593e+04  1.6750513368297998e+04  1.6599607955511961e+04  1.6448702542716452e+04  1.6297797129913097e+04  1.6146891717103246e+04  1.5995986304288015e+04  1.5845080891468328e+04  1.5694175478644949e+04  1.5543270065818509e+04  1.5392364652989541e+04  1.5241459240158467e+04  1.5090553827325664e+04  1.4939648414491414e+04  1.4788743001655979e+04  1.4637837588819561e+04  1.4486932175982325e+04  1.4336026763144413e+04  1.4185121350305950e+04  1.4034215937467035e+04  1.3883310524627748e+04  1.3732405111788159e+04  1.3581499698948317e+04  1.3430594286108291e+04  1.3279688873268113e+04  1.3128783460427823e+04  1.2977878047587450e+04  1.2826972634747037e+04  1.2676067221906604e+04  1.2525161809066190e+04  1.2374256396225819e+04  1.2223350983385519e+04  1.2072445570545335e+04  1.1921540157705300e+04  1.1770634744865465e+04  1.1619729332025867e+04  1.1468823919186589e+04  1.1317918506347687e+04  1.1167013093509255e+04  1.1016107680671395e+04  1.0865202267834238e+04  1.0714296854997932e+04  1.0563391442162661e+04  1.0412486029328653e+04  1.0261580616496178e+04  1.0110675203665554e+04  9.9597697908371792e+03  9.8088643780115381e+03  9.6579589651892165e+03  9.5070535523709095e+03  9.3561481395574810e+03  9.2052427267499625e+03  9.0543373139496125e+03  8.9034319011579573e+03  8.7525264883768486e+03  8.6016210756085220e+03  8.4507156628556986e+03  8.2998102501216836e+03  8.1489048374104696e+03  7.9979994247269024e+03  7.8470940120768646e+03  7.6961885994674913e+03  7.5452831869074271e+03  7.3943777744071558e+03  7.2434723619794004e+03  7.0925669496395885e+03  6.9416615374064204e+03  6.7907561253025897e+03  6.6398507133556168e+03  6.4889453015988765e+03  6.3380398900728560e+03  6.1871344788266715e+03  6.0362290679199104e+03  5.8853236574248649e+03  5.7344182474292511e+03  5.5835128380395399e+03  5.4326074293849433e+03  5.2817020216223355e+03  5.1307966149422200e+03  4.9798912095760061e+03  4.8289858058048776e+03  4.6780804039706682e+03  4.5271750044891687e+03  4.3762696078664458e+03  4.2253642147189203e+03  4.0744588257981604e+03  3.9235534420215722e+03  3.7726480645105503e+03  3.6217426946381424e+03  3.4708373340889793e+03  3.3199319849351150e+03  3.1690266497326802e+03  3.0181213316463832e+03  2.8672160346114338e+03  2.7163107635467290e+03  2.5654055246394432e+03  2.4145003257308867e+03  2.2635951768488653e+03  2.1126900909566812e+03  1.9617850850302966e+03  1.8108801816459206e+03  1.6599754113854565e+03  1.5090708165931785e+03  1.3581664574769832e+03  1.2072624222246050e+03  1.0563588461910215e+03  9.0545593654027596e+02  7.5455411093030580e+02  6.0365354174039442e+02  4.5275922181286228e+02  3.0184260139026418e+02  1.5112639442134343e+02  -2.3169240930883431e-01  3.4191951383848143e+04  3.4163692380075147e+04  3.4136269167633021e+04  3.4098782829207637e+04  2.4746036852684192e+04  2.4597080972017371e+04  2.4446330821194351e+04  2.4295565064446568e+04  2.4144739262890656e+04  2.3993883553971737e+04  2.3843009398117269e+04  2.3692123932867042e+04  2.3541231408436972e+04  2.3390334414076631e+04  2.3239434552593884e+04  2.3088532831264838e+04  2.2937629891705517e+04  2.2786726147426012e+04  2.2635821867629809e+04  2.2484917229101946e+04  2.2334012348811350e+04  2.2183107304659534e+04  2.2032202148832646e+04  2.1881296916476171e+04  2.1730391631376951e+04  2.1579486309711276e+04  2.1428580962532200e+04  2.1277675597429003e+04  2.1126770219639278e+04  2.0975864832797528e+04  2.0824959439440820e+04  2.0674054041351719e+04  2.0523148639791620e+04  2.0372243235660055e+04  2.0221337829603926e+04  2.0070432422092672e+04  1.9919527013470190e+04  1.9768621603990923e+04  1.9617716193845044e+04  1.9466810783176137e+04  1.9315905372093686e+04  1.9164999960681984e+04  1.9014094549006553e+04  1.8863189137118719e+04  1.8712283725059020e+04  1.8561378312859710e+04  1.8410472900546585e+04  1.8259567488140430e+04  1.8108662075658031e+04  1.7957756663113018e+04  1.7806851250516509e+04  1.7655945837877578e+04  1.7505040425203661e+04  1.7354135012500879e+04  1.7203229599774233e+04  1.7052324187027873e+04  1.6901418774265199e+04  1.6750513361489033e+04  1.6599607948701698e+04  1.6448702535905119e+04  1.6297797123100880e+04  1.6146891710290298e+04  1.5995986297474459e+04  1.5845080884654279e+04  1.5694175471830484e+04  1.5543270059003704e+04  1.5392364646174448e+04  1.5241459233343145e+04  1.5090553820510147e+04  1.4939648407675741e+04  1.4788742994840175e+04  1.4637837582003642e+04  1.4486932169166317e+04  1.4336026756328331e+04  1.4185121343489805e+04  1.4034215930650837e+04  1.3883310517811511e+04  1.3732405104971882e+04  1.3581499692132014e+04  1.3430594279291958e+04  1.3279688866451756e+04  1.3128783453611442e+04  1.2977878040771056e+04  1.2826972627930627e+04  1.2676067215090179e+04  1.2525161802249751e+04  1.2374256389409366e+04  1.2223350976569052e+04  1.2072445563728848e+04  1.1921540150888799e+04  1.1770634738048941e+04  1.1619729325209322e+04  1.1468823912370011e+04  1.1317918499531081e+04  1.1167013086692610e+04  1.1016107673854704e+04  1.0865202261017486e+04  1.0714296848181109e+04  1.0563391435345755e+04  1.0412486022511646e+04  1.0261580609679047e+04  1.0110675196848277e+04  9.9597697840197216e+03  9.8088643711938639e+03  9.6579589583712750e+03  9.5070535455526460e+03  9.3561481327388283e+03  9.2052427199308404e+03  9.0543373071299138e+03  8.9034318943375674e+03  8.7525264815556184e+03  8.6016210687862731e+03  8.4507156560322128e+03  8.2998102432966971e+03  8.1489048305836632e+03  7.9979994178978895e+03  7.8470940052451788e+03  7.6961885926325613e+03  7.5452831800685644e+03  7.3943777675635229e+03  7.2434723551299830e+03  7.0925669427831554e+03  6.9416615305414753e+03  6.7907561184273209e+03  6.6398507064678288e+03  6.4889452946959018e+03  6.3380398831514594e+03  6.1871344718829250e+03  6.0362290609490501e+03  5.8853236504211027e+03  5.7344182403855593e+03  5.5835128309473830e+03  5.4326074222339503e+03  5.2817020143998934e+03  5.1307966076329940e+03  4.9798912021613269e+03  4.8289857982620051e+03  4.6780803962718755e+03  4.5271749966006137e+03  4.3762695997467608e+03  4.2253642063174539e+03  4.0744588170527700e+03  3.9235534328558342e+03  3.7726480548302015e+03  3.6217426843265134e+03  3.4708373230010607e+03  3.3199319728897794e+03  3.1690266365023467e+03  3.0181213169431026e+03  2.8672160180678538e+03  2.7163107446896433e+03  2.5654055028523471e+03  2.4145003001999194e+03  2.2635951464830714e+03  2.1126900542675853e+03  1.9617850399452461e+03  1.8108801252103754e+03  1.6599753392721523e+03  1.5090707222672268e+03  1.3581663306828668e+03  1.2072622463907126e+03  1.0563585915340011e+03  9.0545556034237995e+02  7.5455344137563657e+02  6.0365294607544968e+02  4.5275398459341756e+02  3.0186470232687003e+02  1.5100001904975173e+02  3.0504436356392533e-02  3.4191114392493844e+04  3.4162873159340823e+04  3.4133591036211190e+04  3.4102794284012802e+04  2.4748024185537524e+04  2.4596865880026704e+04  2.4446383590231697e+04  2.4295594824288131e+04  2.4144759228141811e+04  2.3993895769494073e+04  2.3843016936438125e+04  2.3692128634949331e+04  2.3541234380585156e+04  2.3390336315624463e+04  2.3239435781713437e+04  2.3088533632206545e+04  2.2937630416662883e+04  2.2786726492598787e+04  2.2635822094598621e+04  2.2484917377722591e+04  2.2334012445125780e+04  2.2183107365824679e+04  2.2032202186233673e+04  2.1881296937716619e+04  2.1730391641564216e+04  2.1579486312294430e+04  2.1428580959852319e+04  2.1277675591083036e+04  2.1126770210722065e+04  2.0975864822063613e+04  2.0824959427413109e+04  2.0674054028394730e+04  2.0523148626161103e+04  2.0372243221536719e+04  2.0221337815116440e+04  2.0070432407333396e+04  1.9919526998506015e+04  1.9768621588870756e+04  1.9617716178604980e+04  1.9466810767843072e+04  1.9315905356687879e+04  1.9164999945218853e+04  1.9014094533497908e+04  1.8863189121573727e+04  1.8712283709484847e+04  1.8561378297261977e+04  1.8410472884929775e+04  1.8259567472508104e+04  1.8108662060013048e+04  1.7957756647457692e+04  1.7806851234852711e+04  1.7655945822206821e+04  1.7505040409527188e+04  1.7354134996819696e+04  1.7203229584089175e+04  1.7052324171339616e+04  1.6901418758574306e+04  1.6750513345795964e+04  1.6599607933006828e+04  1.6448702520208761e+04  1.6297797107403292e+04  1.6146891694591697e+04  1.5995986281775020e+04  1.5845080868954139e+04  1.5694175456129777e+04  1.5543270043302518e+04  1.5392364630472870e+04  1.5241459217641243e+04  1.5090553804807974e+04  1.4939648391973340e+04  1.4788742979137593e+04  1.4637837566300903e+04  1.4486932153463451e+04  1.4336026740625361e+04  1.4185121327786750e+04  1.4034215914947710e+04  1.3883310502108317e+04  1.3732405089268637e+04  1.3581499676428726e+04  1.3430594263588633e+04  1.3279688850748400e+04  1.3128783437908058e+04  1.2977878025067650e+04  1.2826972612227195e+04  1.2676067199386724e+04  1.2525161786546272e+04  1.2374256373705864e+04  1.2223350960865529e+04  1.2072445548025298e+04  1.1921540135185218e+04  1.1770634722345319e+04  1.1619729309505665e+04  1.1468823896666308e+04  1.1317918483827320e+04  1.1167013070988784e+04  1.1016107658150791e+04  1.0865202245313478e+04  1.0714296832476986e+04  1.0563391419641488e+04  1.0412486006807205e+04  1.0261580593974399e+04  1.0110675181143371e+04  9.9597697683145125e+03  9.8088643554882819e+03  9.6579589426652419e+03  9.5070535298460691e+03  9.3561481170315874e+03  9.2052427042227901e+03  9.0543372914208940e+03  8.9034318786273598e+03  8.7525264658439792e+03  8.6016210530728931e+03  8.4507156403167246e+03  8.2998102275786514e+03  8.1489048148625170e+03  7.9979994021729808e+03  7.8470939895157089e+03  7.6961885768975617e+03  7.5452831643268582e+03  7.3943777518136840e+03  7.2434723393702780e+03  7.0925669270114859e+03  6.9416615147552966e+03  6.7907561026235435e+03  6.6398506906427028e+03  6.4889452788448834e+03  6.3380398672690308e+03  6.1871344559623913e+03  6.0362290449822858e+03  5.8853236343982417e+03  5.7344182242946226e+03  5.5835128147738178e+03  5.4326074059600742e+03  5.2817019980042141e+03  5.1307965910893645e+03  4.9798911854379303e+03  4.8289857813200879e+03  4.6780803790641903e+03  4.5271749790694948e+03  4.3762695818217308e+03  4.2253641879122415e+03  4.0744587980615520e+03  3.9235534131484987e+03  3.7726480342463183e+03  3.6217426626675929e+03  3.4708373000205165e+03  3.3199319482797760e+03  3.1690266098763609e+03  3.0181212878124688e+03  2.8672159858097643e+03  2.7163107085027523e+03  2.5654054616940916e+03  2.4145002526962835e+03  2.2635950907959177e+03  2.1126899878950444e+03  1.9617849594137112e+03  1.8108800255857316e+03  1.6599752133599022e+03  1.5090705592550335e+03  1.3581661137608198e+03  1.2072619482641126e+03  1.0563581665181241e+03  9.0545492232910760e+02  7.5455245896232714e+02  6.0365113970073935e+02  4.5275160942503959e+02  3.0185741371914941e+02  1.5095887924771702e+02  -2.4393600603579936e-03  3.4190385144084503e+04  3.4162009388368366e+04  3.4132762929050325e+04  3.4104185774325015e+04  2.4749354571251162e+04  2.4597086335031527e+04  2.4446448389358404e+04  2.4295639861928936e+04  2.4144785740401257e+04  2.3993911996477073e+04  2.3843026942088520e+04  2.3692134902727103e+04  2.3541238362210901e+04  2.3390338877351387e+04  2.3239437448282733e+04  2.3088534726903767e+04  2.2937631141760150e+04  2.2786726976413069e+04  2.2635822419518823e+04  2.2484917597203264e+04  2.2334012594162316e+04  2.2183107467507030e+04  2.2032202255900673e+04  2.1881296985619552e+04  2.1730391674591610e+04  2.1579486335098503e+04  2.1428580975590066e+04  2.1277675601906816e+04  2.1126770218106329e+04  2.0975864827023357e+04  2.0824959430650717e+04  2.0674054030399009e+04  2.0523148627274310e+04  2.0372243222000110e+04  2.0221337815101331e+04  2.0070432406962402e+04  1.9919526997867670e+04  1.9768621588029539e+04  1.9617716177608330e+04  1.9466810766726234e+04  1.9315905355477287e+04  1.9164999943934537e+04  1.9014094532155214e+04  1.8863189120184485e+04  1.8712283708058269e+04  1.8561378295805334e+04  1.8410472883448787e+04  1.8259567471007333e+04  1.8108662058496160e+04  1.7957756645927628e+04  1.7806851233311860e+04  1.7655945820657111e+04  1.7505040407970206e+04  1.7354134995256722e+04  1.7203229582521268e+04  1.7052324169767639e+04  1.6901418756998974e+04  1.6750513344217856e+04  1.6599607931426428e+04  1.6448702518626465e+04  1.6297797105819429e+04  1.6146891693006539e+04  1.5995986280188796e+04  1.5845080867367029e+04  1.5694175454541928e+04  1.5543270041714066e+04  1.5392364628883917e+04  1.5241459216051870e+04  1.5090553803218258e+04  1.4939648390383340e+04  1.4788742977547348e+04  1.4637837564710473e+04  1.4486932151872848e+04  1.4336026739034629e+04  1.4185121326195909e+04  1.4034215913356771e+04  1.3883310500517298e+04  1.3732405087677555e+04  1.3581499674837583e+04  1.3430594261997447e+04  1.3279688849157168e+04  1.3128783436316793e+04  1.2977878023476349e+04  1.2826972610635861e+04  1.2676067197795364e+04  1.2525161784954886e+04  1.2374256372114442e+04  1.2223350959274076e+04  1.2072445546433806e+04  1.1921540133593684e+04  1.1770634720753740e+04  1.1619729307914029e+04  1.1468823895074604e+04  1.1317918482235531e+04  1.1167013069396900e+04  1.1016107656558799e+04  1.0865202243721347e+04  1.0714296830884690e+04  1.0563391418048997e+04  1.0412486005214469e+04  1.0261580592381368e+04  1.0110675179549984e+04  9.9597697667206940e+03  9.8088643538939414e+03  9.6579589410702702e+03  9.5070535282503261e+03  9.3561481154349149e+03  9.2052427026249898e+03  9.0543372898217240e+03  8.9034318770265327e+03  8.7525264642411366e+03  8.6016210514676077e+03  8.4507156387084797e+03  8.2998102259668158e+03  8.1489048132463304e+03  7.9979994005515164e+03  7.8470939878878426e+03  7.6961885752619328e+03  7.5452831626818133e+03  7.3943777501572204e+03  7.2434723376999673e+03  7.0925669253243841e+03  6.9416615130478267e+03  6.7907561008913708e+03  6.6398506888805687e+03  6.4889452770464077e+03  6.3380398654264673e+03  6.1871344540663449e+03  6.0362290430213534e+03  5.8853236323585761e+03  5.7344182221594119e+03  5.5835128125226447e+03  5.4326074035681240e+03  5.2817019954413290e+03  5.1307965883188690e+03  4.9798911824151864e+03  4.8289857779907379e+03  4.6780803753619748e+03  4.5271749749135588e+03  4.3762695771132812e+03  4.2253641825303694e+03  4.0744587918580037e+03  3.9235534059410675e+03  3.7726480258104489e+03  3.6217426527256193e+03  3.4708372882277372e+03  3.3199319342062399e+03  3.1690265929827679e+03  3.0181212674178478e+03  2.8672159610474951e+03  2.7163106782597720e+03  2.5654054245253751e+03  2.4145002067022760e+03  2.2635950