<?xml version="1.0"?>
<VTKFile type="UnstructuredGrid"  version="0.1"  >
<UnstructuredGrid>
<Piece  NumberOfPoints="21400" NumberOfCells="42336">
<Points>
<DataArray  type="Float64"  NumberOfComponents="3"  format="ascii">0 0 0  0.004583333333333333 0 0  0.009166666666666667 0 0  0.01375 0 0  0.01833333333333333 0 0  0.02291666666666667 0 0  0.0275 0 0  0.03208333333333334 0 0  0.03666666666666667 0 0  0.04125 0 0  0.04583333333333334 0 0  0.05041666666666667 0 0  0.055 0 0  0.05958333333333334 0 0  0.06416666666666668 0 0  0.06875000000000001 0 0  0.07333333333333333 0 0  0.07791666666666666 0 0  0.08249999999999999 0 0  0.08708333333333333 0 0  0.09166666666666667 0 0  0.09625000000000002 0 0  0.1008333333333333 0 0  0.1054166666666667 0 0  0.11 0 0  0.1145833333333333 0 0  0.1191666666666667 0 0  0.12375 0 0  0.1283333333333334 0 0  0.1329166666666667 0 0  0.1375 0 0  0.1420833333333333 0 0  0.1466666666666667 0 0  0.15125 0 0  0.1558333333333333 0 0  0.1604166666666667 0 0  0.165 0 0  0.1695833333333333 0 0  0.1741666666666667 0 0  0.17875 0 0  0.1833333333333333 0 0  0.1879166666666667 0 0  0.1925 0 0  0.1970833333333333 0 0  0.2016666666666667 0 0  0.20625 0 0  0.2108333333333333 0 0  0.2154166666666666 0 0  0.22 0 0  0.2245833333333334 0 0  0.2291666666666667 0 0  0.23375 0 0  0.2383333333333333 0 0  0.2429166666666667 0 0  0.2475 0 0  0.2520833333333333 0 0  0.2566666666666667 0 0  0.26125 0 0  0.2658333333333334 0 0  0.2704166666666666 0 0  0.275 0 0  0.2795833333333334 0 0  0.2841666666666667 0 0  0.28875 0 0  0.2933333333333333 0 0  0.2979166666666667 0 0  0.3025 0 0  0.3070833333333334 0 0  0.3116666666666666 0 0  0.31625 0 0  0.3208333333333333 0 0  0.3254166666666667 0 0  0.33 0 0  0.3345833333333333 0 0  0.3391666666666667 0 0  0.34375 0 0  0.3483333333333333 0 0  0.3529166666666667 0 0  0.3575 0 0  0.3620833333333333 0 0  0.3666666666666667 0 0  0.37125 0 0  0.3758333333333334 0 0  0.3804166666666667 0 0  0.3850000000000001 0 0  0.3895833333333333 0 0  0.3941666666666667 0 0  0.39875 0 0  0.4033333333333334 0 0  0.4079166666666666 0 0  0.4125 0 0  0.4170833333333334 0 0  0.4216666666666667 0 0  0.42625 0 0  0.4308333333333333 0 0  0.4354166666666667 0 0  0.44 0 0  0.4445833333333333 0 0  0.4491666666666667 0 0  0.45375 0 0  0.4583333333333333 0 0  0.4629166666666666 0 0  0.4675 0 0  0.4720833333333334 0 0  0.4766666666666667 0 0  0.4812500000000001 0 0  0.4858333333333333 0 0  0.4904166666666667 0 0  0.495 0 0  0.4995833333333334 0 0  0.5041666666666667 0 0  0.50875 0 0  0.5133333333333334 0 0  0.5179166666666667 0 0  0.5225 0 0  0.5270833333333333 0 0  0.5316666666666667 0 0  0.53625 0 0  0.5408333333333333 0 0  0.5454166666666667 0 0  0.55 0 0  0.5545833333333333 0 0  0.5591666666666667 0 0  0.5637500000000001 0 0  0.5683333333333334 0 0  0.5729166666666666 0 0  0.5775 0 0  0.5820833333333334 0 0  0.5866666666666667 0 0  0.5912499999999999 0 0  0.5958333333333334 0 0  0.6004166666666667 0 0  0.605 0 0  0.6095833333333334 0 0  0.6141666666666667 0 0  0.61875 0 0  0.6233333333333333 0 0  0.6279166666666667 0 0  0.6325000000000001 0 0  0.6370833333333333 0 0  0.6416666666666666 0 0  0.64625 0 0  0.6508333333333334 0 0  0.6554166666666666 0 0  0.6599999999999999 0 0  0.6645833333333334 0 0  0.6691666666666667 0 0  0.67375 0 0  0.6783333333333333 0 0  0.6829166666666667 0 0  0.6875 0 0  0.6920833333333333 0 0  0.6966666666666667 0 0  0.70125 0 0  0.7058333333333333 0 0  0.7104166666666667 0 0  0.7150000000000001 0 0  0.7195833333333334 0 0  0.7241666666666666 0 0  0.72875 0 0  0.7333333333333334 0 0  0.7379166666666667 0 0  0.7425 0 0  0.7470833333333333 0 0  0.7516666666666667 0 0  0.75625 0 0  0.7608333333333334 0 0  0.7654166666666666 0 0  0.7700000000000001 0 0  0 0.002380952380952381 0  0.004583333333333333 0.002380952380952381 0  0.009166666666666667 0.002380952380952381 0  0.01375 0.002380952380952381 0  0.01833333333333333 0.002380952380952381 0  0.02291666666666667 0.002380952380952381 0  0.0275 0.002380952380952381 0  0.03208333333333334 0.002380952380952381 0  0.03666666666666667 0.002380952380952381 0  0.04125 0.002380952380952381 0  0.04583333333333334 0.002380952380952381 0  0.05041666666666667 0.002380952380952381 0  0.055 0.002380952380952381 0  0.05958333333333334 0.002380952380952381 0  0.06416666666666668 0.002380952380952381 0  0.06875000000000001 0.002380952380952381 0  0.07333333333333333 0.002380952380952381 0  0.07791666666666666 0.002380952380952381 0  0.08249999999999999 0.002380952380952381 0  0.08708333333333333 0.002380952380952381 0  0.09166666666666667 0.002380952380952381 0  0.09625000000000002 0.002380952380952381 0  0.1008333333333333 0.002380952380952381 0  0.1054166666666667 0.002380952380952381 0  0.11 0.002380952380952381 0  0.1145833333333333 0.002380952380952381 0  0.1191666666666667 0.002380952380952381 0  0.12375 0.002380952380952381 0  0.1283333333333334 0.002380952380952381 0  0.1329166666666667 0.002380952380952381 0  0.1375 0.002380952380952381 0  0.1420833333333333 0.002380952380952381 0  0.1466666666666667 0.002380952380952381 0  0.15125 0.002380952380952381 0  0.1558333333333333 0.002380952380952381 0  0.1604166666666667 0.002380952380952381 0  0.165 0.002380952380952381 0  0.1695833333333333 0.002380952380952381 0  0.1741666666666667 0.002380952380952381 0  0.17875 0.002380952380952381 0  0.1833333333333333 0.002380952380952381 0  0.1879166666666667 0.002380952380952381 0  0.1925 0.002380952380952381 0  0.1970833333333333 0.002380952380952381 0  0.2016666666666667 0.002380952380952381 0  0.20625 0.002380952380952381 0  0.2108333333333333 0.002380952380952381 0  0.2154166666666666 0.002380952380952381 0  0.22 0.002380952380952381 0  0.2245833333333334 0.002380952380952381 0  0.2291666666666667 0.002380952380952381 0  0.23375 0.002380952380952381 0  0.2383333333333333 0.002380952380952381 0  0.2429166666666667 0.002380952380952381 0  0.2475 0.002380952380952381 0  0.2520833333333333 0.002380952380952381 0  0.2566666666666667 0.002380952380952381 0  0.26125 0.002380952380952381 0  0.2658333333333334 0.002380952380952381 0  0.2704166666666666 0.002380952380952381 0  0.275 0.002380952380952381 0  0.2795833333333334 0.002380952380952381 0  0.2841666666666667 0.002380952380952381 0  0.28875 0.002380952380952381 0  0.2933333333333333 0.002380952380952381 0  0.2979166666666667 0.002380952380952381 0  0.3025 0.002380952380952381 0  0.3070833333333334 0.002380952380952381 0  0.3116666666666666 0.002380952380952381 0  0.31625 0.002380952380952381 0  0.3208333333333333 0.002380952380952381 0  0.3254166666666667 0.002380952380952381 0  0.33 0.002380952380952381 0  0.3345833333333333 0.002380952380952381 0  0.3391666666666667 0.002380952380952381 0  0.34375 0.002380952380952381 0  0.3483333333333333 0.002380952380952381 0  0.3529166666666667 0.002380952380952381 0  0.3575 0.002380952380952381 0  0.3620833333333333 0.002380952380952381 0  0.3666666666666667 0.002380952380952381 0  0.37125 0.002380952380952381 0  0.3758333333333334 0.002380952380952381 0  0.3804166666666667 0.002380952380952381 0  0.3850000000000001 0.002380952380952381 0  0.3895833333333333 0.002380952380952381 0  0.3941666666666667 0.002380952380952381 0  0.39875 0.002380952380952381 0  0.4033333333333334 0.002380952380952381 0  0.4079166666666666 0.002380952380952381 0  0.4125 0.002380952380952381 0  0.4170833333333334 0.002380952380952381 0  0.4216666666666667 0.002380952380952381 0  0.42625 0.002380952380952381 0  0.4308333333333333 0.002380952380952381 0  0.4354166666666667 0.002380952380952381 0  0.44 0.002380952380952381 0  0.4445833333333333 0.002380952380952381 0  0.4491666666666667 0.002380952380952381 0  0.45375 0.002380952380952381 0  0.4583333333333333 0.002380952380952381 0  0.4629166666666666 0.002380952380952381 0  0.4675 0.002380952380952381 0  0.4720833333333334 0.002380952380952381 0  0.4766666666666667 0.002380952380952381 0  0.4812500000000001 0.002380952380952381 0  0.4858333333333333 0.002380952380952381 0  0.4904166666666667 0.002380952380952381 0  0.495 0.002380952380952381 0  0.4995833333333334 0.002380952380952381 0  0.5041666666666667 0.002380952380952381 0  0.50875 0.002380952380952381 0  0.5133333333333334 0.002380952380952381 0  0.5179166666666667 0.002380952380952381 0  0.5225 0.002380952380952381 0  0.5270833333333333 0.002380952380952381 0  0.5316666666666667 0.002380952380952381 0  0.53625 0.002380952380952381 0  0.5408333333333333 0.002380952380952381 0  0.5454166666666667 0.002380952380952381 0  0.55 0.002380952380952381 0  0.5545833333333333 0.002380952380952381 0  0.5591666666666667 0.002380952380952381 0  0.5637500000000001 0.002380952380952381 0  0.5683333333333334 0.002380952380952381 0  0.5729166666666666 0.002380952380952381 0  0.5775 0.002380952380952381 0  0.5820833333333334 0.002380952380952381 0  0.5866666666666667 0.002380952380952381 0  0.5912499999999999 0.002380952380952381 0  0.5958333333333334 0.002380952380952381 0  0.6004166666666667 0.002380952380952381 0  0.605 0.002380952380952381 0  0.6095833333333334 0.002380952380952381 0  0.6141666666666667 0.002380952380952381 0  0.61875 0.002380952380952381 0  0.6233333333333333 0.002380952380952381 0  0.6279166666666667 0.002380952380952381 0  0.6325000000000001 0.002380952380952381 0  0.6370833333333333 0.002380952380952381 0  0.6416666666666666 0.002380952380952381 0  0.64625 0.002380952380952381 0  0.6508333333333334 0.002380952380952381 0  0.6554166666666666 0.002380952380952381 0  0.6599999999999999 0.002380952380952381 0  0.6645833333333334 0.002380952380952381 0  0.6691666666666667 0.002380952380952381 0  0.67375 0.002380952380952381 0  0.6783333333333333 0.002380952380952381 0  0.6829166666666667 0.002380952380952381 0  0.6875 0.002380952380952381 0  0.6920833333333333 0.002380952380952381 0  0.6966666666666667 0.002380952380952381 0  0.70125 0.002380952380952381 0  0.7058333333333333 0.002380952380952381 0  0.7104166666666667 0.002380952380952381 0  0.7150000000000001 0.002380952380952381 
[...]
<PointData  Scalars="pressure"> 
<DataArray  type="Float64"  Name="pressure"  format="ascii">1.4682025902809282e+04  1.4652330848212672e+04  1.4625121301162479e+04  1.4596532970989239e+04  1.4566660540928502e+04  1.4531286472764989e+04  1.4498593017322055e+04  1.4465873251435209e+04  1.4430301689711034e+04  1.4401080036135401e+04  1.4377288525739608e+04  1.4350958093993591e+04  1.4323872829992531e+04  1.4296445715619167e+04  1.4268827047974888e+04  1.4241060214147194e+04  1.4213105730588000e+04  1.4184864702695486e+04  1.4156287201637106e+04  1.4127519605681022e+04  1.4098786194102771e+04  1.4070069319658623e+04  1.4041199271500560e+04  1.4012086658624823e+04  1.3982740866801138e+04  1.3953187447208476e+04  1.3923500434943713e+04  1.3893767696599069e+04  1.3863882435062967e+04  1.3833668836517880e+04  1.3803121247305129e+04  1.3772458057284730e+04  1.3742033619849364e+04  1.3712259776417592e+04  1.3683478801398913e+04  1.3660135832811069e+04  9.9233885166699274e+03  9.9001988231915020e+03  9.8782103439211005e+03  9.8582021146440929e+03  9.8336033959606211e+03  9.8105950799890197e+03  9.7881896977475517e+03  9.7658581776893752e+03  9.7435241056095838e+03  9.7211325636358888e+03  9.6985666544365686e+03  9.6758664704300099e+03  9.6528585562892113e+03  9.6296394979750767e+03  9.6059709402895896e+03  9.5820132719259782e+03  9.5574708242761881e+03  9.5324960917040735e+03  9.5056323079053818e+03  9.4769595481914548e+03  9.4461287429121312e+03  9.4145509379179348e+03  9.3843097759757275e+03  9.3477600981092364e+03  9.3123737191688906e+03  9.2757846169663153e+03  9.2377072830357574e+03  9.1972749681373771e+03  9.1545873159354942e+03  9.1128493165884574e+03  9.0716952719447745e+03  9.0283645784885157e+03  8.9835363903171037e+03  8.9386816772764814e+03  8.8942302808572476e+03  8.8506671436088509e+03  8.8064004936498477e+03  8.7687516350026090e+03  8.7384311780940679e+03  8.7072461860416024e+03  8.6766933656116471e+03  8.6466661366214030e+03  8.6158704926565097e+03  8.5847458371573703e+03  8.5544013155353168e+03  8.5250701679695812e+03  8.4958162907572223e+03  8.4669235978342895e+03  8.4375078707904067e+03  8.4078229482866409e+03  8.3783862994451792e+03  8.3492065587029520e+03  8.3202852700997482e+03  8.2915441513422611e+03  8.2629917250477538e+03  8.2345566569959028e+03  8.2062575285152489e+03  8.1780304102771042e+03  8.1499020024531719e+03  8.1218139975922877e+03  8.0937988275153875e+03  8.0658018301983002e+03  8.0378586080932355e+03  8.0099151522820966e+03  7.9820048824459936e+03  7.9540599124807468e+03  7.9260503118245970e+03  7.8977110466621762e+03  7.8688372523159787e+03  7.8394662513556832e+03  7.8096156982282500e+03  7.7792454197779307e+03  7.7483007627227216e+03  7.7167037752195092e+03  7.6843504439018079e+03  7.6511143255975667e+03  7.6168514973104238e+03  7.5815141379745510e+03  7.5455904827189097e+03  7.5098135189781597e+03  7.4736121137561477e+03  7.4367796869701224e+03  7.4007358771227209e+03  7.3372038543174986e+03  7.2058381941635371e+03  7.0562203747725016e+03  6.9088518646479879e+03  6.7630961892571086e+03  6.6172734294616939e+03  6.4708172238210554e+03  6.3235967135567807e+03  6.1756592632340062e+03  6.0271106832644800e+03  5.8780646715208040e+03  5.7286233836269948e+03  5.5788718312363217e+03  5.4288780577767548e+03  5.2786954052022411e+03  5.1283652471101177e+03  4.9779195304971199e+03  4.8273829105204259e+03  4.6767744539716268e+03  4.5261089607708191e+03  4.3753979731097488e+03  4.2246505398113177e+03  4.0738737934565511e+03  3.9230733862707807e+03  3.7722538202354090e+03  3.6214186982065798e+03  3.4705709160174988e+03  3.3197128103690261e+03  3.1688462734535287e+03  3.0179728424091686e+03  2.8670937696131487e+03  2.7162100782959806e+03  2.5653226068443851e+03  2.4144320443475067e+03  2.2635389593504201e+03  2.1126438233549443e+03  1.9617470303151567e+03  1.8108489131964534e+03  1.6599497586056639e+03  1.5090498205984322e+03  1.3581493350812948e+03  1.2072485373614554e+03  1.0563476848428538e+03  9.0544711113017024e+02  7.5454718294743111e+02  6.0364941846619740e+02  4.5274855116012287e+02  3.0190292630851911e+02  1.5056304723362680e+02  4.2690647619226345e+00  1.4680373389141707e+04  1.4652014202768365e+04  1.4625991391655811e+04  1.4594763966411276e+04  1.0610124152700402e+04  1.0585280061274867e+04  1.0561706626615576e+04  1.0538117344623350e+04  1.0513224844200129e+04  1.4401763473377363e+04  1.4377481464078050e+04  1.4351025326158795e+04  1.4323906858380058e+04  1.4296464742327931e+04  1.4268841695848074e+04  1.4241079246313013e+04  1.4213137379044279e+04  1.4184905642923444e+04  1.4156310394304524e+04  1.4127509416821091e+04  1.4098781473635539e+04  1.4070088355467871e+04  1.4041227725656805e+04  1.4012111588504107e+04  1.3982764382109119e+04  1.3953203433814408e+04  1.3923500101219654e+04  1.3893782894090989e+04  1.3863921921332130e+04  1.3833709409515739e+04  1.3803136364915583e+04  1.3772431778886345e+04  1.3741968244386773e+04  1.3712124081770960e+04  1.3683450076892363e+04  1.3657047912508140e+04  1.3622254847303604e+04  1.3590402661413009e+04  1.3560148810327340e+04  1.3532524370849518e+04  9.8333555664116557e+03  1.3467512923365368e+04  9.7881702543715928e+03  1.3406110650942506e+04  9.7435333679301930e+03  1.3344722444467452e+04  9.6985910407684223e+03  1.3282591173217601e+04  9.6528980356423617e+03  1.3219141706807726e+04  9.6060260080638454e+03  1.3153769390550988e+04  9.5575472515989077e+03  1.3085860960234557e+04  9.5060187496952003e+03  1.3009638385381069e+04  9.4462735363915999e+03  1.2923876175492020e+04  9.3835347984687178e+03  9.3477549120997555e+03  9.3125345676260022e+03  9.2759316947569550e+03  9.2379700925719389e+03  9.1976376091667607e+03  9.1543785795212116e+03  9.1127264621425111e+03  9.0720445469224596e+03  9.0285302365661209e+03  8.9835154935718128e+03  8.9386441077776235e+03  8.8941391132307108e+03  8.8505139382497418e+03  8.8074525936685150e+03  1.2037669570902750e+04  1.1995729208391334e+04  1.1952808945078415e+04  1.1910851657523932e+04  1.1869872070472091e+04  1.1827503066442852e+04  1.1784627367299909e+04  1.1742918797757924e+04  1.1702853573663124e+04  1.1662560160367841e+04  1.1623091703604698e+04  1.1582641089569453e+04  1.1541818048988664e+04  1.1501424482847426e+04  1.1461359907231454e+04  1.1421675475641776e+04  1.1382211723101011e+04  1.1343033065686073e+04  1.1303988038571817e+04  1.1265156409646122e+04  1.1226395748587360e+04  1.1187797947953426e+04  1.1149227481592110e+04  1.1110784786375911e+04  1.1072338794483203e+04  1.1033994841738531e+04  1.0995622466622770e+04  1.0957324715464940e+04  1.0918954902465568e+04  1.0880545739922100e+04  1.0841670538768503e+04  1.0802022512987422e+04  1.0761701597520083e+04  1.0720729916205666e+04  1.0679044924114149e+04  1.0636574664784888e+04  1.0593211980918191e+04  1.0548813347647625e+04  1.0503206609410146e+04  1.0456189796845478e+04  1.0407624200288286e+04  1.0358168236803805e+04  1.0309194945658301e+04  1.0259477181247261e+04  1.0208796516707220e+04  1.0159009235410707e+04  7.3450566059496414e+03  7.2069667242218757e+03  7.0556311319704273e+03  6.9087241496718425e+03  6.7631179113606649e+03  6.6173493338840617e+03  6.4709031860292234e+03  6.3236756913945292e+03  6.1757259390846057e+03  6.0271646772967733e+03  5.8781074541270982e+03  5.7286569112560501e+03  5.5788979842636527e+03  5.4288984445417700e+03  5.2787113261675295e+03  5.1283777225540907e+03  4.9779293478136542e+03  4.8273906723388463e+03  4.6767806200786199e+03  4.5261138820999158e+03  4.3754019182471247e+03  4.2246537152086912e+03  4.0738763586504774e+03  3.9230754652674514e+03  3.7722555100076556e+03  3.6214200750404575e+03  3.4705720402668494e+03  3.3197137300337376e+03  3.1688470268877895e+03  3.0179734603841107e+03  2.8670942768978134e+03  2.7162104948762840e+03  2.5653229488673669e+03  2.4144323248543633e+03  2.2635391888439390e+03  2.1126440102329789e+03  1.9617471811897203e+03  1.8108490331055918e+03  1.6599498511102993e+03  1.5090498877243051e+03  1.3581493770718400e+03  1.2072485516687223e+03  1.0563476671181350e+03  9.0544703132218729e+02  7.5454714698046610e+02  6.0364825903146834e+02  4.5275542308783616e+02  3.0184014503501226e+02  1.5112518692927327e+02  -2.3169015917821478e-01  1.4679217855620449e+04  1.4651151375324427e+04  1.4624526877209404e+04  1.4591808313711803e+04  1.4562789872317366e+04  1.4530293905362472e+04  1.4498607270329421e+04  1.4466919098058133e+04  1.4434441490290006e+04  1.4404070033671318e+04  1.4378019848482101e+04  1.4351256845104032e+04  1.4324019423825528e+04  1.4296528758337648e+04  1.4268890363992687e+04  1.4241142751480656e+04  1.4213247107183681e+04  1.4185056080924865e+04  1.4156398865005371e+04  1.4127458437110621e+04  1.4098760639366650e+04  1.4070159749915036e+04  1.4041330589225909e+04  1.4012196130342760e+04  1.3982847205725049e+04  1.3953265385483282e+04  1.3923485632904652e+04  1.3893833751223836e+04  1.3864066336741727e+04  1.3833857521256772e+04  1.3803193101336499e+04  1.3772340955277317e+04  1.3741730737294196e+04  1.3711744214118964e+04  1.3682672260884181e+04  1.3653697427510200e+04  1.3621711072350316e+04  1.3590129618138726e+04  1.3559868684336912e+04  1.3531059577694996e+04  1.3498598899389055e+04  1.3467428135711278e+04  1.3436712028197591e+04  1.3406101405037783e+04  1.3375484069424170e+04  1.3344738853720255e+04  1.3313818111336217e+04  1.3282628610550413e+04  1.3251122480756310e+04  1.3219202009484503e+04  1.3186809637738386e+04  1.3153850242161858e+04  1.3120278356174395e+04  1.3086082358706652e+04  1.3050367481518959e+04  1.3009880527338983e+04  1.2967696443835746e+04  1.2923975665489344e+04  1.2879363427449747e+04  1.2832367914651140e+04  1.2784173316507540e+04  1.2733845803694931e+04  1.2681933982938001e+04  1.2627285220983737e+04  1.2565840926507315e+04  1.2509056636743158e+04  1.2454788568221275e+04  1.2394205454593630e+04  1.2332021620828178e+04  1.2270427756798717e+04  1.2209327669889220e+04  1.2148786815336252e+04  1.2092488139944591e+04  1.2039361123116314e+04  1.1995521596802782e+04  1.1952682601089082e+04  1.1910483517847906e+04  1.1870340496583569e+04  1.1827583149822869e+04  1.1784396903285211e+04  1.1742426367351589e+04  1.1703136430843855e+04  1.1662159054178435e+04  1.1623464536547041e+04  1.1582683802167756e+04  1.1541697359542770e+04  1.1501382284197294e+04  1.1461264214103761e+04  1.1421654045556579e+04  1.1382134351645444e+04  1.1343029210188650e+04  1.1303924185297530e+04  1.1265165195763009e+04  1.1226341394433564e+04  1.1187815527456882e+04  1.1149179707915597e+04  1.1110808520844857e+04  1.1072295806608394e+04  1.1034023548136771e+04  1.0995584428088277e+04  1.0957361047197921e+04  1.0918931993327224e+04  1.0880648296569016e+04  1.0841834346951120e+04  1.0802148974708532e+04  1.0761826479990346e+04  1.0720869868657617e+04  1.0679197123350816e+04  1.0636748113976031e+04  1.0593413743073685e+04  1.0549048245745771e+04  1.0503481734824611e+04  1.0456512315331924e+04  1.0407864257175437e+04  1.0357914206384790e+04  1.0309425143669796e+04  1.0259682338753997e+04  1.0208908958944507e+04  1.0157886739025949e+04  1.0092409446702528e+04  7.2063756493505625e+03  7.0538963061181594e+03  6.9083302129468475e+03  6.7632194648355262e+03  6.6176229395055434e+03  6.4712049093814812e+03  6.3239503090019261e+03  6.1759567444974991e+03  6.0273511347976992e+03  5.8782549948037440e+03  5.7287724461895405e+03  5.5789880687871073e+03  5.4289686523680157e+03  5.2787661498204607e+03  5.1284206802925046e+03  4.9779631520139146e+03  4.8274173977319488e+03  4.6768018492070769e+03  4.5261308227823556e+03  4.3754154949686617e+03  4.2246646387167493e+03  4.0738851783132855e+03  3.9230826082226008e+03  3.7722613103744402e+03  3.6214247957386187e+03  3.4705758893640036e+03  3.3197168730509366e+03  3.1688495961157664e+03  3.0179755619809389e+03  2.8670959963310138e+03  2.7162119011203372e+03  2.5653240976564789e+03  2.4144332612085991e+03  2.2635399490256036e+03  2.1126446232421226e+03  1.9617476698663993e+03  1.8108494148646835e+03  1.6599501382807086e+03  1.5090500873831220e+03  1.3581494900715350e+03  1.2072485704780754e+03  1.0563475692788170e+03  9.0544678000949114e+02  7.5454657506714932e+02  6.0364773742290447e+02  4.5275023915252387e+02  3.0186228021640107e+02  1.5099882963544127e+02  3.0504685769174089e-02  1.4678097499448688e+04  1.4650034450685951e+04  1.4621744185961257e+04  1.4591389849256773e+04  1.4561233989390570e+04  1.4529949920372961e+04  1.4498607945126294e+04  1.4467294041087782e+04  1.4436008633245841e+04  1.4406281423713101e+04  1.4378799853581568e+04  1.4351604302359208e+04  1.4324196657868084e+04  1.4296630055897595e+04  1.4268965556412748e+04  1.4241241093568289e+04  1.4213432705851699e+04  1.4185347097417511e+04  1.4156595145765392e+04  1.4127291113156720e+04  1.4098712600288869e+04  1.4070305863379850e+04  1.4041525135277985e+04  1.4012330171494965e+04  1.3982989938085841e+04  1.3953412182986185e+04  1.3923391095429201e+04  1.3893918821440608e+04  1.3864345371683938e+04  1.3834140198623147e+04  1.3803308497411235e+04  1.3772181384564938e+04  1.3741318647648990e+04  1.3711123069978339e+04  1.3681567626092026e+04  1.3651784403239413e+04  1.3620684694648460e+04  1.3589543219582274e+04  1.3559182170772647e+04  1.3529321209964233e+04  1.3498215834822575e+04  1.3467294674495524e+04  1.3436668956285326e+04  1.3406115061589267e+04  1.3375524385192813e+04  1.3344811125531842e+04  1.3313909372961667e+04  1.3282751236405833e+04  1.3251266817342224e+04  1.3219380838162655e+04  1.3187010314003437e+04  1.3154078935964500e+04  1.3120523406276565e+04  1.3086342524697491e+04  1.3052741448330669e+04  1.3010158576007490e+04  1.2968228317891231e+04  1.2924687211195333e+04  1.2876700467490213e+04  1.2833247869983525e+04  1.2784765831990670e+04  1.2734375769675016e+04  1.2682266820770576e+04  1.2630796984036022e+04  1.2563186375975729e+04  1.2507962428555331e+04  1.2457759878101031e+04  1.2394187873389688e+04  1.2331900893655535e+04  1.2270149329885486e+04  1.2209684309149421e+04  1.2146204424060914e+04  1.2095640194309737e+04  1.2040152745727359e+04  1.1995050053826944e+04  1.1952687623781614e+04  1.1908798302734216e+04  1.1872310307056248e+04  1.1827527171982429e+04  1.1784093778965245e+04  1.1740418840363205e+04  1.1704974058554737e+04  1.1660066307136283e+04  1.1625224395139274e+04  1.1582566139433306e+04  1.1541350690585585e+04  1.1501390867966631e+04  1.1460944567786288e+04  1.1421717809880121e+04  1.1381852969656104e+04  1.1343135864378482e+04  1.1303671024103500e+04  1.1265302673156772e+04  1.1226107977384239e+04  1.1187974451600669e+04  1.1148959924504870e+04  1.1110982453931576e+04  1.1072085854558291e+04  1.1034209485531052e+04  1.0995384406200716e+04  1.0957565205493698e+04  1.0918759006695353e+04  1.0880957767884142e+04  1.0842180910427802e+04  1.0802432450590206e+04  1.0762100505380575e+04  1.0721186439874202e+04  1.0679536079865455e+04  1.0637136219163340e+04  1.0593866650301306e+04  1.0549573757169086e+04  1.0504102332252400e+04  1.0457207666337425e+04  1.0408709817315141e+04  1.0356619318363364e+04  1.0310288289621243e+04  1.0260272608524334e+04  1.0208545767832235e+04  1.0159405178964293e+04  7.3379359325149053e+03  7.1978880249975409e+03  7.0516500045674502e+03  6.9078239055591230e+03  6.7634852370073404e+03  6.6181291686427658e+03  6.4717364523758233e+03  6.3244251839153185e+03  6.1763522863975104e+03  6.0276691225180448e+03  5.8785059235619519e+03  5.7289686423518697e+03  5.5791409277550483e+03  5.4290877480189984e+03  5.2788591490992449e+03  5.1284935650057241e+03  4.9780205236655966e+03  4.8274627717138246e+03  4.6768379053210219e+03  4.5261596059155845e+03  4.3754385704808701e+03  4.2246832104261148e+03  4.0739001771020321e+03  3.9230947582195513e+03  3.7722711783150330e+03  3.6214328278273897e+03  3.4705824388975138e+03  3.3197222212183215e+03  3.1688539677541075e+03  3.0179791375857385e+03  2.8670989212711856e+03  2.7162142927506998e+03  2.5653260508334729e+03  2.4144348525773921e+03  2.2635412403437535e+03  2.1126456639245089e+03  1.9617484988674175e+03  1.8108500619447439e+03  1.6599506246179628e+03  1.5090504253541856e+03  1.3581496817909965e+03  1.2072486040540537e+03  1.0563474115073268e+03  9.0544635482375384e+02  7.5454575905258923e+02  6.0364605726124978e+02  4.5274795473860070e+02  3.0185505034508691e+02  1.5095771905378032e+02  -2.4389735558341509e-03  1.4676971780816644e+04  1.4648747095129107e+04  1.4620064116822665e+04  1.4590355505678494e+04  1.4560215258428583e+04  1.4529505442856491e+04  1.4498604078175153e+04  1.4467743912541106e+04  1.4437192152049112e+04  1.4407735507855181e+04  1.4379624579304062e+04  1.4352013277611521e+04  1.4324416509157720e+04  1.4296756860414927e+04  1.4269055143346239e+04  1.4241354772076706e+04  1.4213681911739552e+04  1.4185821803387476e+04  1.4157059672577079e+04  1.4126765775270722e+04  1.4098657672103463e+04  1.4070568423179608e+04  1.4041852169206441e+04  1.4012484924659899e+04  1.3983160532954687e+04  1.3953808715586138e+04  1.3922994028496596e+04  1.3894074815664108e+04  1.3864813499216170e+04  1.3834604365035817e+04  1.3803517109048995e+04  1.3771941177487406e+04  1.3740710311918001e+04  1.3710295205656314e+04  1.3680469821897515e+04  1.3650413301338991e+04  1.3619593640871974e+04  1.3588729153835959e+04  1.3558231827066995e+04  1.3528116085987171e+04  1.3497651240348408e+04  1.3467091915816569e+04  1.3436609382153469e+04  1.3406136935869372e+04  1.3375599265724470e+04  1.3344930778829312e+04  1.3314071148257066e+04  1.3282957591906455e+04  1.3251521309600150e+04  1.3219685776258324e+04  1.3187365453694665e+04  1.3154473786393490e+04  1.3120941271351510e+04  1.3086752430622289e+04  1.3053464566048726e+04  1.3011680805869981e+04  1.2970365548992946e+04  1.2927221445524878e+04  1.2878492173850173e+04  1.2834893579184798e+04  1.2785828776584494e+04  1.2735378874013306e+04  1.2683007681846850e+04  1.2631302917285755e+04  1.2567029904650570e+04  1.2503708477208180e+04  1.2458055900079857e+04  9.0267996327876535e+03  8.9832297342261227e+03  8.9358157132978176e+03  8.8965018297884781e+03  8.8464025026782565e+03  8.8108657460535760e+03  8.7699050538684223e+03  1.1992684615208402e+04  8.7071300047988771e+03  1.1909282060609527e+04  8.6463643579856180e+03  1.1828595225639821e+04  8.5815279615939453e+03  1.1740108833929748e+04  8.5244227165719622e+03  1.1659690142747431e+04  8.4661802870621577e+03  1.1583305236840151e+04  8.4046148002507834e+03  1.1502256704065709e+04  8.3462928048424947e+03  1.1422763947643718e+04  8.2888898188926578e+03  1.1344325634327050e+04  8.2320912487986334e+03  1.1266595993675341e+04  8.1756966982450949e+03  1.1189339933634055e+04  8.1195709837284776e+03  1.1112398446747658e+04  8.0636239009518149e+03  1.1035665448337562e+04  8.0078002959887799e+03  1.0959079099820608e+04  7.9521061318798647e+03  1.0882749700892282e+04  7.8979108263895459e+03  7.8710001208163476e+03  7.8411073897997749e+03  7.8115686823609722e+03  7.7813579802686554e+03  7.7507130545986038e+03  7.7195268604670509e+03  7.6876143359067773e+03  7.6549799265325037e+03  7.6213370638358392e+03  7.5865321836873100e+03  7.5470998698287467e+03  7.5131680759127139e+03  7.4760833206147208e+03  7.4367827408916155e+03  7.3943760781925812e+03  7.3103487546048345e+03  7.1871954928643190e+03  7.0490573510763534e+03  6.9075299795592928e+03  6.7640370967462295e+03  6.6189206608922887e+03  6.4725170836774778e+03  6.3251052112459902e+03  6.1769115686997648e+03  6.0281156209966084e+03  5.8788568742098068e+03  5.7292424475736134e+03  5.5793540240420498e+03  5.4292537148588754e+03  5.2789887606814427e+03  5.1285951818657031e+03  4.9781005565970563e+03  4.8275261095610267e+03  4.6768882716529342e+03  4.5261998414295731e+03  4.3754708501626874e+03  4.2247092077369489e+03  4.0739211869587880e+03  3.9231117887155697e+03  3.7722850190779877e+03  3.6214441010619539e+03  3.4705916376443893e+03  3.3197297381803337e+03  3.1688601171475566e+03  3.0179841718133016e+03  2.8671030437271061e+03  2.7162176677149514e+03  2.5653288111533780e+03  2.4144371056457453e+03  2.2635430