<?xml version="1.0"?>
<VTKFile type="UnstructuredGrid"  version="0.1"  >
<UnstructuredGrid>
<Piece  NumberOfPoints="21400" NumberOfCells="42336">
<Points>
<DataArray  type="Float64"  NumberOfComponents="3"  format="ascii">0 0 0  0.004583333333333333 0 0  0.009166666666666667 0 0  0.01375 0 0  0.01833333333333333 0 0  0.02291666666666667 0 0  0.0275 0 0  0.03208333333333334 0 0  0.03666666666666667 0 0  0.04125 0 0  0.04583333333333334 0 0  0.05041666666666667 0 0  0.055 0 0  0.05958333333333334 0 0  0.06416666666666668 0 0  0.06875000000000001 0 0  0.07333333333333333 0 0  0.07791666666666666 0 0  0.08249999999999999 0 0  0.08708333333333333 0 0  0.09166666666666667 0 0  0.09625000000000002 0 0  0.1008333333333333 0 0  0.1054166666666667 0 0  0.11 0 0  0.1145833333333333 0 0  0.1191666666666667 0 0  0.12375 0 0  0.1283333333333334 0 0  0.1329166666666667 0 0  0.1375 0 0  0.1420833333333333 0 0  0.1466666666666667 0 0  0.15125 0 0  0.1558333333333333 0 0  0.1604166666666667 0 0  0.165 0 0  0.1695833333333333 0 0  0.1741666666666667 0 0  0.17875 0 0  0.1833333333333333 0 0  0.1879166666666667 0 0  0.1925 0 0  0.1970833333333333 0 0  0.2016666666666667 0 0  0.20625 0 0  0.2108333333333333 0 0  0.2154166666666666 0 0  0.22 0 0  0.2245833333333334 0 0  0.2291666666666667 0 0  0.23375 0 0  0.2383333333333333 0 0  0.2429166666666667 0 0  0.2475 0 0  0.2520833333333333 0 0  0.2566666666666667 0 0  0.26125 0 0  0.2658333333333334 0 0  0.2704166666666666 0 0  0.275 0 0  0.2795833333333334 0 0  0.2841666666666667 0 0  0.28875 0 0  0.2933333333333333 0 0  0.2979166666666667 0 0  0.3025 0 0  0.3070833333333334 0 0  0.3116666666666666 0 0  0.31625 0 0  0.3208333333333333 0 0  0.3254166666666667 0 0  0.33 0 0  0.3345833333333333 0 0  0.3391666666666667 0 0  0.34375 0 0  0.3483333333333333 0 0  0.3529166666666667 0 0  0.3575 0 0  0.3620833333333333 0 0  0.3666666666666667 0 0  0.37125 0 0  0.3758333333333334 0 0  0.3804166666666667 0 0  0.3850000000000001 0 0  0.3895833333333333 0 0  0.3941666666666667 0 0  0.39875 0 0  0.4033333333333334 0 0  0.4079166666666666 0 0  0.4125 0 0  0.4170833333333334 0 0  0.4216666666666667 0 0  0.42625 0 0  0.4308333333333333 0 0  0.4354166666666667 0 0  0.44 0 0  0.4445833333333333 0 0  0.4491666666666667 0 0  0.45375 0 0  0.4583333333333333 0 0  0.4629166666666666 0 0  0.4675 0 0  0.4720833333333334 0 0  0.4766666666666667 0 0  0.4812500000000001 0 0  0.4858333333333333 0 0  0.4904166666666667 0 0  0.495 0 0  0.4995833333333334 0 0  0.5041666666666667 0 0  0.50875 0 0  0.5133333333333334 0 0  0.5179166666666667 0 0  0.5225 0 0  0.5270833333333333 0 0  0.5316666666666667 0 0  0.53625 0 0  0.5408333333333333 0 0  0.5454166666666667 0 0  0.55 0 0  0.5545833333333333 0 0  0.5591666666666667 0 0  0.5637500000000001 0 0  0.5683333333333334 0 0  0.5729166666666666 0 0  0.5775 0 0  0.5820833333333334 0 0  0.5866666666666667 0 0  0.5912499999999999 0 0  0.5958333333333334 0 0  0.6004166666666667 0 0  0.605 0 0  0.6095833333333334 0 0  0.6141666666666667 0 0  0.61875 0 0  0.6233333333333333 0 0  0.6279166666666667 0 0  0.6325000000000001 0 0  0.6370833333333333 0 0  0.6416666666666666 0 0  0.64625 0 0  0.6508333333333334 0 0  0.6554166666666666 0 0  0.6599999999999999 0 0  0.6645833333333334 0 0  0.6691666666666667 0 0  0.67375 0 0  0.6783333333333333 0 0  0.6829166666666667 0 0  0.6875 0 0  0.6920833333333333 0 0  0.6966666666666667 0 0  0.70125 0 0  0.7058333333333333 0 0  0.7104166666666667 0 0  0.7150000000000001 0 0  0.7195833333333334 0 0  0.7241666666666666 0 0  0.72875 0 0  0.7333333333333334 0 0  0.7379166666666667 0 0  0.7425 0 0  0.7470833333333333 0 0  0.7516666666666667 0 0  0.75625 0 0  0.7608333333333334 0 0  0.7654166666666666 0 0  0.7700000000000001 0 0  0 0.002380952380952381 0  0.004583333333333333 0.002380952380952381 0  0.009166666666666667 0.002380952380952381 0  0.01375 0.002380952380952381 0  0.01833333333333333 0.002380952380952381 0  0.02291666666666667 0.002380952380952381 0  0.0275 0.002380952380952381 0  0.03208333333333334 0.002380952380952381 0  0.03666666666666667 0.002380952380952381 0  0.04125 0.002380952380952381 0  0.04583333333333334 0.002380952380952381 0  0.05041666666666667 0.002380952380952381 0  0.055 0.002380952380952381 0  0.05958333333333334 0.002380952380952381 0  0.06416666666666668 0.002380952380952381 0  0.06875000000000001 0.002380952380952381 0  0.07333333333333333 0.002380952380952381 0  0.07791666666666666 0.002380952380952381 0  0.08249999999999999 0.002380952380952381 0  0.08708333333333333 0.002380952380952381 0  0.09166666666666667 0.002380952380952381 0  0.09625000000000002 0.002380952380952381 0  0.1008333333333333 0.002380952380952381 0  0.1054166666666667 0.002380952380952381 0  0.11 0.002380952380952381 0  0.1145833333333333 0.002380952380952381 0  0.1191666666666667 0.002380952380952381 0  0.12375 0.002380952380952381 0  0.1283333333333334 0.002380952380952381 0  0.1329166666666667 0.002380952380952381 0  0.1375 0.002380952380952381 0  0.1420833333333333 0.002380952380952381 0  0.1466666666666667 0.002380952380952381 0  0.15125 0.002380952380952381 0  0.1558333333333333 0.002380952380952381 0  0.1604166666666667 0.002380952380952381 0  0.165 0.002380952380952381 0  0.1695833333333333 0.002380952380952381 0  0.1741666666666667 0.002380952380952381 0  0.17875 0.002380952380952381 0  0.1833333333333333 0.002380952380952381 0  0.1879166666666667 0.002380952380952381 0  0.1925 0.002380952380952381 0  0.1970833333333333 0.002380952380952381 0  0.2016666666666667 0.002380952380952381 0  0.20625 0.002380952380952381 0  0.2108333333333333 0.002380952380952381 0  0.2154166666666666 0.002380952380952381 0  0.22 0.002380952380952381 0  0.2245833333333334 0.002380952380952381 0  0.2291666666666667 0.002380952380952381 0  0.23375 0.002380952380952381 0  0.2383333333333333 0.002380952380952381 0  0.2429166666666667 0.002380952380952381 0  0.2475 0.002380952380952381 0  0.2520833333333333 0.002380952380952381 0  0.2566666666666667 0.002380952380952381 0  0.26125 0.002380952380952381 0  0.2658333333333334 0.002380952380952381 0  0.2704166666666666 0.002380952380952381 0  0.275 0.002380952380952381 0  0.2795833333333334 0.002380952380952381 0  0.2841666666666667 0.002380952380952381 0  0.28875 0.002380952380952381 0  0.2933333333333333 0.002380952380952381 0  0.2979166666666667 0.002380952380952381 0  0.3025 0.002380952380952381 0  0.3070833333333334 0.002380952380952381 0  0.3116666666666666 0.002380952380952381 0  0.31625 0.002380952380952381 0  0.3208333333333333 0.002380952380952381 0  0.3254166666666667 0.002380952380952381 0  0.33 0.002380952380952381 0  0.3345833333333333 0.002380952380952381 0  0.3391666666666667 0.002380952380952381 0  0.34375 0.002380952380952381 0  0.3483333333333333 0.002380952380952381 0  0.3529166666666667 0.002380952380952381 0  0.3575 0.002380952380952381 0  0.3620833333333333 0.002380952380952381 0  0.3666666666666667 0.002380952380952381 0  0.37125 0.002380952380952381 0  0.3758333333333334 0.002380952380952381 0  0.3804166666666667 0.002380952380952381 0  0.3850000000000001 0.002380952380952381 0  0.3895833333333333 0.002380952380952381 0  0.3941666666666667 0.002380952380952381 0  0.39875 0.002380952380952381 0  0.4033333333333334 0.002380952380952381 0  0.4079166666666666 0.002380952380952381 0  0.4125 0.002380952380952381 0  0.4170833333333334 0.002380952380952381 0  0.4216666666666667 0.002380952380952381 0  0.42625 0.002380952380952381 0  0.4308333333333333 0.002380952380952381 0  0.4354166666666667 0.002380952380952381 0  0.44 0.002380952380952381 0  0.4445833333333333 0.002380952380952381 0  0.4491666666666667 0.002380952380952381 0  0.45375 0.002380952380952381 0  0.4583333333333333 0.002380952380952381 0  0.4629166666666666 0.002380952380952381 0  0.4675 0.002380952380952381 0  0.4720833333333334 0.002380952380952381 0  0.4766666666666667 0.002380952380952381 0  0.4812500000000001 0.002380952380952381 0  0.4858333333333333 0.002380952380952381 0  0.4904166666666667 0.002380952380952381 0  0.495 0.002380952380952381 0  0.4995833333333334 0.002380952380952381 0  0.5041666666666667 0.002380952380952381 0  0.50875 0.002380952380952381 0  0.5133333333333334 0.002380952380952381 0  0.5179166666666667 0.002380952380952381 0  0.5225 0.002380952380952381 0  0.5270833333333333 0.002380952380952381 0  0.5316666666666667 0.002380952380952381 0  0.53625 0.002380952380952381 0  0.5408333333333333 0.002380952380952381 0  0.5454166666666667 0.002380952380952381 0  0.55 0.002380952380952381 0  0.5545833333333333 0.002380952380952381 0  0.5591666666666667 0.002380952380952381 0  0.5637500000000001 0.002380952380952381 0  0.5683333333333334 0.002380952380952381 0  0.5729166666666666 0.002380952380952381 0  0.5775 0.002380952380952381 0  0.5820833333333334 0.002380952380952381 0  0.5866666666666667 0.002380952380952381 0  0.5912499999999999 0.002380952380952381 0  0.5958333333333334 0.002380952380952381 0  0.6004166666666667 0.002380952380952381 0  0.605 0.002380952380952381 0  0.6095833333333334 0.002380952380952381 0  0.6141666666666667 0.002380952380952381 0  0.61875 0.002380952380952381 0  0.6233333333333333 0.002380952380952381 0  0.6279166666666667 0.002380952380952381 0  0.6325000000000001 0.002380952380952381 0  0.6370833333333333 0.002380952380952381 0  0.6416666666666666 0.002380952380952381 0  0.64625 0.002380952380952381 0  0.6508333333333334 0.002380952380952381 0  0.6554166666666666 0.002380952380952381 0  0.6599999999999999 0.002380952380952381 0  0.6645833333333334 0.002380952380952381 0  0.6691666666666667 0.002380952380952381 0  0.67375 0.002380952380952381 0  0.6783333333333333 0.002380952380952381 0  0.6829166666666667 0.002380952380952381 0  0.6875 0.002380952380952381 0  0.6920833333333333 0.002380952380952381 0  0.6966666666666667 0.002380952380952381 0  0.70125 0.002380952380952381 0  0.7058333333333333 0.002380952380952381 0  0.7104166666666667 0.002380952380952381 0  0.7150000000000001 0.002380952380952381 
[...]
<PointData  Scalars="pressure"> 
<DataArray  type="Float64"  Name="pressure"  format="ascii">1.9718432510769202e+04  1.9688737446130010e+04  1.9661527863399340e+04  1.9632939471370959e+04  1.9603066947709980e+04  1.9567692742155177e+04  1.9534999141451844e+04  1.9502279229487343e+04  1.9466707539899162e+04  1.9437485831724596e+04  1.9413694388832926e+04  1.9387364218447678e+04  1.9360279553215660e+04  1.9332853596578971e+04  1.9305236990001002e+04  1.9277473651864631e+04  1.9249524904796508e+04  1.9221293053786478e+04  1.9192729963357833e+04  1.9163984846096751e+04  1.9135286694746304e+04  1.9106625575166137e+04  1.9077844291954141e+04  1.9048875342327123e+04  1.9019770372593845e+04  1.8990652371202505e+04  1.8961805417416483e+04  1.8934730473299267e+04  1.3772938537106489e+04  1.3745112669221833e+04  1.3720515614726577e+04  1.3695938347123711e+04  1.3671509325821244e+04  1.3647295743737292e+04  1.3623276194784199e+04  1.3599358554310884e+04  1.3575482435196609e+04  1.3551676953734823e+04  1.3528144083788144e+04  1.3506101506498859e+04  1.3478122392061650e+04  1.3451376531341773e+04  1.3424337450660645e+04  1.3396817109473906e+04  1.3368253558457054e+04  1.3339028339404129e+04  1.3308557329226493e+04  1.3277375039564826e+04  1.3244980878081109e+04  1.3211976647457263e+04  1.3178118676101769e+04  1.3143960934018494e+04  1.3109677031495841e+04  1.3075501414914008e+04  1.3040592352237372e+04  1.3004422340622767e+04  1.2966558250836200e+04  1.2927594207935399e+04  1.2890801818989619e+04  1.2849645525791704e+04  1.2815197418006443e+04  1.2783790760928319e+04  1.2754534510739977e+04  1.2726698079230820e+04  1.2698623817255271e+04  1.2669786685605293e+04  1.2640134038988734e+04  1.2608953849136187e+04  1.2576502555142708e+04  1.2543913654119651e+04  1.2511881859128127e+04  1.2480705807315057e+04  1.2448697320890204e+04  1.2420444037932708e+04  1.2394425460707113e+04  1.2365527443320969e+04  1.2335988008254541e+04  1.2305970216674883e+04  1.2275311396829915e+04  1.2243897260346152e+04  1.2211646582195359e+04  1.2178462115001363e+04  1.2144220334068179e+04  1.2108886408367885e+04  1.2072956863790905e+04  1.2037169843099382e+04  1.2000956959461237e+04  1.1964113308218970e+04  1.1928059765420934e+04  1.1864514260030945e+04  1.1733124604063465e+04  1.1583483294528331e+04  1.1436095830145021e+04  1.1290325083309473e+04  1.1144490201436131e+04  1.0998024176162442e+04  1.0850795672482025e+04  1.0702851693609338e+04  1.0554297768907363e+04  1.0405247373993627e+04  1.0255802486721712e+04  1.0106047975426443e+04  9.9560517673376380e+03  9.8058671098047889e+03  9.6555352991526597e+03  9.5050882190953198e+03  9.3545504728437681e+03  9.2039410844530157e+03  9.0532748185984565e+03  8.9025631883226633e+03  8.7518152182529848e+03  8.6010380207886374e+03  8.4502372312078078e+03  8.2994173371274428e+03  8.1485819290696181e+03  7.9977338920878456e+03  7.8468755532375999e+03  7.6960087958174972e+03  7.5451351484600063e+03  7.3942558550612903e+03  7.2433719300105067e+03  7.0924842020590950e+03  6.9415933493488092e+03  6.7906999275113749e+03  6.6398043923035812e+03  6.4889071179066486e+03  6.3380084117668766e+03  6.1871085266638702e+03  6.0362076705469808e+03  5.8853060145685149e+03  5.7344036996553941e+03  5.5835008418929265e+03  5.4325975369408789e+03  5.2816938636599079e+03  5.1307898870925146e+03  4.9798856609158202e+03  4.8289812294618268e+03  4.6780766293834049e+03  4.5271718910300451e+03  4.3762670395861123e+03  4.2253620960150020e+03  4.0744570778452776e+03  3.9235519998287455e+03  3.7726468744957174e+03  3.6217417126289811e+03  3.4708365236752702e+03  3.3199313161111418e+03  3.1690260977790117e+03  3.0181208762094684e+03  2.8672156589469287e+03  2.7163104538987723e+03  2.5654052697334646e+03  2.4145001163622674e+03  2.2635950055541771e+03  2.1126899517587717e+03  1.9617849732539350e+03  1.8108800938084316e+03  1.6599753451784943e+03  1.5090707710015167e+03  1.3581664330728479e+03  1.2072624222136242e+03  1.0563588754504487e+03  9.0545602554354468e+02  7.5455415408516217e+02  6.0365470662146015e+02  4.5275235370936849e+02  3.0190538560938182e+02  1.5056425114038981e+02  4.2690986380256986e+00  1.9716779999798258e+04  1.9688420803099554e+04  1.9662397958223144e+04  1.9631170464688686e+04  1.4278962270857943e+04  1.4254118080815433e+04  1.4230544539098664e+04  1.4206955147979857e+04  1.4182062550423627e+04  1.9438169258574599e+04  1.9413887306922301e+04  1.9387431415417483e+04  1.9360313523193618e+04  1.9332872528748339e+04  1.9305251487419820e+04  1.9277492448402434e+04  1.9249556190966257e+04  1.9221333445080472e+04  1.9192752316327482e+04  1.9163973327251861e+04  1.9135279836697373e+04  1.9106641189609429e+04  1.9077867149890593e+04  1.9048890464514268e+04  1.9019775694969070e+04  1.8990625074550117e+04  1.8961731250584024e+04  1.8934008358767584e+04  1.8904837159467235e+04  1.8868683389210586e+04  1.8834859378455909e+04  1.8801117103011115e+04  1.8767570597158570e+04  1.8734334589007787e+04  1.8701374475180950e+04  1.8668549621251888e+04  1.8635769538443859e+04  1.8603079370741812e+04  1.8570663580001081e+04  1.8540211774084961e+04  1.3477950156474650e+04  1.8465462212953658e+04  1.3424426473291573e+04  1.8390582998391161e+04  1.3368381062339067e+04  1.8311265402789701e+04  1.3308694390705257e+04  1.8226630232013933e+04  1.3245097698097417e+04  1.8136834313524760e+04  1.3178174160413111e+04  1.8043420007426823e+04  1.3109643438467250e+04  1.7949455213390032e+04  1.3040872242444571e+04  1.7851927942845872e+04  1.2966786527247732e+04  1.7746439926867359e+04  1.2889464121090097e+04  1.2848985089678779e+04  1.2814911357013694e+04  1.2783553599349600e+04  1.2754343593511925e+04  1.2726759984421418e+04  1.2698717640963421e+04  1.2669851979379622e+04  1.2640332057082935e+04  1.2609114663686958e+04  1.2576504404328940e+04  1.2543848522771994e+04  1.2511779634097496e+04  1.2480630329435913e+04  1.2449581726551069e+04  1.7050912380871381e+04  1.7014746665651088e+04  1.6974850075590657e+04  1.6934312330587454e+04  1.6893126976992706e+04  1.6851052632198596e+04  1.6807937197383450e+04  1.6763675895189670e+04  1.6718137717329580e+04  1.6671148321196782e+04  1.6622586490990761e+04  1.6573121841176449e+04  1.6524134456623673e+04  1.6474400733712155e+04  1.6423704525940542e+04  1.6373903803602005e+04  1.1872368182193599e+04  1.1734252894706322e+04  1.1582893479622015e+04  1.1435967701591446e+04  1.1290346488120920e+04  1.1144565857785386e+04  1.0998109941236282e+04  1.0850874492008737e+04  1.0702918241425790e+04  1.0554351658891030e+04  1.0405290071758325e+04  1.0255835945005883e+04  1.0106074071679825e+04  9.9560721075673173e+03  9.8058829925998343e+03  9.6555477432783409e+03  9.5050980107188407e+03  9.3545582135976056e+03  9.2039472333127414e+03  9.0532797258375231e+03  8.9025671219907417e+03  8.7518183843669849e+03  8.6010405785346575e+03  8.4502393043121319e+03  8.2994190223427795e+03  8.1485833025133961e+03  7.9977350139907057e+03  7.8468764715175785e+03  7.6960095487861645e+03  7.5451357668850160e+03  7.3942563637496060e+03  7.2433723490324492e+03  7.0924845477015169e+03  6.9415936348624009e+03  6.7907001637003723e+03  6.6398045879938563e+03  6.4889072803192694e+03  6.3380085468176430e+03  6.1871086392045299e+03  6.0362077645601594e+03  5.8853060933257611e+03  5.7344037658456573e+03  5.5835008977272337e+03  5.4325975842377638e+03  5.2816939039152667e+03  5.1307899215367424e+03  4.9798856905606262e+03  4.8289812551385849e+03  4.6780766517745651e+03  4.5271719106948503e+03  4.3762670569815946e+03  4.2253621115131073e+03  4.0744570917467258e+03  3.9235520123741749e+03  3.7726468858744829e+03  3.6217417229859434e+03  3.4708365331157561e+03  3.3199313247041864e+03  3.1690261055589040e+03  3.0181208831754484e+03  2.8672156650607394e+03  2.7163104590795142e+03  2.5654052738487962e+03  2.4145001192143800e+03  2.2635950068579577e+03  2.1126899511077895e+03  1.9617849700667696e+03  1.8108800872420361e+03  1.6599753339851247e+03  1.5090707532773376e+03  1.3581664058547392e+03  1.2072623803440426e+03  1.0563588124663515e+03  9.0545590969255898e+02  7.5455408993951005e+02  6.0365352580658782e+02  4.5275921032628617e+02  3.0184259390634617e+02  1.5112639044142716e+02  -2.3169240900197022e-01  1.9715624475637927e+04  1.9687557984452793e+04  1.9660933453966689e+04  1.9628214816914424e+04  1.9599196281254935e+04  1.9566700182057772e+04  1.9535013396437313e+04  1.9503325066248199e+04  1.9470847315364437e+04  1.9440475783420512e+04  1.9414425622297131e+04  1.9387662814003525e+04  1.9360425888640377e+04  1.9332936220698175e+04  1.9305299639240606e+04  1.9277555143725440e+04  1.9249664672201798e+04  1.9221481995469509e+04  1.9192837912627361e+04  1.9163917796110760e+04  1.9135251666752018e+04  1.9106700869988486e+04  1.9077950940591054e+04  1.9048942008020931e+04  1.9019796208098756e+04  1.8990555459909785e+04  1.8961389049087800e+04  1.8932617154067968e+04  1.8902301392114983e+04  1.8868679256687654e+04  1.8834838030860221e+04  1.8801081225435639e+04  1.8767503611695352e+04  1.8734277082564979e+04  1.8701349963523066e+04  1.8668544844845965e+04  1.8635756670049432e+04  1.8603025634495789e+04  1.8570536237449771e+04  1.8538735966666776e+04  1.8501907551776476e+04  1.8465521822792027e+04  1.8428605953337574e+04  1.8390738530385530e+04  1.8351736884191941e+04  1.8311450324800720e+04  1.8269822063114592e+04  1.8226807955335466e+04  1.8182482569716009e+04  1.8136951325131875e+04  1.8090494639418055e+04  1.8043413934600729e+04  1.7996214923590098e+04  1.7949439013661606e+04  1.7902672670859130e+04  1.7852001033590652e+04  1.7800741491637044e+04  1.7746623128272335e+04  1.7690806051100637e+04  1.7637025887879747e+04  1.7591136941787416e+04  1.7548098890168865e+04  1.7507986794529097e+04  1.7470946730413467e+04  1.7432417514125380e+04  1.7392613201165146e+04  1.7352574984628409e+04  1.7309584489776549e+04  1.7264367646988940e+04  1.7219432379441674e+04  1.7175338282041732e+04  1.7132491351439716e+04  1.7091489570022575e+04  1.7053572298721338e+04  1.7015075495870915e+04  1.6974945362717197e+04  1.6934435070487580e+04  1.6893305621341955e+04  1.6851257414707707e+04  1.6808160231307862e+04  1.6763923859256847e+04  1.6718420630099168e+04  1.6671475306079999e+04  1.6622828887588650e+04  1.6572868750533351e+04  1.6524365008042645e+04  1.6474605782396997e+04  1.6423816601772429e+04  1.6372780548334526e+04  1.6307288524046824e+04  1.1733660016972337e+04  1.1581156729897890e+04  1.1435572342681142e+04  1.1290446950751388e+04  1.1144838609238444e+04  1.0998410985232817e+04  1.0851148563753610e+04  1.0703148605214963e+04  1.0554537757415592e+04  1.0405437319676870e+04  1.0255951240627555e+04  1.0106163960258153e+04  9.9561421547756363e+03  9.8059376845014740e+03  9.6555905929128312e+03  9.5051317262306184e+03  9.3545848662781173e+03  9.2039684029055170e+03  9.0532966178832739e+03  8.9025806591229957e+03  8.7518292758325970e+03  8.6010493724923326e+03  8.4502464269335269e+03  8.2994248069875994e+03  8.1485880115196060e+03  7.9977388550009782e+03  7.8468796097708191e+03  7.6960121164264119e+03  7.5451378700588184e+03  7.3942580880557989e+03  7.2433737637372151e+03  7.0924857090217338e+03  6.9415945885408000e+03  6.7907009470382081e+03  6.6398052314648839e+03  6.4889078088580845e+03  6.3380089808530165e+03  6.1871089954916533e+03  6.0362080568533775e+03  5.8853063329240767e+03  5.7344039620362173e+03  5.5835010581467004e+03  5.4325977151673169e+03  5.2816940105217345e+03  5.1307900080699919e+03  4.9798857605151934e+03  4.8289813113861192e+03  4.6780766966723113e+03  4.5271719461744515e+03  4.3762670846216533e+03  4.2253621325982849e+03  4.0744571073156471e+03  3.9235520232578838e+03  3.7726468927268697e+03  3.6217417263071661e+03  3.4708365332693761e+03  3.3199313219283945e+03  3.1690260999718525e+03  3.0181208747742403e+03  2.8672156537130450e+03  2.7163104445058857e+03  2.5654052555924532e+03  2.4145000965931181e+03  2.2635949788893149e+03  2.1126899163926719e+03  1.9617849266061271e+03  1.8108800321418962e+03  1.6599752629680183e+03  1.5090706598492557e+03  1.3581662797936574e+03  1.2072622051057087e+03  1.0563585582896719e+03  9.0545553387780637e+02  7.5455342068526591e+02  6.0365293037117988e+02  4.5275397327469113e+02  3.0186469494861495e+02  1.5100001529222291e+02  3.0504526418530419e-02  1.9714504135644031e+04  1.9686441075789102e+04  1.9658150772748853e+04  1.9627796364822188e+04  1.9597640404523416e+04  1.9566356203595587e+04  1.9535014073805396e+04  1.9503700004075439e+04  1.9472414439597709e+04  1.9442687116883957e+04  1.9415205513655423e+04  1.9388010072693047e+04  1.9360602791921407e+04  1.9333036981356268e+04  1.9305373974360478e+04  1.9277652136794444e+04  1.9249848187151125e+04  1.9221769860609635e+04  1.9193029455004114e+04  1.9163742984645294e+04  1.9135191458153400e+04  1.9106827646546924e+04  1.9078114460149023e+04  1.9049023282596379e+04  1.9019841511250110e+04  1.8990506144517956e+04  1.8960819793056318e+04  1.8931535230462614e+04  1.8901076473713845e+04  1.8868452000468144e+04  1.8834849573486328e+04  1.8800990829479244e+04  1.8767330827973714e+04  1.8734132535709683e+04  1.8701296653198740e+04  1.8668542965025415e+04  1.8635730552463931e+04  1.8602926679040465e+04  1.8570202955979155e+04  1.8537174833578676e+04  1.8501841272988953e+04  1.8465745722021958e+04  1.8428947916829678e+04  1.8391161117489213e+04  1.8352198208832982e+04  1.8311948110750425e+04  1.8270319462714659e+04  1.8227298434539258e+04  1.8182913429966637e+04  1.8137306621744206e+04  1.8090710938256390e+04  1.8043478142863856e+04  1.7996080702000574e+04  1.7949068414874204e+04  1.7904894028256120e+04  1.7851693991649041e+04  1.7801828843900959e+04  1.7747779651318899e+04  1.7686135681371834e+04  1.7634799462975894e+04  1.7590482819982612e+04  1.7547241488677439e+04  1.7506676382917885e+04  1.7471899080863903e+04  1.7432748274593672e+04  1.7392421533511719e+04  1.7353719570982503e+04  1.7310212325582517e+04  1.7264188193211427e+04  1.7219201582206453e+04  1.7175016081259095e+04  1.7131853376543811e+04  1.7092109685066378e+04  1.7058658882723030e+04  1.7015385728233879e+04  1.6975147509179838e+04  1.6934698160920765e+04  1.6893722030209610e+04  1.6851717671090282e+04  1.6808659950061148e+04  1.6764477866974728e+04  1.6719058194849342e+04  1.6672180350701816e+04  1.6623679559916622e+04  1.6571575635430567e+04  1.6525229014260662e+04  1.6475195752925894e+04  1.6423452364827048e+04  1.6374298228372594e+04  1.1865243453948880e+04  1.1725167653590903e+04  1.1578907249880313e+04  1.1435063634463373e+04  1.1290710880005834e+04  1.1145343390810231e+04  1.0998941374895261e+04  1.0851622510900002e+04  1.0703543395957338e+04  1.0554855134248637e+04  1.0405687750063427e+04  1.0256147029302503e+04  1.0106316485522326e+04  9.9562609768509155e+03  9.8060304593500405e+03  9.6556632934637346e+03  9.5051889467866295e+03  9.3546301163762837e+03  9.2040043575822583e+03  9.0533253181467808e+03  8.9026036671795100e+03  8.7518477929443416e+03  8.6010643274811409e+03  8.4502585422825778e+03  8.2994346481380871e+03  8.1485960236845767e+03  7.9977453907524978e+03  7.8468849498165027e+03  7.6960164853521492e+03  7.5451414483384842e+03  7.3942610212789314e+03  7.2433761697506989e+03  7.0924876834965362e+03  6.9415962093407097e+03  6.7907022776703216e+03  6.6398063238207897e+03  6.4889087054030988e+03  6.3380097163828295e+03  6.1871095985476741e+03  6.0362085508671971e+03  5.8853067371457328e+03  5.7344042922890685e+03  5.5835013274426365e+03  5.4325979342090632e+03  5.2816941881135472e+03  5.1307901514537980e+03  4.9798858756459567e+03  4.8289814031574360e+03  4.6780767691012506e+03  4.5271720025528439e+03  4.3762671276397314e+03  4.2253621644454042e+03  4.0744571297619073e+03  3.9235520377196904e+03  3.7726469003188113e+03  3.6217417278819644e+03  3.4708365294471669e+03  3.3199313131159611e+03  3.1690260863718795e+03  3.0181208563838659e+03  2.8672156303099910e+03  2.7163104156190202e+03  2.5654052204514278e+03  2.4145000540482888e+03  2.2635949272874445e+03  2.1126898533842186e+03  1.9617848488429211e+03  1.8108799347930455e+03  1.6599751389238872e+03  1.5090704983671753e+03  1.3581660641207914e+03  1.2072619079939802e+03  1.0563581340922817e+03  9.0545489651731543e+02  7.5455243878370163e+02  6.0365112438698645e+02  4.5275159839093811e+02  3.0185740653726020e+02  1.5095887567604251e+02  -2.4393834927651857e-03  1.9713378440510707e+04  1.9685153742974446e+04  1.9656470723760351e+04  1.9626762040162193e+04  1.9596621689106483e+04  1.9565911738604533e+04  1.9535010212804897e+04  1.9504149868720378e+04  1.9473597927636420e+04  1.9444141124243444e+04  1.9416030088814368e+04  1.9388418783501347e+04  1.9360822201009174e+04  1.9333163066081564e+04  1.9305462408602118e+04  1.9277763991536682e+04  1.9250094561775455e+04  1.9222240268100737e+04  1.9193487677458405e+04  1.9163207780009529e+04  1.9135120124939011e+04  1.9107064345209939e+04  1.9078400904212369e+04  1.9049111211767518e+04  1.9019891712441859e+04  1.8990676974313748e+04  1.8959945149474741e+04  1.8930818925198775e+04  1.8900577930745432e+04  1.8868422260834195e+04  1.8834932997615044e+04  1.8800838347548786e+04  1.8767015204254345e+04  1.8733881670073493e+04  1.8701228791075057e+04  1.8668569735399440e+04  1.8635696418802545e+04  1.8602815645224400e+04  1.8569803073461706e+04  1.8536454090026888e+04  1.8501837670779390e+04  1.8466166443313803e+04  1.8429563981032432e+04  1.8391895227516121e+04  1.8353013860774776e+04  1.8312810637893268e+04  1.8271201035885864e+04  1.8228150919234329e+04  1.8183683704188446e+04  1.8137924147684873e+04  1.8091106693548802e+04  1.8043586779110330e+04  1.7995833213763839e+04  1.7948450518675647e+04  1.7903716813559022e+04  1.7850549046971144e+04  1.7805038494004541e+04  1.2932881051278835e+04  1.2883130950662418e+04  1.7631645202137453e+04  1.7589740031457441e+04  1.7545624095391049e+04  1.7504164953442632e+04  1.7469136149978440e+04  1.7434315284513243e+04  1.2667123467903037e+04  1.7359622855377929e+04  1.2611916775142998e+04  1.2574995528020721e+04  1.2542295082334576e+04  1.2509495389729691e+04  1.2476698189304363e+04  1.7094929644111464e+04  1.2433162608075389e+04  1.2396708631600050e+04  1.2366493908753317e+04  1.2337580843457312e+04  1.2308668596499392e+04  1.2278176163286700e+04  1.2247008244729579e+04  1.2215084529537391e+04  1.2182431427659823e+04  1.2148765000905911e+04  1.2113935722459595e+04  1.2074477244065016e+04  1.2040527000856346e+04  1.2003426799067662e+04  1.1964112550015840e+04  1.1921693086405976e+04  1.1837644396561185e+04  1.1714468457408597e+04  1.1576310176759111e+04  1.1434766404544262e+04  1.1291260184778508e+04  1.1146132868337701e+04  1.0999720396712410e+04  1.0852301241350389e+04  1.0704101627097300e+04  1.0555300777225297e+04  1.0406038002421767e+04  1.0256420263368707e+04  1.0106529113948682e+04  9.9564265600553626e+03  9.8061597561663893e+03  9.6557646520041981e+03  9.5052687677611611e+03  9.3546932804271037e+03  9.2040545815998685e+03  9.0533654373908739e+03  8.9026358522143037e+03  8.7518737136465970e+03  8.6010852758778237e+03  8.4502755241584273e+03  8.2994484513047119e+03  8.1486072689549019e+03  7.9977545701495319e+03  7.8468924553655252e+03  7.6960226309139989e+03  7.5451464862808125e+03  7.3942651552982798e+03  7.2433795648061396e+03  7.0924904735604377e+03  6.9415985034873820e+03  6.7907041648892091e+03  6.6398078768434307e+03  6.4889099837617787e+03  6.3380107688664530e+03  6.1871104651816604e+03  6.0362092645152443e+03  5.8853073248095470e+03  5.7344047761657239e+03  5.5835017257865829e+03  5.4325982620360983e+03  5.2816944577765344e+03  5.1307903731140032e+03  4.9798860576591587e+03  4.8289815523903590e+03  4.6780768911908117e+03  4.5271721021183976e+03  4.3762672084565329e+03  4.2253622295859341e+03  4.0744571817104202e+03  3.9235520784642481e+03  3.7726469314241317e+03  3.6217417505456015e+03  3.4708365445407312e+03  3.3199313212123661e+03  3.1690260877586957e+03  3.0181208510618808e+03  2.8672156179746835e+03  2.7163103956207337e+03  2.5654051917271554e+03  2.4145000150133546e+03  2.2635948