<?xml version="1.0"?>
<VTKFile type="UnstructuredGrid"  version="0.1"  >
<UnstructuredGrid>
<Piece  NumberOfPoints="21400" NumberOfCells="42336">
<Points>
<DataArray  type="Float64"  NumberOfComponents="3"  format="ascii">0 0 0  0.004583333333333333 0 0  0.009166666666666667 0 0  0.01375 0 0  0.01833333333333333 0 0  0.02291666666666667 0 0  0.0275 0 0  0.03208333333333334 0 0  0.03666666666666667 0 0  0.04125 0 0  0.04583333333333334 0 0  0.05041666666666667 0 0  0.055 0 0  0.05958333333333334 0 0  0.06416666666666668 0 0  0.06875000000000001 0 0  0.07333333333333333 0 0  0.07791666666666666 0 0  0.08249999999999999 0 0  0.08708333333333333 0 0  0.09166666666666667 0 0  0.09625000000000002 0 0  0.1008333333333333 0 0  0.1054166666666667 0 0  0.11 0 0  0.1145833333333333 0 0  0.1191666666666667 0 0  0.12375 0 0  0.1283333333333334 0 0  0.1329166666666667 0 0  0.1375 0 0  0.1420833333333333 0 0  0.1466666666666667 0 0  0.15125 0 0  0.1558333333333333 0 0  0.1604166666666667 0 0  0.165 0 0  0.1695833333333333 0 0  0.1741666666666667 0 0  0.17875 0 0  0.1833333333333333 0 0  0.1879166666666667 0 0  0.1925 0 0  0.1970833333333333 0 0  0.2016666666666667 0 0  0.20625 0 0  0.2108333333333333 0 0  0.2154166666666666 0 0  0.22 0 0  0.2245833333333334 0 0  0.2291666666666667 0 0  0.23375 0 0  0.2383333333333333 0 0  0.2429166666666667 0 0  0.2475 0 0  0.2520833333333333 0 0  0.2566666666666667 0 0  0.26125 0 0  0.2658333333333334 0 0  0.2704166666666666 0 0  0.275 0 0  0.2795833333333334 0 0  0.2841666666666667 0 0  0.28875 0 0  0.2933333333333333 0 0  0.2979166666666667 0 0  0.3025 0 0  0.3070833333333334 0 0  0.3116666666666666 0 0  0.31625 0 0  0.3208333333333333 0 0  0.3254166666666667 0 0  0.33 0 0  0.3345833333333333 0 0  0.3391666666666667 0 0  0.34375 0 0  0.3483333333333333 0 0  0.3529166666666667 0 0  0.3575 0 0  0.3620833333333333 0 0  0.3666666666666667 0 0  0.37125 0 0  0.3758333333333334 0 0  0.3804166666666667 0 0  0.3850000000000001 0 0  0.3895833333333333 0 0  0.3941666666666667 0 0  0.39875 0 0  0.4033333333333334 0 0  0.4079166666666666 0 0  0.4125 0 0  0.4170833333333334 0 0  0.4216666666666667 0 0  0.42625 0 0  0.4308333333333333 0 0  0.4354166666666667 0 0  0.44 0 0  0.4445833333333333 0 0  0.4491666666666667 0 0  0.45375 0 0  0.4583333333333333 0 0  0.4629166666666666 0 0  0.4675 0 0  0.4720833333333334 0 0  0.4766666666666667 0 0  0.4812500000000001 0 0  0.4858333333333333 0 0  0.4904166666666667 0 0  0.495 0 0  0.4995833333333334 0 0  0.5041666666666667 0 0  0.50875 0 0  0.5133333333333334 0 0  0.5179166666666667 0 0  0.5225 0 0  0.5270833333333333 0 0  0.5316666666666667 0 0  0.53625 0 0  0.5408333333333333 0 0  0.5454166666666667 0 0  0.55 0 0  0.5545833333333333 0 0  0.5591666666666667 0 0  0.5637500000000001 0 0  0.5683333333333334 0 0  0.5729166666666666 0 0  0.5775 0 0  0.5820833333333334 0 0  0.5866666666666667 0 0  0.5912499999999999 0 0  0.5958333333333334 0 0  0.6004166666666667 0 0  0.605 0 0  0.6095833333333334 0 0  0.6141666666666667 0 0  0.61875 0 0  0.6233333333333333 0 0  0.6279166666666667 0 0  0.6325000000000001 0 0  0.6370833333333333 0 0  0.6416666666666666 0 0  0.64625 0 0  0.6508333333333334 0 0  0.6554166666666666 0 0  0.6599999999999999 0 0  0.6645833333333334 0 0  0.6691666666666667 0 0  0.67375 0 0  0.6783333333333333 0 0  0.6829166666666667 0 0  0.6875 0 0  0.6920833333333333 0 0  0.6966666666666667 0 0  0.70125 0 0  0.7058333333333333 0 0  0.7104166666666667 0 0  0.7150000000000001 0 0  0.7195833333333334 0 0  0.7241666666666666 0 0  0.72875 0 0  0.7333333333333334 0 0  0.7379166666666667 0 0  0.7425 0 0  0.7470833333333333 0 0  0.7516666666666667 0 0  0.75625 0 0  0.7608333333333334 0 0  0.7654166666666666 0 0  0.7700000000000001 0 0  0 0.002380952380952381 0  0.004583333333333333 0.002380952380952381 0  0.009166666666666667 0.002380952380952381 0  0.01375 0.002380952380952381 0  0.01833333333333333 0.002380952380952381 0  0.02291666666666667 0.002380952380952381 0  0.0275 0.002380952380952381 0  0.03208333333333334 0.002380952380952381 0  0.03666666666666667 0.002380952380952381 0  0.04125 0.002380952380952381 0  0.04583333333333334 0.002380952380952381 0  0.05041666666666667 0.002380952380952381 0  0.055 0.002380952380952381 0  0.05958333333333334 0.002380952380952381 0  0.06416666666666668 0.002380952380952381 0  0.06875000000000001 0.002380952380952381 0  0.07333333333333333 0.002380952380952381 0  0.07791666666666666 0.002380952380952381 0  0.08249999999999999 0.002380952380952381 0  0.08708333333333333 0.002380952380952381 0  0.09166666666666667 0.002380952380952381 0  0.09625000000000002 0.002380952380952381 0  0.1008333333333333 0.002380952380952381 0  0.1054166666666667 0.002380952380952381 0  0.11 0.002380952380952381 0  0.1145833333333333 0.002380952380952381 0  0.1191666666666667 0.002380952380952381 0  0.12375 0.002380952380952381 0  0.1283333333333334 0.002380952380952381 0  0.1329166666666667 0.002380952380952381 0  0.1375 0.002380952380952381 0  0.1420833333333333 0.002380952380952381 0  0.1466666666666667 0.002380952380952381 0  0.15125 0.002380952380952381 0  0.1558333333333333 0.002380952380952381 0  0.1604166666666667 0.002380952380952381 0  0.165 0.002380952380952381 0  0.1695833333333333 0.002380952380952381 0  0.1741666666666667 0.002380952380952381 0  0.17875 0.002380952380952381 0  0.1833333333333333 0.002380952380952381 0  0.1879166666666667 0.002380952380952381 0  0.1925 0.002380952380952381 0  0.1970833333333333 0.002380952380952381 0  0.2016666666666667 0.002380952380952381 0  0.20625 0.002380952380952381 0  0.2108333333333333 0.002380952380952381 0  0.2154166666666666 0.002380952380952381 0  0.22 0.002380952380952381 0  0.2245833333333334 0.002380952380952381 0  0.2291666666666667 0.002380952380952381 0  0.23375 0.002380952380952381 0  0.2383333333333333 0.002380952380952381 0  0.2429166666666667 0.002380952380952381 0  0.2475 0.002380952380952381 0  0.2520833333333333 0.002380952380952381 0  0.2566666666666667 0.002380952380952381 0  0.26125 0.002380952380952381 0  0.2658333333333334 0.002380952380952381 0  0.2704166666666666 0.002380952380952381 0  0.275 0.002380952380952381 0  0.2795833333333334 0.002380952380952381 0  0.2841666666666667 0.002380952380952381 0  0.28875 0.002380952380952381 0  0.2933333333333333 0.002380952380952381 0  0.2979166666666667 0.002380952380952381 0  0.3025 0.002380952380952381 0  0.3070833333333334 0.002380952380952381 0  0.3116666666666666 0.002380952380952381 0  0.31625 0.002380952380952381 0  0.3208333333333333 0.002380952380952381 0  0.3254166666666667 0.002380952380952381 0  0.33 0.002380952380952381 0  0.3345833333333333 0.002380952380952381 0  0.3391666666666667 0.002380952380952381 0  0.34375 0.002380952380952381 0  0.3483333333333333 0.002380952380952381 0  0.3529166666666667 0.002380952380952381 0  0.3575 0.002380952380952381 0  0.3620833333333333 0.002380952380952381 0  0.3666666666666667 0.002380952380952381 0  0.37125 0.002380952380952381 0  0.3758333333333334 0.002380952380952381 0  0.3804166666666667 0.002380952380952381 0  0.3850000000000001 0.002380952380952381 0  0.3895833333333333 0.002380952380952381 0  0.3941666666666667 0.002380952380952381 0  0.39875 0.002380952380952381 0  0.4033333333333334 0.002380952380952381 0  0.4079166666666666 0.002380952380952381 0  0.4125 0.002380952380952381 0  0.4170833333333334 0.002380952380952381 0  0.4216666666666667 0.002380952380952381 0  0.42625 0.002380952380952381 0  0.4308333333333333 0.002380952380952381 0  0.4354166666666667 0.002380952380952381 0  0.44 0.002380952380952381 0  0.4445833333333333 0.002380952380952381 0  0.4491666666666667 0.002380952380952381 0  0.45375 0.002380952380952381 0  0.4583333333333333 0.002380952380952381 0  0.4629166666666666 0.002380952380952381 0  0.4675 0.002380952380952381 0  0.4720833333333334 0.002380952380952381 0  0.4766666666666667 0.002380952380952381 0  0.4812500000000001 0.002380952380952381 0  0.4858333333333333 0.002380952380952381 0  0.4904166666666667 0.002380952380952381 0  0.495 0.002380952380952381 0  0.4995833333333334 0.002380952380952381 0  0.5041666666666667 0.002380952380952381 0  0.50875 0.002380952380952381 0  0.5133333333333334 0.002380952380952381 0  0.5179166666666667 0.002380952380952381 0  0.5225 0.002380952380952381 0  0.5270833333333333 0.002380952380952381 0  0.5316666666666667 0.002380952380952381 0  0.53625 0.002380952380952381 0  0.5408333333333333 0.002380952380952381 0  0.5454166666666667 0.002380952380952381 0  0.55 0.002380952380952381 0  0.5545833333333333 0.002380952380952381 0  0.5591666666666667 0.002380952380952381 0  0.5637500000000001 0.002380952380952381 0  0.5683333333333334 0.002380952380952381 0  0.5729166666666666 0.002380952380952381 0  0.5775 0.002380952380952381 0  0.5820833333333334 0.002380952380952381 0  0.5866666666666667 0.002380952380952381 0  0.5912499999999999 0.002380952380952381 0  0.5958333333333334 0.002380952380952381 0  0.6004166666666667 0.002380952380952381 0  0.605 0.002380952380952381 0  0.6095833333333334 0.002380952380952381 0  0.6141666666666667 0.002380952380952381 0  0.61875 0.002380952380952381 0  0.6233333333333333 0.002380952380952381 0  0.6279166666666667 0.002380952380952381 0  0.6325000000000001 0.002380952380952381 0  0.6370833333333333 0.002380952380952381 0  0.6416666666666666 0.002380952380952381 0  0.64625 0.002380952380952381 0  0.6508333333333334 0.002380952380952381 0  0.6554166666666666 0.002380952380952381 0  0.6599999999999999 0.002380952380952381 0  0.6645833333333334 0.002380952380952381 0  0.6691666666666667 0.002380952380952381 0  0.67375 0.002380952380952381 0  0.6783333333333333 0.002380952380952381 0  0.6829166666666667 0.002380952380952381 0  0.6875 0.002380952380952381 0  0.6920833333333333 0.002380952380952381 0  0.6966666666666667 0.002380952380952381 0  0.70125 0.002380952380952381 0  0.7058333333333333 0.002380952380952381 0  0.7104166666666667 0.002380952380952381 0  0.7150000000000001 0.002380952380952381 
[...]
<PointData  Scalars="pressure"> 
<DataArray  type="Float64"  Name="pressure"  format="ascii">1.7689211441411237e+04  1.7659516410268512e+04  1.7632306948347523e+04  1.7603718770354924e+04  1.7573846592290698e+04  1.7538472934934725e+04  1.7505779999028455e+04  1.7473060924626414e+04  1.7437490341102352e+04  1.7408269672843358e+04  1.7384479208432083e+04  1.7358150214966066e+04  1.7331066805567803e+04  1.7303642066797624e+04  1.7276026452425423e+04  1.7248263571166848e+04  1.7220314246811318e+04  1.7192079996448057e+04  1.7163511425815104e+04  1.7134755643421464e+04  1.7106038053249085e+04  1.7077342745922062e+04  1.7048502507039837e+04  1.7019431642544791e+04  1.6990145616545411e+04  1.6960680803063711e+04  1.6931131854295909e+04  1.6901628271841964e+04  1.6872159985999893e+04  1.6842756521798961e+04  1.6814845427208744e+04  1.2227981823977521e+04  1.2199598760612986e+04  1.2175187970201769e+04  1.2151342143887487e+04  1.2127918775049366e+04  1.2104797832442518e+04  1.2081992691520969e+04  1.2059692008227146e+04  1.2039029869328957e+04  1.2013166282277540e+04  1.1988679411560455e+04  1.1964308384676067e+04  1.1939698073762325e+04  1.1914450634293971e+04  1.1888743236665419e+04  1.1862066182750292e+04  1.1834769336508183e+04  1.1806256217729071e+04  1.1777010070958453e+04  1.1746409946682192e+04  1.1715049947984260e+04  1.1682417199278871e+04  1.1649074508792755e+04  1.1613370184250602e+04  1.1575595821825629e+04  1.1536064096228778e+04  1.1496457915776800e+04  1.1460302617196321e+04  1.1418461462784995e+04  1.1380306321522112e+04  1.1343328660739857e+04  1.1307803512024610e+04  1.1273391597959877e+04  1.1239177737506960e+04  1.1205330848978978e+04  1.1171344814488139e+04  1.1137661625308736e+04  1.1104329514707770e+04  1.1071333372685458e+04  1.1038629807039802e+04  1.1005938987393733e+04  1.0971795869733920e+04  1.0943038923534614e+04  1.0920015174191432e+04  1.0895593999059329e+04  1.0869431257160892e+04  1.0841889886930669e+04  1.0813771477734279e+04  1.0785416423946350e+04  1.0757500912818852e+04  1.0730158768853871e+04  1.0702131471860492e+04  1.0673605879005703e+04  1.0645038940858381e+04  1.0616239773761492e+04  1.0586984443564041e+04  1.0557296210735083e+04  1.0527183605752414e+04  1.0496597013963115e+04  1.0465473721267030e+04  1.0433729607705276e+04  1.0401255307178679e+04  1.0367919841741666e+04  1.0333575621168919e+04  1.0298171818591230e+04  1.0262194796640795e+04  1.0226376627069505e+04  1.0190143661325788e+04  1.0153287058969119e+04  1.0117225525670667e+04  1.0053672779426199e+04  9.9222730584067303e+03  9.7726237816051726e+03  9.6252315425600027e+03  9.4794582210933659e+03  9.3336220828935075e+03  9.1871555760579449e+03  9.0399270320160722e+03  8.8919832512629546e+03  8.7434296411182659e+03  8.5943796049914527e+03  8.4449350792861187e+03  8.2951809097815876e+03  8.1451850126393565e+03  7.9950006309968730e+03  7.8446690609338129e+03  7.6942221880943416e+03  7.5436846186963776e+03  7.3930753802183290e+03  7.2424092407908192e+03  7.0916977167312916e+03  6.9409498356558624e+03  6.7901727126253145e+03  6.6393719852488966e+03  6.4885521431621282e+03  6.3377167786219507e+03  6.1868687781663948e+03  6.0360104701192549e+03  5.8851437388642398e+03  5.7342701139664887e+03  5.5833908401306708e+03  5.4325069324559763e+03  5.2816192203289629e+03  5.1307283824733813e+03  4.9798349750702691e+03  4.8289394544128418e+03  4.6780421952256265e+03  4.5271435055254815e+03  4.3762436387116222e+03  4.2253428034261897e+03  4.0744411716149771e+03  3.9235388851312705e+03  3.7726360611580485e+03  3.6217327966708804e+03  3.4708291721221735e+03  3.3199252544945789e+03  3.1690210998456851e+03  3.0181167554465114e+03  2.8672122616014312e+03  2.7163076532272703e+03  2.5654029612642485e+03  2.4144982139920094e+03  2.2635934383320582e+03  2.1126886612373864e+03  1.9617839113075750e+03  1.8108792208370476e+03  1.6599746286300888e+03  1.5090701841576893e+03  1.3581659540521034e+03  1.2072620331551898e+03  1.0563585618481075e+03  9.0545577570461455e+02  7.5455395869443589e+02  6.0365455839358196e+02  4.5275224711865320e+02  3.0190531666971663e+02  1.5056421739161678e+02  4.2690976883785199e+00  1.7687558921515891e+04  1.7659199759059255e+04  1.7633177027996855e+04  1.7601949769814411e+04  1.2800749351316661e+04  1.2775905549103214e+04  1.2752332485366684e+04  1.2728743696158966e+04  1.2703851867872088e+04  1.7408953060448854e+04  1.7384672108073912e+04  1.7358217403292063e+04  1.7331100778640634e+04  1.7303661021567121e+04  1.7276041004827097e+04  1.7248282475042764e+04  1.7220345722733287e+04  1.7192120707369122e+04  1.7163534314218861e+04  1.7134745033336396e+04  1.7106032724875437e+04  1.7077360910879339e+04  1.7048529711256317e+04  1.7019454705156611e+04  1.6990166171463883e+04  1.6960691799792268e+04  1.6931122374246184e+04  1.6901625987503274e+04  1.6872157146931961e+04  1.6842726217101026e+04  1.6814108450119420e+04  1.6783886381881683e+04  1.6746995113002853e+04  1.6713440005249413e+04  1.6680738707345899e+04  1.6648597123357929e+04  1.6616855221355971e+04  1.6585538859282820e+04  1.6554821344433662e+04  1.6526280694527526e+04  1.2012961847620083e+04  1.6457513645646515e+04  1.1964350271321253e+04  1.6390293286706663e+04  1.1914538881128105e+04  1.6320364268234087e+04  1.1862185815548459e+04  1.6246287049682995e+04  1.1806397892530917e+04  1.6167007525797715e+04  1.1746557014343533e+04  1.6081946681376525e+04  1.1682545426459204e+04  1.5991428748982367e+04  1.1613817405739001e+04  1.5890523157555286e+04  1.1536073536340549e+04  1.5781711094366889e+04  1.1459146327580258e+04  1.1418200438457217e+04  1.1380213684664806e+04  1.1343151559901828e+04  1.1307658837268540e+04  1.1273420596358937e+04  1.1239092092785309e+04  1.1205392198678752e+04  1.1171287208385264e+04  1.1137628331830270e+04  1.1104292659109860e+04  1.1071295395100897e+04  1.1038631184957136e+04  1.1005978907992530e+04  1.0972504233826954e+04  1.5022338907606900e+04  1.4990555735112850e+04  1.4957192315912580e+04  1.4921205062568815e+04  1.4883284297996994e+04  1.4844671906205620e+04  1.4805649760341292e+04  1.4767273261271946e+04  1.4729979749909120e+04  1.4691434976570859e+04  1.4652206954580888e+04  1.4613032033450050e+04  1.4573528463215185e+04  1.4533358215546945e+04  1.4492602767248092e+04  1.4451272528242964e+04  1.4409291537056302e+04  1.4366576747902143e+04  1.4323012728468857e+04  1.4278448565561006e+04  1.4232705869749259e+04  1.4185577690167962e+04  1.4136921112512060e+04  1.4087391910397309e+04  1.4038362417659529e+04  1.3988601589720538e+04  1.3937887841444772e+04  1.3888076314299109e+04  1.0061526948332601e+04  9.9234010334603227e+03  9.7720335823668629e+03  9.6251031832017979e+03  9.4794794873090195e+03  9.3336976581350609e+03  9.1872412951016468e+03  9.0400058268271860e+03  8.8920497871840125e+03  8.7434835267779745e+03  8.5944223027632543e+03  8.4449685399184309e+03  8.2952070095154577e+03  8.1452053567618732e+03  7.9950165176820228e+03  7.8446815087207706e+03  7.6942319830399547e+03  7.5436923623922048e+03  7.3930815316393036e+03  7.2424141502318489e+03  7.0917016522743434e+03  6.9409530033542105e+03  6.7901752717014842e+03  6.6393740594634819e+03  6.4885538292988876e+03  6.3377181528256697e+03  6.1868699006913030e+03  6.0360113889033655e+03  5.8851444922357341e+03  5.7342707327065546e+03  5.5833913490569958e+03  5.4325073516470447e+03  5.2816195660774365e+03  5.1307286680335337e+03  4.9798352112477714e+03  4.8289396500328749e+03  4.6780423575063478e+03  4.5271436403774387e+03  4.3762437509787023e+03  4.2253428970801906e+03  4.0744412499131590e+03  3.9235389507441546e+03  3.7726361162731982e+03  3.6217328430771636e+03  3.4708292112780287e+03  3.3199252875830953e+03  3.1690211278186080e+03  3.0181167790587833e+03  2.8672122814373538e+03  2.7163076697188581e+03  2.5654029747017530e+03  2.4144982245257834e+03  2.2635934459637992e+03  2.1126886657968621e+03  1.9617839124078171e+03  1.8108792177949845e+03  1.6599746203294599e+03  1.5090701688025699e+03  1.3581659287677394e+03  1.2072619928561601e+03  1.0563585001299439e+03  9.0545566086216058e+02  7.5455389533749985e+02  6.0365337817727573e+02  4.5275910416428923e+02  3.0184252525876843e+02  1.5112635670358799e+02  -2.3169234593953100e-01  1.7686403366423147e+04  1.7658336910898579e+04  1.7631712486689918e+04  1.7598994099007108e+04  1.7569975897360815e+04  1.7537480301706855e+04  1.7505794157138687e+04  1.7474106627864447e+04  1.7441629876094365e+04  1.7411259450262343e+04  1.7385210362706457e+04  1.7358448769979303e+04  1.7331213152369979e+04  1.7303724788255524e+04  1.7276089342250765e+04  1.7248345535667238e+04  1.7220454852211911e+04  1.7192270349295788e+04  1.7163621734009143e+04  1.7134692604435630e+04  1.7106009788914609e+04  1.7077429295373826e+04  1.7048628273139246e+04  1.7019532850900538e+04  1.6990238889441040e+04  1.6960736805996446e+04  1.6931077222021933e+04  1.6901616863048846e+04  1.6872173483389717e+04  1.6842553569093554e+04  1.6812711478214485e+04  1.6781134194812650e+04  1.6746794962612174e+04  1.6713258893902177e+04  1.6680636855025874e+04  1.6648523540411265e+04  1.6616776773092799e+04  1.6585421675685284e+04  1.6554634102796754e+04  1.6524838841220346e+04  1.6490754376740348e+04  1.6457506714408944e+04  1.6424188365334736e+04  1.6390385005094373e+04  1.6355892162779504e+04  1.6320507401271061e+04  1.6284085994480760e+04  1.6246468738460628e+04  1.6207547427150510e+04  1.6167210155978395e+04  1.6125413787998610e+04  1.6082134213477473e+04  1.6037477029011230e+04  1.5991694936252885e+04  1.5944044407699042e+04  1.5890656744608919e+04  1.5836213849984846e+04  1.5781512680958820e+04  1.5727799135210724e+04  1.5674021129936238e+04  1.5622020038051480e+04  1.5570883914625600e+04  1.5522152134343381e+04  1.5475880121057997e+04  1.5428051019708551e+04  1.5382570443456596e+04  1.5335131633048504e+04  1.5289167435245232e+04  1.5243335980306036e+04  1.5198023171655195e+04  1.5153327459047106e+04  1.5108466049280985e+04  1.5063671986541684e+04  1.5023661652586423e+04  1.4990438663234851e+04  1.4957894329652230e+04  1.4921570533980184e+04  1.4883371868789332e+04  1.4844796046829731e+04  1.4805528982299675e+04  1.4766885241152642e+04  1.4730409620933833e+04  1.4691539841618251e+04  1.4652151541892075e+04  1.4613107531141992e+04  1.4573671974857616e+04  1.4533467688238065e+04  1.4492712601473586e+04  1.4451400343789775e+04  1.4409433741352368e+04  1.4366741741697948e+04  1.4323207516782937e+04  1.4278677712474271e+04  1.4232976195957664e+04  1.4185896251838198e+04  1.4137157819712802e+04  1.4087134336541125e+04  1.4038590114050323e+04  1.3988804835288831e+04  1.3937998662072105e+04  1.3886951980394439e+04  1.3821451852661592e+04  9.9228065596176857e+03  9.7702955445964326e+03  9.6247070393610047e+03  9.4795794805128953e+03  9.3339701350750383e+03  9.1875421835971465e+03  9.0402798153691747e+03  8.8922801112372472e+03  8.7436696112125665e+03  8.5945695512347229e+03  8.4450838439797008e+03  8.2952969103186297e+03  8.1452754175396640e+03  7.9950712230934159e+03  7.8447243710430976e+03  7.6942657100483866e+03  7.5437190252444407e+03  7.3931027100815327e+03  7.2424310498819304e+03  7.0917151958792929e+03  6.9409639002876338e+03  6.7901840702486434e+03  6.6393811859149118e+03  6.4885596171217730e+03  6.3377228644525539e+03  6.1868737438463695e+03  6.0360145288944923e+03  5.8851470612642925e+03  5.7342728369657634e+03  5.5833930741826753e+03  5.4325087669335153e+03  5.2816207277615567e+03  5.1307296218703295e+03  4.9798359945433867e+03  4.8289402932585617e+03  4.6780428855865885e+03  4.5271440737227404e+03  4.3762441063169881e+03  4.2253431881282859e+03  4.0744414879205538e+03  3.9235391449341705e+03  3.7726362742012680e+03  3.6217329709217483e+03  3.4708293140763694e+03  3.3199253694213935e+03  3.1690211919840199e+03  3.0181168281587302e+03  2.8672123174899284e+03  2.7163076942163243e+03  2.5654029886470676e+03  2.4144982284393809e+03  2.2635934398539184e+03  2.1126886490803236e+03  1.9617838837572538e+03  1.8108791748690276e+03  1.6599745593048256e+03  1.5090700835579999e+03  1.3581658093864528e+03  1.2072618230430417e+03  1.0563582503262355e+03  9.0545528853122210e+02  7.5455322880786355e+02  6.0365278480878510e+02  4.5275386860003766e+02  3.0186462725709572e+02  1.5099998205448290e+02  3.0504530873893970e-02  1.7685282973373894e+04  1.7657219948884100e+04  1.7628929769415445e+04  1.7598575597767926e+04  1.7568419985135963e+04  1.7537136272123807e+04  1.7505794772516878e+04  1.7474481488537229e+04  1.7443196875951555e+04  1.7413470619831598e+04  1.7385990151443952e+04  1.7358795970599778e+04  1.7331390062201899e+04  1.7303825664466356e+04  1.7276163976211730e+04  1.7248443126431241e+04  1.7220639435680350e+04  1.7192560011936213e+04  1.7163816248460531e+04  1.7134522875900137e+04  1.7105958207700442e+04  1.7077570340333215e+04  1.7048815647038926e+04  1.7019656361561458e+04  1.6990365074205962e+04  1.6960856334182416e+04  1.6930933981041057e+04  1.6901608263281389e+04  1.6872261304965505e+04  1.6842373971558991e+04  1.6811680727986331e+04  1.6779538334067336e+04  1.6746059243680273e+04  1.6712873903278763e+04  1.6680401478757718e+04  1.6648359827115997e+04  1.6616595057064333e+04  1.6585170250138406e+04  1.6554159465176937e+04  1.6523223860738930e+04  1.6490538179272105e+04  1.6457562228732320e+04  1.6424360263555169e+04  1.6390644595304340e+04  1.6356210941055933e+04  1.6320891113629652e+04  1.6284515306602569e+04  1.6246950000907344e+04  1.6208056445090120e+04  1.6167749859966611e+04  1.6125947720878155e+04  1.6082647623083627e+04  1.6037913446126686e+04  1.5991996163945814e+04  1.5946981361671569e+04  1.5890620980049147e+04  1.5836287383119357e+04  1.5781653992879386e+04  1.5723745406387017e+04  1.5674083944446309e+04  1.5621725103476065e+04  1.5570183407704355e+04  1.5520952383392567e+04  1.5477348025004496e+04  1.5426199587709893e+04  1.5384163121361262e+04  1.5334192532908241e+04  1.5289296658516228e+04  1.5243159246092066e+04  1.5197775536184306e+04  1.5153479134285679e+04  1.5108331733925763e+04  1.5064415283421160e+04  1.5024841173589768e+04  1.4989541154113958e+04  1.4960264078117181e+04  1.4922281955237049e+04  1.4883441112804883e+04  1.4845202592404148e+04  1.4805399233114713e+04  1.4765223980885878e+04  1.4732208131570615e+04  1.4691589426594224e+04  1.4651935740460955e+04  1.4613346279250343e+04  1.4573975685082161e+04  1.4533713122473517e+04  1.4492952253735351e+04  1.4451690046067257e+04  1.4409750392910360e+04  1.4367110809239086e+04  1.4323644847612401e+04  1.4279190379773752e+04  1.4233586038271122e+04  1.4186582678062439e+04  1.4137996342178894e+04  1.4085830397898515e+04  1.4039447769628769e+04  1.3989390732134429e+04  1.3937631445496281e+04  1.3888467816399922e+04  1.0054398493176670e+04  9.9143106564213085e+03  9.7680439480841997e+03  9.6241970361520762e+03  9.4798426396808718e+03  9.3344744672477809e+03  9.1880723197527659e+03  9.0407536279493397e+03  8.8926748388524338e+03  8.7439869669756081e+03  8.5948199844639184e+03  8.4452796482729682e+03  8.2954494572240874e+03  8.1453942632703847e+03  7.9951640213147130e+03  7.8447970934473542e+03  7.6943229503496095e+03  7.5437642927782435e+03  7.3931386799062893e+03  7.2424597631488259e+03  7.0917382149955893e+03  6.9409824267366293e+03  6.7901990330712097e+03  6.6393933077990741e+03  6.4885694636933704e+03  6.3377308810868135e+03  6.1868802832549172e+03  6.0360198719029304e+03  5.8851514325564940e+03  5.7342764170953396e+03  5.5833960088023096e+03  5.4325111739381236e+03  5.2816227028561971e+03  5.1307312429397798e+03  4.9798373251030880e+03  4.8289413851958534e+03  4.6780437813495610e+03  4.5271448080759747e+03  4.3762447077554580e+03  4.2253436800196860e+03  4.0744418894306214e+03  3.9235394717776253e+03  3.7726365392517905e+03  3.6217331847073638e+03  3.4708294851810188e+03  3.3199255048089440e+03  3.1690212972573263e+03  3.0181169077631575e+03  2.8672123748677909e+03  2.7163077319157433e+03  2.5654030083853218e+03  2.4144982311163471e+03  2.2635934255047082e+03  2.1126886167458742e+03  1.9617838312340934e+03  1.8108790982680193e+03  1.6599744522903718e+03  1.5090699360226845e+03  1.3581656050976469e+03  1.2072615351772579e+03  1.0563578335815023e+03  9.0545465710804308e+02  7.5455225154969912e+02  6.0365098234733227e+02  4.5275149624965678e+02  3.0185734048519362e+02  1.5095884325149618e+02  -2.4393720091975594e-03  1.7684157201895636e+04  1.7655932541043181e+04  1.7627249649959522e+04  1.7597541198930481e+04  1.7567401193800531e+04  1.7536691718726091e+04  1.7505790807562382e+04  1.7474931228065783e+04  1.7444380205142454e+04  1.7414924451656832e+04  1.7386814584733187e+04  1.7359204591383437e+04  1.7331609464451220e+04  1.7303951886052175e+04  1.7276252791887957e+04  1.7248555766295354e+04  1.7220887231141165e+04  1.7193032821199617e+04  1.7164278336578431e+04  1.7133994348742715e+04  1.7105898376784739e+04  1.7077825916033209e+04  1.7049132929894058e+04  1.7019797176952739e+04  1.6990513777847591e+04  1.6961217866954947e+04  1.6930476091492572e+04  1.6901649114248074e+04  1.6872507131453538e+04  1.6842380268437289e+04  1.6811062821060266e+04  1.6778420248914670e+04  1.6745143306044993e+04  1.6712276202589092e+04  1.6680059452680282e+04  1.6648134132374806e+04  1.6616316334252489e+04  1.6584816520813161e+04  1.6553526812526674e+04  1.6522284901555638e+04  1.6490264596018733e+04  1.6457686646670616e+04  1.6424675191778933e+04  1.6391093190983978e+04  1.6356773126980206e+04  1.6321553248595294e+04  1.6285271259182235e+04  1.6247782275445872e+04  1.6208953690538867e+04  1.6168685404872675e+04  1.6126895208645397e+04  1.6083546419463377e+04  1.6038677807867694e+04  1.5992508031270729e+04  1.5947359263699333e+04  1.5891031343362210e+04  1.5836610854763952e+04  1.5781721582807821e+04  1.5723472626851662e+04  1.5674304034284844e+04  1.5621224821687319e+04  1.5568828688283849e+04  1.5518824467873072e+04  1.5474158837809235e+04  1.5427059960712862e+04  1.1201475975996056e+04  1.5331085300329909e+04  1.1136733729847907e+04  1.1103501653569378e+04  1.1068807701895961e+04  1.1040350447887637e+04  1.1004837843291376e+04  1.0973350370018306e+04  1.0947199823876457e+04  1.4990010916628647e+04  1.0899842622732069e+04  1.4925890373645134e+04  1.0841350062596326e+04  1.4847502823429186e+04  1.0783520695567859e+04  1.4765344670627914e+04  1.0730078869780929e+04  1.4692872974699678e+04  1.0671263890501954e+04  1.4614903589620861e+04  1.0616133558852709e+04  1.0588919093758699e+04  1.0558715380196885e+04  1.0528971559739261e+04  1.0498570921007311e+04  1.0467766563223291e+04  1.0436455911072793e+04  1.0404439298872630e+04  1.0371718226900277e+04  1.0338005835459042e+04  1.0303144291082808e+04  1.0263669949172629e+04  1.0229710210679192e+04  1.0192597259412885e+04  1.0153275033299506e+04  1.0110848733328536e+04  1.0026789339899309e+04  9.9036065150610157e+03  9.7654440017843244e+03  9.6238980900207516e+03  9.4803909259821448e+03  9.3352633529550112e+03  9.1888510100150470e+03  9.0414321848090731e+03  8.8932329911128290e+03  8.7444325866230374e+03  8.5951702448533597e+03  8.4455529068938777e+03  8.2956621177511643e+03  8.1455598808131017e+03  7.9952933516872872e+03  7.8448984831583530e+03  7.6944027993686605e+03  7.5438274815212490e+03  7.3931889253317086e+03  7.2424999007416254e+03  7.0917704156184373e+03  6.9410083605874552e+03  6.7902199924916513e+03  6.6394102988662216e+03  6.4885832744812469e+03  6.3377421326381309e+03  6.1868894677900262e+03  6.0360273816136787e+03  5.8851575814419039e+03  5.7342814576354021e+03  5.5834001447824876e+03  5.4325145703851013e+03  5.2816254937903286e+03  5.1307335374649338e+03  4.9798392122204978e+03  4.8289429376311682e+03  4.6780450586109528e+03  4.5271458589087861e+03  4.3762455721200631e+03  4.2253443906902803e+03  4.0744424732908792e+03  3.9235399508725473e+03  3.7726369316424434e+03  3.6217335051652681e+03  3.4708297457512076e+03  3.3199257152644946e+03  3.1690214654630086e+03  3.0181170399614284e+03  2.8672124758963423e+03  2.7163078053616823e+03  2.5654030566764559e+03  2.4144982555440706e+03  2.2635934