<?xml version="1.0"?>
<VTKFile type="UnstructuredGrid"  version="0.1"  >
<UnstructuredGrid>
<Piece  NumberOfPoints="21400" NumberOfCells="42336">
<Points>
<DataArray  type="Float64"  NumberOfComponents="3"  format="ascii">0 0 0  0.004583333333333333 0 0  0.009166666666666667 0 0  0.01375 0 0  0.01833333333333333 0 0  0.02291666666666667 0 0  0.0275 0 0  0.03208333333333334 0 0  0.03666666666666667 0 0  0.04125 0 0  0.04583333333333334 0 0  0.05041666666666667 0 0  0.055 0 0  0.05958333333333334 0 0  0.06416666666666668 0 0  0.06875000000000001 0 0  0.07333333333333333 0 0  0.07791666666666666 0 0  0.08249999999999999 0 0  0.08708333333333333 0 0  0.09166666666666667 0 0  0.09625000000000002 0 0  0.1008333333333333 0 0  0.1054166666666667 0 0  0.11 0 0  0.1145833333333333 0 0  0.1191666666666667 0 0  0.12375 0 0  0.1283333333333334 0 0  0.1329166666666667 0 0  0.1375 0 0  0.1420833333333333 0 0  0.1466666666666667 0 0  0.15125 0 0  0.1558333333333333 0 0  0.1604166666666667 0 0  0.165 0 0  0.1695833333333333 0 0  0.1741666666666667 0 0  0.17875 0 0  0.1833333333333333 0 0  0.1879166666666667 0 0  0.1925 0 0  0.1970833333333333 0 0  0.2016666666666667 0 0  0.20625 0 0  0.2108333333333333 0 0  0.2154166666666666 0 0  0.22 0 0  0.2245833333333334 0 0  0.2291666666666667 0 0  0.23375 0 0  0.2383333333333333 0 0  0.2429166666666667 0 0  0.2475 0 0  0.2520833333333333 0 0  0.2566666666666667 0 0  0.26125 0 0  0.2658333333333334 0 0  0.2704166666666666 0 0  0.275 0 0  0.2795833333333334 0 0  0.2841666666666667 0 0  0.28875 0 0  0.2933333333333333 0 0  0.2979166666666667 0 0  0.3025 0 0  0.3070833333333334 0 0  0.3116666666666666 0 0  0.31625 0 0  0.3208333333333333 0 0  0.3254166666666667 0 0  0.33 0 0  0.3345833333333333 0 0  0.3391666666666667 0 0  0.34375 0 0  0.3483333333333333 0 0  0.3529166666666667 0 0  0.3575 0 0  0.3620833333333333 0 0  0.3666666666666667 0 0  0.37125 0 0  0.3758333333333334 0 0  0.3804166666666667 0 0  0.3850000000000001 0 0  0.3895833333333333 0 0  0.3941666666666667 0 0  0.39875 0 0  0.4033333333333334 0 0  0.4079166666666666 0 0  0.4125 0 0  0.4170833333333334 0 0  0.4216666666666667 0 0  0.42625 0 0  0.4308333333333333 0 0  0.4354166666666667 0 0  0.44 0 0  0.4445833333333333 0 0  0.4491666666666667 0 0  0.45375 0 0  0.4583333333333333 0 0  0.4629166666666666 0 0  0.4675 0 0  0.4720833333333334 0 0  0.4766666666666667 0 0  0.4812500000000001 0 0  0.4858333333333333 0 0  0.4904166666666667 0 0  0.495 0 0  0.4995833333333334 0 0  0.5041666666666667 0 0  0.50875 0 0  0.5133333333333334 0 0  0.5179166666666667 0 0  0.5225 0 0  0.5270833333333333 0 0  0.5316666666666667 0 0  0.53625 0 0  0.5408333333333333 0 0  0.5454166666666667 0 0  0.55 0 0  0.5545833333333333 0 0  0.5591666666666667 0 0  0.5637500000000001 0 0  0.5683333333333334 0 0  0.5729166666666666 0 0  0.5775 0 0  0.5820833333333334 0 0  0.5866666666666667 0 0  0.5912499999999999 0 0  0.5958333333333334 0 0  0.6004166666666667 0 0  0.605 0 0  0.6095833333333334 0 0  0.6141666666666667 0 0  0.61875 0 0  0.6233333333333333 0 0  0.6279166666666667 0 0  0.6325000000000001 0 0  0.6370833333333333 0 0  0.6416666666666666 0 0  0.64625 0 0  0.6508333333333334 0 0  0.6554166666666666 0 0  0.6599999999999999 0 0  0.6645833333333334 0 0  0.6691666666666667 0 0  0.67375 0 0  0.6783333333333333 0 0  0.6829166666666667 0 0  0.6875 0 0  0.6920833333333333 0 0  0.6966666666666667 0 0  0.70125 0 0  0.7058333333333333 0 0  0.7104166666666667 0 0  0.7150000000000001 0 0  0.7195833333333334 0 0  0.7241666666666666 0 0  0.72875 0 0  0.7333333333333334 0 0  0.7379166666666667 0 0  0.7425 0 0  0.7470833333333333 0 0  0.7516666666666667 0 0  0.75625 0 0  0.7608333333333334 0 0  0.7654166666666666 0 0  0.7700000000000001 0 0  0 0.002380952380952381 0  0.004583333333333333 0.002380952380952381 0  0.009166666666666667 0.002380952380952381 0  0.01375 0.002380952380952381 0  0.01833333333333333 0.002380952380952381 0  0.02291666666666667 0.002380952380952381 0  0.0275 0.002380952380952381 0  0.03208333333333334 0.002380952380952381 0  0.03666666666666667 0.002380952380952381 0  0.04125 0.002380952380952381 0  0.04583333333333334 0.002380952380952381 0  0.05041666666666667 0.002380952380952381 0  0.055 0.002380952380952381 0  0.05958333333333334 0.002380952380952381 0  0.06416666666666668 0.002380952380952381 0  0.06875000000000001 0.002380952380952381 0  0.07333333333333333 0.002380952380952381 0  0.07791666666666666 0.002380952380952381 0  0.08249999999999999 0.002380952380952381 0  0.08708333333333333 0.002380952380952381 0  0.09166666666666667 0.002380952380952381 0  0.09625000000000002 0.002380952380952381 0  0.1008333333333333 0.002380952380952381 0  0.1054166666666667 0.002380952380952381 0  0.11 0.002380952380952381 0  0.1145833333333333 0.002380952380952381 0  0.1191666666666667 0.002380952380952381 0  0.12375 0.002380952380952381 0  0.1283333333333334 0.002380952380952381 0  0.1329166666666667 0.002380952380952381 0  0.1375 0.002380952380952381 0  0.1420833333333333 0.002380952380952381 0  0.1466666666666667 0.002380952380952381 0  0.15125 0.002380952380952381 0  0.1558333333333333 0.002380952380952381 0  0.1604166666666667 0.002380952380952381 0  0.165 0.002380952380952381 0  0.1695833333333333 0.002380952380952381 0  0.1741666666666667 0.002380952380952381 0  0.17875 0.002380952380952381 0  0.1833333333333333 0.002380952380952381 0  0.1879166666666667 0.002380952380952381 0  0.1925 0.002380952380952381 0  0.1970833333333333 0.002380952380952381 0  0.2016666666666667 0.002380952380952381 0  0.20625 0.002380952380952381 0  0.2108333333333333 0.002380952380952381 0  0.2154166666666666 0.002380952380952381 0  0.22 0.002380952380952381 0  0.2245833333333334 0.002380952380952381 0  0.2291666666666667 0.002380952380952381 0  0.23375 0.002380952380952381 0  0.2383333333333333 0.002380952380952381 0  0.2429166666666667 0.002380952380952381 0  0.2475 0.002380952380952381 0  0.2520833333333333 0.002380952380952381 0  0.2566666666666667 0.002380952380952381 0  0.26125 0.002380952380952381 0  0.2658333333333334 0.002380952380952381 0  0.2704166666666666 0.002380952380952381 0  0.275 0.002380952380952381 0  0.2795833333333334 0.002380952380952381 0  0.2841666666666667 0.002380952380952381 0  0.28875 0.002380952380952381 0  0.2933333333333333 0.002380952380952381 0  0.2979166666666667 0.002380952380952381 0  0.3025 0.002380952380952381 0  0.3070833333333334 0.002380952380952381 0  0.3116666666666666 0.002380952380952381 0  0.31625 0.002380952380952381 0  0.3208333333333333 0.002380952380952381 0  0.3254166666666667 0.002380952380952381 0  0.33 0.002380952380952381 0  0.3345833333333333 0.002380952380952381 0  0.3391666666666667 0.002380952380952381 0  0.34375 0.002380952380952381 0  0.3483333333333333 0.002380952380952381 0  0.3529166666666667 0.002380952380952381 0  0.3575 0.002380952380952381 0  0.3620833333333333 0.002380952380952381 0  0.3666666666666667 0.002380952380952381 0  0.37125 0.002380952380952381 0  0.3758333333333334 0.002380952380952381 0  0.3804166666666667 0.002380952380952381 0  0.3850000000000001 0.002380952380952381 0  0.3895833333333333 0.002380952380952381 0  0.3941666666666667 0.002380952380952381 0  0.39875 0.002380952380952381 0  0.4033333333333334 0.002380952380952381 0  0.4079166666666666 0.002380952380952381 0  0.4125 0.002380952380952381 0  0.4170833333333334 0.002380952380952381 0  0.4216666666666667 0.002380952380952381 0  0.42625 0.002380952380952381 0  0.4308333333333333 0.002380952380952381 0  0.4354166666666667 0.002380952380952381 0  0.44 0.002380952380952381 0  0.4445833333333333 0.002380952380952381 0  0.4491666666666667 0.002380952380952381 0  0.45375 0.002380952380952381 0  0.4583333333333333 0.002380952380952381 0  0.4629166666666666 0.002380952380952381 0  0.4675 0.002380952380952381 0  0.4720833333333334 0.002380952380952381 0  0.4766666666666667 0.002380952380952381 0  0.4812500000000001 0.002380952380952381 0  0.4858333333333333 0.002380952380952381 0  0.4904166666666667 0.002380952380952381 0  0.495 0.002380952380952381 0  0.4995833333333334 0.002380952380952381 0  0.5041666666666667 0.002380952380952381 0  0.50875 0.002380952380952381 0  0.5133333333333334 0.002380952380952381 0  0.5179166666666667 0.002380952380952381 0  0.5225 0.002380952380952381 0  0.5270833333333333 0.002380952380952381 0  0.5316666666666667 0.002380952380952381 0  0.53625 0.002380952380952381 0  0.5408333333333333 0.002380952380952381 0  0.5454166666666667 0.002380952380952381 0  0.55 0.002380952380952381 0  0.5545833333333333 0.002380952380952381 0  0.5591666666666667 0.002380952380952381 0  0.5637500000000001 0.002380952380952381 0  0.5683333333333334 0.002380952380952381 0  0.5729166666666666 0.002380952380952381 0  0.5775 0.002380952380952381 0  0.5820833333333334 0.002380952380952381 0  0.5866666666666667 0.002380952380952381 0  0.5912499999999999 0.002380952380952381 0  0.5958333333333334 0.002380952380952381 0  0.6004166666666667 0.002380952380952381 0  0.605 0.002380952380952381 0  0.6095833333333334 0.002380952380952381 0  0.6141666666666667 0.002380952380952381 0  0.61875 0.002380952380952381 0  0.6233333333333333 0.002380952380952381 0  0.6279166666666667 0.002380952380952381 0  0.6325000000000001 0.002380952380952381 0  0.6370833333333333 0.002380952380952381 0  0.6416666666666666 0.002380952380952381 0  0.64625 0.002380952380952381 0  0.6508333333333334 0.002380952380952381 0  0.6554166666666666 0.002380952380952381 0  0.6599999999999999 0.002380952380952381 0  0.6645833333333334 0.002380952380952381 0  0.6691666666666667 0.002380952380952381 0  0.67375 0.002380952380952381 0  0.6783333333333333 0.002380952380952381 0  0.6829166666666667 0.002380952380952381 0  0.6875 0.002380952380952381 0  0.6920833333333333 0.002380952380952381 0  0.6966666666666667 0.002380952380952381 0  0.70125 0.002380952380952381 0  0.7058333333333333 0.002380952380952381 0  0.7104166666666667 0.002380952380952381 0  0.7150000000000001 0.002380952380952381 
[...]
<PointData  Scalars="pressure"> 
<DataArray  type="Float64"  Name="pressure"  format="ascii">2.2123047891926297e+04  2.2093352740259445e+04  2.2066142844125741e+04  2.2037553898172286e+04  2.2007680486608526e+04  2.1972304883200261e+04  2.1939609608939478e+04  2.1906887626482854e+04  2.1871313270023271e+04  2.1842089124778679e+04  2.1818295519084586e+04  2.1791962949449851e+04  2.1764876094633106e+04  2.1737448704924569e+04  2.1709832311750590e+04  2.1682072306636936e+04  2.1654132433229715e+04  2.1625918989447120e+04  2.1597390719361221e+04  2.1568709676381819e+04  2.1540130881702513e+04  2.1511697397760614e+04  2.1483405979083138e+04  2.1455402598590699e+04  2.1432188859179299e+04  1.5584471855593783e+04  1.5560061475790935e+04  1.5536118690806106e+04  1.5512176831207462e+04  1.5487894166462245e+04  1.5463157997621458e+04  1.5438070155023503e+04  1.5412819636856526e+04  1.5387520934230452e+04  1.5362141772733326e+04  1.5336571167443175e+04  1.5310742130932073e+04  1.5284696171477095e+04  1.5258677407160480e+04  1.5234082128739414e+04  1.5202573142988536e+04  1.5172307323989444e+04  1.5141581223981422e+04  1.5110317436706879e+04  1.5078068335901296e+04  1.5045301265886725e+04  1.5011785187648517e+04  1.4977979784339215e+04  1.4943949677574185e+04  1.4909975773499355e+04  1.4876447303136891e+04  1.4843373505895162e+04  1.4811464052453020e+04  1.4780337639998832e+04  1.4749632025386001e+04  1.4718228751787496e+04  1.4685535483470023e+04  1.4651858154163268e+04  1.4620345691008195e+04  1.4585451299595974e+04  1.4555916637846827e+04  1.4526600159366186e+04  1.4495182182800363e+04  1.4461733291034621e+04  1.4426225847357049e+04  1.4388645217503887e+04  1.4349235953513364e+04  1.4308364566311358e+04  1.4266890081029860e+04  1.4225626147334166e+04  1.4183586211039301e+04  1.4140587388751264e+04  1.4096189660201655e+04  1.4059295120399045e+04  1.4029930586468563e+04  1.3971338259990072e+04  1.3843961497614106e+04  1.3695882676666764e+04  1.3548884418151118e+04  1.3403173778596889e+04  1.3257318271979206e+04  1.3110817054634446e+04  1.2963556948965152e+04  1.2815588475283101e+04  1.2667016629392123e+04  1.2517953465215140e+04  1.2368499594486677e+04  1.2218738798976770e+04  1.2068738202302378e+04  1.1918550477482440e+04  1.1768216517542014e+04  1.1617767925604428e+04  1.1467229110564334e+04  1.1316618962155308e+04  1.1165952152205517e+04  1.1015240129497717e+04  1.0864491874084053e+04  1.0713714467346561e+04  1.0562913522895871e+04  1.0412093513141876e+04  1.0261258017875683e+04  1.0110409914531365e+04  9.9595515247164840e+03  9.8086847278041732e+03  9.6578110495742931e+03  9.5069317318307894e+03  9.3560477874127955e+03  9.2051600439108133e+03  9.0542691785866555e+03  8.9033757463961592e+03  8.7524802025690133e+03  8.6015829208680607e+03  8.4506842084003965e+03  8.2997843176634415e+03  8.1488834563643395e+03  7.9979817954397222e+03  7.8470794756162750e+03  7.6961766127849105e+03  7.5452733024081253e+03  7.3943696231380300e+03  7.2434656397887229e+03  7.0925614057798975e+03  6.9416569651469617e+03  6.7907523541953224e+03  6.6398476028624918e+03  6.4889427358399880e+03  6.3380377734978774e+03  6.1871327326468672e+03  6.0362276271668779e+03  5.8853224685257683e+03  5.7344172662077535e+03  5.5835120280676074e+03  5.4326067606239249e+03  5.2817014693025076e+03  5.1307961586389501e+03  4.9798908324480335e+03  4.8289854939662800e+03  4.6780801459730628e+03  4.5271747908948519e+03  4.3762694308965147e+03  4.2253640679632927e+03  4.0744587039766570e+03  3.9235533407871853e+03  3.7726479802875715e+03  3.6217426244891585e+03  3.4708372756058102e+03  3.3199319361497146e+03  3.1690266090448167e+03  3.0181212977655564e+03  2.8672160065111830e+03  2.7163107404300886e+03  2.5654055059150141e+03  2.4145003109998806e+03  2.2635951659046955e+03  2.1126900838006450e+03  1.9617850819101375e+03  1.8108801831300216e+03  1.6599754184956594e+03  1.5090708310477412e+03  1.3581664820868282e+03  1.2072624620227411e+03  1.0563589075388966e+03  9.0545605110767326e+02  7.5455417407807852e+02  6.0365472178859625e+02  4.5275236461609131e+02  3.0190539266369905e+02  1.5056425459371317e+02  4.2690987356424612e+00  2.2121395404142368e+04  2.2093036118433010e+04  2.2067012978215698e+04  2.2035784875412421e+04  1.6030635421108325e+04  1.6005790240749226e+04  1.5982215493050197e+04  1.5958624609502056e+04  1.5933730148424360e+04  2.1842772629955714e+04  2.1818488456513489e+04  2.1792030125413970e+04  2.1764909987580737e+04  2.1737467467438233e+04  2.1709846485839611e+04  2.1682090527375149e+04  2.1654162730780361e+04  2.1625957697179601e+04  2.1597410104599508e+04  2.1568692671337856e+04  2.1540112958688878e+04  2.1511692525945153e+04  2.1483351073828631e+04  2.1455448690308847e+04  2.1429148253740244e+04  2.1393591502406161e+04  2.1360061603755683e+04  2.1327246957976800e+04  2.1294422583770225e+04  2.1261101332376093e+04  2.1227130565608848e+04  2.1192666049041414e+04  2.1157988598231997e+04  2.1123264895862500e+04  2.1088440910502035e+04  2.1053347829568149e+04  2.1017885377701754e+04  2.0982116190977638e+04  2.0946271365808141e+04  2.0912285326630135e+04  1.5202406531703091e+04  2.0827889919367157e+04  1.5141680416734273e+04  2.0742794159307705e+04  1.5078166843737969e+04  2.0653528220104541e+04  1.5011838163703746e+04  2.0561081014418000e+04  1.4943934110765040e+04  2.0467687802934626e+04  1.4876353338601009e+04  2.0376213695424034e+04  1.4811298553355764e+04  2.0289701320972497e+04  1.4749794358336576e+04  2.0204542965657878e+04  1.4685745816642642e+04  2.0113394252134283e+04  1.4619142533487575e+04  1.4584899830923143e+04  1.4555938748429371e+04  1.4526886466739010e+04  1.4495385753928937e+04  1.4461965137865558e+04  1.4426463243165235e+04  1.4388850981346104e+04  1.4349413233010579e+04  1.4308445470191875e+04  1.4266805813417839e+04  1.4225746683624229e+04  1.4183729462266563e+04  1.4140569466094656e+04  1.4096984885158352e+04  1.9300287257690263e+04  1.9259526534306191e+04  1.3979492291917451e+04  1.3845394050600340e+04  1.3695403549757970e+04  1.3548781861243693e+04  1.3403202110345166e+04  1.3257394924483548e+04  1.3110902319675686e+04  1.2963635002327603e+04  1.2815654344175413e+04  1.2667069996818602e+04  1.2517995783742374e+04  1.2368532785458783e+04  1.2218764709800076e+04  1.2068758415103315e+04  1.1918566273217439e+04  1.1768228902417912e+04  1.1617777677017295e+04  1.1467236824089594e+04  1.1316625092614284e+04  1.1165957047034733e+04  1.1015244054814972e+04  1.0864495034593303e+04  1.0713717021342874e+04  1.0562915593501604e+04  1.0412095196700868e+04  1.0261259390228877e+04  1.0110411035722704e+04  9.9595524425381318e+03  9.8086854804830327e+03  9.6578116678212282e+03  9.5069322404148079e+03  9.3560482063790059e+03  9.2051603895294593e+03  9.0542694640976370e+03  8.9033759825968409e+03  8.7524803982810918e+03  8.6015830833102518e+03  8.4506843434874445e+03  8.2997844302469621e+03  8.1488835504275366e+03  7.9979818742553198e+03  7.8470795418749267e+03  7.6961766686998672e+03  7.5452733498007274e+03  7.3943696635076085e+03  7.2434656743698752e+03  7.0925614355894504e+03  6.9416569910224925e+03  6.7907523768268402e+03  6.6398476228184381e+03  6.4889427535886434e+03  6.3380377894249277e+03  6.1871327470698980e+03  6.0362276403472670e+03  5.8853224806784801e+03  5.7344172775093621e+03  5.5835120386629169e+03  5.4326067706313679e+03  5.2817014788185661e+03  5.1307961677417588e+03  4.9798908412002820e+03  4.8289855024175404e+03  4.6780801541616247e+03  4.5271747988491152e+03  4.3762694386360145e+03  4.2253640754993603e+03  4.0744587113127532e+03  3.9235533479188898e+03  3.7726479872022123e+03  3.6217426311650315e+03  3.4708372820109093e+03  3.3199319422398526e+03  3.1690266147609236e+03  3.0181213030299014e+03  2.8672160112220486e+03  2.7163107444542584e+03  2.5654055090770171e+03  2.4145003130663590e+03  2.2635951665612424e+03  2.1126900826166957e+03  1.9617850782844000e+03  1.8108801762030955e+03  1.6599754070063593e+03  1.5090708130811975e+03  1.3581664546708860e+03  1.2072624199924792e+03  1.0563588444252821e+03  9.0545593515350356e+02  7.5455410985173069e+02  6.0365354091247855e+02  4.5275922118915520e+02  3.0184260093070111e+02  1.5112639389364023e+02  -2.3169241513745428e-01  2.2120239960444836e+04  2.2092173376406859e+04  2.2065548569394894e+04  2.2032829285549014e+04  2.2003809887474596e+04  2.1971312498152096e+04  2.1939624087831940e+04  2.1907933758376988e+04  2.1875453569121470e+04  2.1845079425278753e+04  2.1819026833750882e+04  2.1792261458790184e+04  2.1765022096639372e+04  2.1737530587614765e+04  2.1709893541354140e+04  2.1682151263669577e+04  2.1654267844803344e+04  2.1626100528782503e+04  2.1597485697054144e+04  2.1568618545068584e+04  2.1540048746572134e+04  2.1511675639909263e+04  2.1483259595708383e+04  2.1454929582096956e+04  2.1425988665906705e+04  2.1393217897708684e+04  2.1359944122438807e+04  2.1327251713855698e+04  2.1294531289872622e+04  2.1261237718356653e+04  2.1227231080535006e+04  2.1192703585739706e+04  2.1157990156952194e+04  2.1123280937236988e+04  2.1088496277922302e+04  2.1053424959771637e+04  2.1017951124707030e+04  2.0982131479355856e+04  2.0946196454116121e+04  2.0910685110056751e+04  2.0869214474451983e+04  2.0827976853345310e+04  2.0785995210203644e+04  2.0742937029256747e+04  2.0698796931256376e+04  2.0653627238534817e+04  2.0607655224653878e+04  2.0561091139619417e+04  2.0514306138783828e+04  2.0467587169959232e+04  2.0421381215040590e+04  2.0375995735822184e+04  2.0331910375634972e+04  2.0289505272971128e+04  2.0248328535527056e+04  2.0204595486468810e+04  2.0160432150250501e+04  2.0113484644465461e+04  2.0065555995675240e+04  2.0020179684172588e+04  1.9981830875170552e+04  1.9942617660258133e+04  1.9898940522805602e+04  1.9853250467317179e+04  1.9804493343346930e+04  1.9752770878529580e+04  1.9698572744292836e+04  1.9642198456390721e+04  1.9584373899921407e+04  1.9528782811942579e+04  1.9471139095357223e+04  1.9411233534517592e+04  1.9352761243379042e+04  1.9302343500321324e+04  1.9258872836896058e+04  1.9201094380004593e+04  1.3846038541183474e+04  1.3693963385576613e+04  1.3548469264618185e+04  1.3403322541721385e+04  1.3257670002375387e+04  1.3111201138050219e+04  1.2963906187253115e+04  1.2815882224100060e+04  1.2667254199585706e+04  1.2518141656697740e+04  1.2368647108468325e+04  1.2218853919264244e+04  1.2068827991309056e+04  1.1918620639480183e+04  1.1768271527124163e+04  1.1617811237078096e+04  1.1467263369157996e+04  1.1316646187522267e+04  1.1165973887075483e+04  1.1015257555587861e+04  1.0864505900517071e+04  1.0713725797259884e+04  1.0562922703302451e+04  1.0412100972173283e+04  1.0261264092624864e+04  1.0110414871932515e+04  9.9595555772775660e+03  9.8086880455310002e+03  9.6578137690682997e+03  9.5069339632795291e+03  9.3560496199999434e+03  9.2051615500327480e+03  9.0542704171612149e+03  8.9033767654756139e+03  8.7524810414156927e+03  8.6015836116117916e+03  8.4506847773683603e+03  8.2997847864515479e+03  8.1488838427035462e+03  7.9979821138986981e+03  7.8470797381728607e+03  7.6961768292919160e+03  7.5452734809737776e+03  7.3943697704371425e+03  7.2434657613175987e+03  7.0925615060653654e+03  6.9416570479179163e+03  6.7907524225236675e+03  6.6398476592789448e+03  6.4889427824293125e+03  6.3380378119771858e+03  6.1871327644300518e+03  6.0362276534176017e+03  5.8853224902010297e+03  5.7344172840936726e+03  5.5835120428088258e+03  5.4326067727476811e+03  5.2817014792383152e+03  5.1307961667346126e+03  4.9798908389825874e+03  4.8289854991603515e+03  4.6780801499970248e+03  4.5271747938750341e+03  4.3762694329197566e+03  4.2253640690798838e+03  4.0744587042018147e+03  3.9235533401010034e+03  3.7726479786333675e+03  3.6217426217699940e+03  3.4708372716788431e+03  3.3199319308178083e+03  3.1690266020445583e+03  3.0181212887504234e+03  2.8672159950279056e+03  2.7163107258852688e+03  2.5654054875274169e+03  2.4145002877311385e+03  2.2635951363567438e+03  2.1126900460604566e+03  1.9617850333087204e+03  1.8108801198575156e+03  1.6599753349669720e+03  1.5090707188158788e+03  1.3581663279263946e+03  1.2072622441990825e+03  1.0563585898011918e+03  9.0545555898230850e+02  7.5455344031871971e+02  6.0365294526559262e+02  4.5275398398538380e+02  3.0186470187510866e+02  1.5100001869328949e+02  3.0504525924005960e-02  2.2119119758584529e+04  2.2091056606366936e+04  2.2062765981011096e+04  2.2032410958702087e+04  2.2002254098540780e+04  2.1970968643688586e+04  2.1939624910036055e+04  2.1908308867602038e+04  2.1877020958224984e+04  2.1847291072479988e+04  2.1819806833775747e+04  2.1792608624053562e+04  2.1765198595556656e+04  2.1737630426422569e+04  2.1709966090811806e+04  2.1682245047118351e+04  2.1654445833991260e+04  2.1626379076368139e+04  2.1597661230051766e+04  2.1568414185747384e+04  2.1539931739606818e+04  2.1511687549756814e+04  2.1483166393236643e+04  2.1454257658980529e+04  2.1424482594244644e+04  2.1392642082215283e+04  2.1359641226965425e+04  2.1327270902283904e+04  2.1294814645322982e+04  2.1261580460277317e+04  2.1227479462261686e+04  2.1192783632261944e+04  2.1157977090418823e+04  2.1123311118344169e+04  2.1088634320766800e+04  2.1053619438074747e+04  2.1018113221935662e+04  2.0982200856725656e+04  2.0945985733948062e+04  2.0909068123882942e+04  2.0869236224724234e+04  2.0828284783558320e+04  2.0786381847457895e+04  2.0743347207225652e+04  2.0699162878588311e+04  2.0653936977276026e+04  2.0607858270157136e+04  2.0561192713258817e+04  2.0514266124448757e+04  2.0467425268286053e+04  2.0421064740322159e+04  2.0375548354195980e+04  2.0331311866915094e+04  2.0288737477093095e+04  2.0249934482813835e+04  2.0204301281132462e+04  2.0161566789347529e+04  2.0114258680883006e+04  2.0061316024338248e+04  2.0018075883749829e+04  1.9982122932769766e+04  1.9944480317039939e+04  1.9899234673121035e+04  1.9854206208837062e+04  1.9805346217900951e+04  1.9753481728188486e+04  1.9699129061396830e+04  1.9642952783293236e+04  1.9582894533655784e+04  1.9529775016721655e+04  1.9471965143354664e+04  1.9410620160149570e+04  1.9353014642680613e+04  1.9304367214482838e+04  1.9260049175212058e+04  1.3980822631441624e+04  1.3839027494150207e+04  1.3692087603181164e+04  1.3548067834744710e+04  1.3403610159029766e+04  1.3258175685231865e+04  1.3111726737873696e+04  1.2964374900716515e+04  1.2816272690438349e+04  1.2667568326639926e+04  1.2518389745966377e+04  1.2368841245880403e+04  1.2219005292526546e+04  1.2068946014083262e+04  1.1918712861000869e+04  1.1768343844710680e+04  1.1617868192261680e+04  1.1467308434947374e+04  1.1316682013782140e+04  1.1166002497505910e+04  1.1015280500502062e+04  1.0864524373002205e+04  1.0713740720511909e+04  1.0562934795925969e+04  1.0412110796929101e+04  1.0261272092868207e+04  1.0110421398943212e+04  9.9595609108607259e+03  9.8086924096392868e+03  9.6578173437290352e+03  9.5069368937655800e+03  9.3560520239323632e+03  9.2051635229205476e+03  9.0542720367514903e+03  8.9033780951910903e+03  8.7524821330869563e+03  8.6015845076602909e+03  8.4506855125587081e+03  8.2997853893038937e+03  8.1488843366359824e+03  7.9979825181541837e+03  7.8470800685732565e+03  7.6961770988527614e+03  7.5452737004064602e+03  7.3943699485597608e+03  7.2434659053915357e+03  7.0925616220713255e+03  6.9416571407825213e+03  6.7907524963055657e+03  6.6398477173218116e+03  6.4889428274876373e+03  6.3380378463197248e+03  6.1871327899249436e+03  6.0362276716023653e+03  5.8853225023401155e+03  5.7344172912257700e+03  5.5835120457856819e+03  5.4326067722659182e+03  5.2817014758654304e+03  5.1307961609301319e+03  4.9798908311151727e+03  4.8289854895214912e+03  4.6780801388117889e+03  4.5271747813103248e+03  4.3762694190902757e+03  4.2253640540520619e+03  4.0744586879957524e+03  3.9235533226904331e+03  3.7726479599434915e+03  3.6217426016729382e+03  3.4708372499862494e+03  3.3199319072698613e+03  3.1690265762943300e+03  3.0181212603418990e+03  2.8672159633651995e+03  2.7163106901892324e+03  2.5654054467737865e+03  2.4145002405609862e+03  2.2635950809443634e+03  2.1126899799142252e+03  1.9617849529634730e+03  1.8108800203860876e+03  1.6599752091805879e+03  1.5090705559069095e+03  1.3581661110888033e+03  1.2072619461413669e+03  1.0563581648412803e+03  9.0545492101433149e+02  7.5455245794205268e+02  6.0365113892095530e+02  4.5275160884240972e+02  3.0185741329598403e+02  1.5095887899387432e+02  -2.4393846632941177e-03  2.2117994262440727e+04  2.2089769468767543e+04  2.2061086114169535e+04  2.2031376823507060e+04  2.2001235573275866e+04  2.1970524394493819e+04  2.1939621293767610e+04  2.1908759012151921e+04  2.1878204777810290e+04  2.1848745399230014e+04  2.1820631568207424e+04  2.1793017242672955e+04  2.1765417506060014e+04  2.1737755329337440e+04  2.1710052196757555e+04  2.1682352671751039e+04  2.1654684903276000e+04  2.1626837219470744e+04  2.1598099204454396e+04  2.1567841851858924e+04  2.1539789972862596e+04  2.1511789715352690e+04  2.1483172479349952e+04  2.1453738805264831e+04  2.1423671947501465e+04  2.1392451965488577e+04  2.1358973750942499e+04  2.1327360218179369e+04  2.1295329479237880e+04  2.1262171133990083e+04  2.1227901402556261e+04  2.1192880597779578e+04  2.1157906411964621e+04  2.1123335985225112e+04  2.1088872977704046e+04  2.1053960748282327e+04  2.1018379320444237e+04  2.0982362926626422e+04  2.0945797775101484e+04  2.0908482647296511e+04  2.0869402307436590e+04  2.0828858098426324e+04  2.0787084091363082e+04  2.0744063088527888e+04  2.0699818252554414e+04  2.0654470990095982e+04  2.0608225131341020e+04  2.0561358722720892e+04  2.0514204719531608e+04  2.0467128671081515e+04  2.0420518859310032e+04  2.0374757011912105e+04  2.0330245566364392e+04  2.0287442911626975e+04  2.0248108572812205e+04  2.0203095258094218e+04  2.0165569513365663e+04  1.4654536832866746e+04  1.4612205961591726e+04  2.0014942287042973e+04  1.9981846314226281e+04  1.4527239766526220e+04  1.9901181349349554e+04  1.4466996280289140e+04  1.4432788050407991e+04  1.4393793664356393e+04  1.4353347378912307e+04  1.4313064457680644e+04  1.4268191908478912e+04  1.4229845158988866e+04  1.4187544214792870e+04  1.4141402087071107e+04  1.9352968460994187e+04  1.9305466908297767e+04  1.9259293045196227e+04  1.3965464485174123e+04  1.3828979263717458e+04  1.3689862510502151e+04  1.3547851114073192e+04  1.3404175615275455e+04  1.3258960714467854e+04  1.3112497299423096e+04  1.2965045772860451e+04  1.2816824742121136e+04  1.2668009420053770e+04  1.2518736752770550e+04  1.2369112201889680e+04  1.2219216335381429e+04  1.2069110498136472e+04  1.1918841396894353e+04  1.1768444676259263e+04  1.1617947647638908e+04  1.1467371344679710e+04  1.1316732060255130e+04  1.1166042492258728e+04  1.1015312597795895e+04  1.0864550231500836e+04  1.0713761624518978e+04  1.0562951745895409e+04  1.0412124576983237e+04  1.0261283321258437e+04  1.0110430565907214e+04  9.9595684071739743e+03  9.8086985482833552e+03  9.6578223764496088e+03  9.5069410238166620e+03  9.3560554159562398e+03  9.2051663106614960e+03  9.0542743291187253e+03  8.9033799810541423e+03  8.7524836850902066e+03  8.6015857852729714e+03  8.4506865645247635e+03  8.2997862556176933e+03  8.1488850501412171e+03  7.9979831058417149e+03  7.8470805526372706e+03  7.6961774975521475e+03  7.5452740287686138e+03  7.3943702189564965e+03  7.2434661280110022e+03  7.0925618053050912e+03  6.9416572915433308e+03  6.7907526202884301e+03  6.6398478192185730e+03  6.4889429111634518e+03  6.3380379149582122e+03  6.1871328461475759e+03  6.0362277175666877e+03  5.8853225398205059e+03  5.7344173216798054e+03  5.5835120704086148e+03  5.4326067920353207e+03  5.2817014915776726e+03  5.1307961732300810e+03  4.9798908405201983e+03  4.8289854964406604e+03  4.6780801435609956e+03  4.5271747841238457e+03  4.3762694201291788e+03  4.2253640534097349e+03  4.0744586857006552e+03  3.9235533187060832e+03  3.7726479541655031e+03  3.6217425939227414e+03  3.4708372400008584e+03  3.3199318946867106e+03  3.1690265606296862e+03  3.0181212409606082e+03  2.8672159394384216e+03  2.7163106606350552e+03  2.5654054101728671e+03  2.4145001950349374e+03  2.2635950