<?xml version="1.0"?>
<VTKFile type="UnstructuredGrid"  version="0.1"  >
<UnstructuredGrid>
<Piece  NumberOfPoints="21400" NumberOfCells="42336">
<Points>
<DataArray  type="Float64"  NumberOfComponents="3"  format="ascii">0 0 0  0.004583333333333333 0 0  0.009166666666666667 0 0  0.01375 0 0  0.01833333333333333 0 0  0.02291666666666667 0 0  0.0275 0 0  0.03208333333333334 0 0  0.03666666666666667 0 0  0.04125 0 0  0.04583333333333334 0 0  0.05041666666666667 0 0  0.055 0 0  0.05958333333333334 0 0  0.06416666666666668 0 0  0.06875000000000001 0 0  0.07333333333333333 0 0  0.07791666666666666 0 0  0.08249999999999999 0 0  0.08708333333333333 0 0  0.09166666666666667 0 0  0.09625000000000002 0 0  0.1008333333333333 0 0  0.1054166666666667 0 0  0.11 0 0  0.1145833333333333 0 0  0.1191666666666667 0 0  0.12375 0 0  0.1283333333333334 0 0  0.1329166666666667 0 0  0.1375 0 0  0.1420833333333333 0 0  0.1466666666666667 0 0  0.15125 0 0  0.1558333333333333 0 0  0.1604166666666667 0 0  0.165 0 0  0.1695833333333333 0 0  0.1741666666666667 0 0  0.17875 0 0  0.1833333333333333 0 0  0.1879166666666667 0 0  0.1925 0 0  0.1970833333333333 0 0  0.2016666666666667 0 0  0.20625 0 0  0.2108333333333333 0 0  0.2154166666666666 0 0  0.22 0 0  0.2245833333333334 0 0  0.2291666666666667 0 0  0.23375 0 0  0.2383333333333333 0 0  0.2429166666666667 0 0  0.2475 0 0  0.2520833333333333 0 0  0.2566666666666667 0 0  0.26125 0 0  0.2658333333333334 0 0  0.2704166666666666 0 0  0.275 0 0  0.2795833333333334 0 0  0.2841666666666667 0 0  0.28875 0 0  0.2933333333333333 0 0  0.2979166666666667 0 0  0.3025 0 0  0.3070833333333334 0 0  0.3116666666666666 0 0  0.31625 0 0  0.3208333333333333 0 0  0.3254166666666667 0 0  0.33 0 0  0.3345833333333333 0 0  0.3391666666666667 0 0  0.34375 0 0  0.3483333333333333 0 0  0.3529166666666667 0 0  0.3575 0 0  0.3620833333333333 0 0  0.3666666666666667 0 0  0.37125 0 0  0.3758333333333334 0 0  0.3804166666666667 0 0  0.3850000000000001 0 0  0.3895833333333333 0 0  0.3941666666666667 0 0  0.39875 0 0  0.4033333333333334 0 0  0.4079166666666666 0 0  0.4125 0 0  0.4170833333333334 0 0  0.4216666666666667 0 0  0.42625 0 0  0.4308333333333333 0 0  0.4354166666666667 0 0  0.44 0 0  0.4445833333333333 0 0  0.4491666666666667 0 0  0.45375 0 0  0.4583333333333333 0 0  0.4629166666666666 0 0  0.4675 0 0  0.4720833333333334 0 0  0.4766666666666667 0 0  0.4812500000000001 0 0  0.4858333333333333 0 0  0.4904166666666667 0 0  0.495 0 0  0.4995833333333334 0 0  0.5041666666666667 0 0  0.50875 0 0  0.5133333333333334 0 0  0.5179166666666667 0 0  0.5225 0 0  0.5270833333333333 0 0  0.5316666666666667 0 0  0.53625 0 0  0.5408333333333333 0 0  0.5454166666666667 0 0  0.55 0 0  0.5545833333333333 0 0  0.5591666666666667 0 0  0.5637500000000001 0 0  0.5683333333333334 0 0  0.5729166666666666 0 0  0.5775 0 0  0.5820833333333334 0 0  0.5866666666666667 0 0  0.5912499999999999 0 0  0.5958333333333334 0 0  0.6004166666666667 0 0  0.605 0 0  0.6095833333333334 0 0  0.6141666666666667 0 0  0.61875 0 0  0.6233333333333333 0 0  0.6279166666666667 0 0  0.6325000000000001 0 0  0.6370833333333333 0 0  0.6416666666666666 0 0  0.64625 0 0  0.6508333333333334 0 0  0.6554166666666666 0 0  0.6599999999999999 0 0  0.6645833333333334 0 0  0.6691666666666667 0 0  0.67375 0 0  0.6783333333333333 0 0  0.6829166666666667 0 0  0.6875 0 0  0.6920833333333333 0 0  0.6966666666666667 0 0  0.70125 0 0  0.7058333333333333 0 0  0.7104166666666667 0 0  0.7150000000000001 0 0  0.7195833333333334 0 0  0.7241666666666666 0 0  0.72875 0 0  0.7333333333333334 0 0  0.7379166666666667 0 0  0.7425 0 0  0.7470833333333333 0 0  0.7516666666666667 0 0  0.75625 0 0  0.7608333333333334 0 0  0.7654166666666666 0 0  0.7700000000000001 0 0  0 0.002380952380952381 0  0.004583333333333333 0.002380952380952381 0  0.009166666666666667 0.002380952380952381 0  0.01375 0.002380952380952381 0  0.01833333333333333 0.002380952380952381 0  0.02291666666666667 0.002380952380952381 0  0.0275 0.002380952380952381 0  0.03208333333333334 0.002380952380952381 0  0.03666666666666667 0.002380952380952381 0  0.04125 0.002380952380952381 0  0.04583333333333334 0.002380952380952381 0  0.05041666666666667 0.002380952380952381 0  0.055 0.002380952380952381 0  0.05958333333333334 0.002380952380952381 0  0.06416666666666668 0.002380952380952381 0  0.06875000000000001 0.002380952380952381 0  0.07333333333333333 0.002380952380952381 0  0.07791666666666666 0.002380952380952381 0  0.08249999999999999 0.002380952380952381 0  0.08708333333333333 0.002380952380952381 0  0.09166666666666667 0.002380952380952381 0  0.09625000000000002 0.002380952380952381 0  0.1008333333333333 0.002380952380952381 0  0.1054166666666667 0.002380952380952381 0  0.11 0.002380952380952381 0  0.1145833333333333 0.002380952380952381 0  0.1191666666666667 0.002380952380952381 0  0.12375 0.002380952380952381 0  0.1283333333333334 0.002380952380952381 0  0.1329166666666667 0.002380952380952381 0  0.1375 0.002380952380952381 0  0.1420833333333333 0.002380952380952381 0  0.1466666666666667 0.002380952380952381 0  0.15125 0.002380952380952381 0  0.1558333333333333 0.002380952380952381 0  0.1604166666666667 0.002380952380952381 0  0.165 0.002380952380952381 0  0.1695833333333333 0.002380952380952381 0  0.1741666666666667 0.002380952380952381 0  0.17875 0.002380952380952381 0  0.1833333333333333 0.002380952380952381 0  0.1879166666666667 0.002380952380952381 0  0.1925 0.002380952380952381 0  0.1970833333333333 0.002380952380952381 0  0.2016666666666667 0.002380952380952381 0  0.20625 0.002380952380952381 0  0.2108333333333333 0.002380952380952381 0  0.2154166666666666 0.002380952380952381 0  0.22 0.002380952380952381 0  0.2245833333333334 0.002380952380952381 0  0.2291666666666667 0.002380952380952381 0  0.23375 0.002380952380952381 0  0.2383333333333333 0.002380952380952381 0  0.2429166666666667 0.002380952380952381 0  0.2475 0.002380952380952381 0  0.2520833333333333 0.002380952380952381 0  0.2566666666666667 0.002380952380952381 0  0.26125 0.002380952380952381 0  0.2658333333333334 0.002380952380952381 0  0.2704166666666666 0.002380952380952381 0  0.275 0.002380952380952381 0  0.2795833333333334 0.002380952380952381 0  0.2841666666666667 0.002380952380952381 0  0.28875 0.002380952380952381 0  0.2933333333333333 0.002380952380952381 0  0.2979166666666667 0.002380952380952381 0  0.3025 0.002380952380952381 0  0.3070833333333334 0.002380952380952381 0  0.3116666666666666 0.002380952380952381 0  0.31625 0.002380952380952381 0  0.3208333333333333 0.002380952380952381 0  0.3254166666666667 0.002380952380952381 0  0.33 0.002380952380952381 0  0.3345833333333333 0.002380952380952381 0  0.3391666666666667 0.002380952380952381 0  0.34375 0.002380952380952381 0  0.3483333333333333 0.002380952380952381 0  0.3529166666666667 0.002380952380952381 0  0.3575 0.002380952380952381 0  0.3620833333333333 0.002380952380952381 0  0.3666666666666667 0.002380952380952381 0  0.37125 0.002380952380952381 0  0.3758333333333334 0.002380952380952381 0  0.3804166666666667 0.002380952380952381 0  0.3850000000000001 0.002380952380952381 0  0.3895833333333333 0.002380952380952381 0  0.3941666666666667 0.002380952380952381 0  0.39875 0.002380952380952381 0  0.4033333333333334 0.002380952380952381 0  0.4079166666666666 0.002380952380952381 0  0.4125 0.002380952380952381 0  0.4170833333333334 0.002380952380952381 0  0.4216666666666667 0.002380952380952381 0  0.42625 0.002380952380952381 0  0.4308333333333333 0.002380952380952381 0  0.4354166666666667 0.002380952380952381 0  0.44 0.002380952380952381 0  0.4445833333333333 0.002380952380952381 0  0.4491666666666667 0.002380952380952381 0  0.45375 0.002380952380952381 0  0.4583333333333333 0.002380952380952381 0  0.4629166666666666 0.002380952380952381 0  0.4675 0.002380952380952381 0  0.4720833333333334 0.002380952380952381 0  0.4766666666666667 0.002380952380952381 0  0.4812500000000001 0.002380952380952381 0  0.4858333333333333 0.002380952380952381 0  0.4904166666666667 0.002380952380952381 0  0.495 0.002380952380952381 0  0.4995833333333334 0.002380952380952381 0  0.5041666666666667 0.002380952380952381 0  0.50875 0.002380952380952381 0  0.5133333333333334 0.002380952380952381 0  0.5179166666666667 0.002380952380952381 0  0.5225 0.002380952380952381 0  0.5270833333333333 0.002380952380952381 0  0.5316666666666667 0.002380952380952381 0  0.53625 0.002380952380952381 0  0.5408333333333333 0.002380952380952381 0  0.5454166666666667 0.002380952380952381 0  0.55 0.002380952380952381 0  0.5545833333333333 0.002380952380952381 0  0.5591666666666667 0.002380952380952381 0  0.5637500000000001 0.002380952380952381 0  0.5683333333333334 0.002380952380952381 0  0.5729166666666666 0.002380952380952381 0  0.5775 0.002380952380952381 0  0.5820833333333334 0.002380952380952381 0  0.5866666666666667 0.002380952380952381 0  0.5912499999999999 0.002380952380952381 0  0.5958333333333334 0.002380952380952381 0  0.6004166666666667 0.002380952380952381 0  0.605 0.002380952380952381 0  0.6095833333333334 0.002380952380952381 0  0.6141666666666667 0.002380952380952381 0  0.61875 0.002380952380952381 0  0.6233333333333333 0.002380952380952381 0  0.6279166666666667 0.002380952380952381 0  0.6325000000000001 0.002380952380952381 0  0.6370833333333333 0.002380952380952381 0  0.6416666666666666 0.002380952380952381 0  0.64625 0.002380952380952381 0  0.6508333333333334 0.002380952380952381 0  0.6554166666666666 0.002380952380952381 0  0.6599999999999999 0.002380952380952381 0  0.6645833333333334 0.002380952380952381 0  0.6691666666666667 0.002380952380952381 0  0.67375 0.002380952380952381 0  0.6783333333333333 0.002380952380952381 0  0.6829166666666667 0.002380952380952381 0  0.6875 0.002380952380952381 0  0.6920833333333333 0.002380952380952381 0  0.6966666666666667 0.002380952380952381 0  0.70125 0.002380952380952381 0  0.7058333333333333 0.002380952380952381 0  0.7104166666666667 0.002380952380952381 0  0.7150000000000001 0.002380952380952381 
[...]
<PointData  Scalars="pressure"> 
<DataArray  type="Float64"  Name="pressure"  format="ascii">3.4510181841312798e+04  3.4479270810118192e+04  3.2350243708094134e+04  2.4728088323563450e+04  2.4810716190829455e+04  2.4659270703445916e+04  2.4507887473106002e+04  2.4356504803523894e+04  2.4205139851815762e+04  2.4053789732039830e+04  2.3902452356012647e+04  2.3751125487654561e+04  2.3599807218190268e+04  2.3448495962429733e+04  2.3297190425801593e+04  2.3145889556234190e+04  2.2994592499630857e+04  2.2843298562082327e+04  2.2692007178993346e+04  2.2540717890212007e+04  2.2389430320088661e+04  2.2238144161491273e+04  2.2086859162968805e+04  2.1935575118415236e+04  2.1784291858722790e+04  2.1633009245022316e+04  2.1481727163194493e+04  2.1330445519402565e+04  2.1179164236448782e+04  2.1027883250797538e+04  2.0876602510139361e+04  2.0725321971394969e+04  2.0574041599078158e+04  2.0422761363951697e+04  2.0271481241922931e+04  2.0120201213135966e+04  1.9968921261224721e+04  1.9817641372698396e+04  1.9666361536435412e+04  1.9515081743266896e+04  1.9363801985633243e+04  1.9212522257301574e+04  1.9061242553132663e+04  1.8909962868888844e+04  1.8758683201075859e+04  1.8607403546812384e+04  1.8456123903722404e+04  1.8304844269846632e+04  1.8153564643569382e+04  1.8002285023558310e+04  1.7851005408714685e+04  1.7699725798132433e+04  1.7548446191064424e+04  1.7397166586894451e+04  1.7245886985114397e+04  1.7094607385305222e+04  1.6943327787121380e+04  1.6792048190277896e+04  1.6640768594539761e+04  1.6489488999713165e+04  1.6338209405638318e+04  1.6186929812183376e+04  1.6035650219239678e+04  1.5884370626717575e+04  1.5733091034543157e+04  1.5581811442655458e+04  1.5430531851004223e+04  1.5279252259547988e+04  1.5127972668252552e+04  1.4976693077089751e+04  1.4825413486036292e+04  1.4674133895073046e+04  1.4522854304184175e+04  1.4371574713356646e+04  1.4220295122579713e+04  1.4069015531844507e+04  1.3917735941143723e+04  1.3766456350471313e+04  1.3615176759822332e+04  1.3463897169192665e+04  1.3312617578578949e+04  1.3161337987978401e+04  1.3010058397388722e+04  1.2858778806808026e+04  1.2707499216234757e+04  1.2556219625667669e+04  1.2404940035105694e+04  1.2253660444547972e+04  1.2102380853993824e+04  1.1951101263442690e+04  1.1799821672894112e+04  1.1648542082347729e+04  1.1497262491803287e+04  1.1345982901260579e+04  1.1194703310719462e+04  1.1043423720179873e+04  1.0892144129641792e+04  1.0740864539105238e+04  1.0589584948570322e+04  1.0438305358037200e+04  1.0287025767506086e+04  1.0135746176977280e+04  9.9844665864511662e+03  9.8331869959282376e+03  9.6819074054090725e+03  9.5306278148944384e+03  9.3793482243852359e+03  9.2280686338825763e+03  9.0767890433878147e+03  8.9255094529026210e+03  8.7742298624289815e+03  8.6229502719693501e+03  8.4716706815266843e+03  8.3203910911045805e+03  8.1691115007074004e+03  8.0178319103404247e+03  7.8665523200100833e+03  7.7152727297241545e+03  7.5639931394920759e+03  7.4127135493252872e+03  7.2614339592376873e+03  7.1101543692461009e+03  6.9588747793709581e+03  6.8075951896370170e+03  6.6563156000743220e+03  6.5050360107193046e+03  6.3537564216161572e+03  6.2024768328184928e+03  6.0511972443913464e+03  5.8999176564136251e+03  5.7486380689810630e+03  5.5973584822098619e+03  5.4460788962410543e+03  5.2947993112458544e+03  5.1435197274321763e+03  4.9922401450525695e+03  4.8409605644139319e+03  4.6896809858893430e+03  4.5384014099326087e+03  4.3871218370960769e+03  4.2358422680525764e+03  4.0845627036224892e+03  3.9332831448072848e+03  3.7820035928312191e+03  3.6307240491934685e+03  3.4794445157336672e+03  3.3281649947149340e+03  3.1768854889297318e+03  3.0256060018363451e+03  2.8743265377365242e+03  2.7230471020096584e+03  2.5717677014257501e+03  2.4204883445704077e+03  2.2692090424322309e+03  2.1179298092309364e+03  1.9666506636112513e+03  1.8153716304077823e+03  1.6640927433278264e+03  1.5128140491655774e+03  1.3615356146322795e+03  1.2102575381755801e+03  1.0589799690618177e+03  9.0770315946273138e+02  7.5642743094783771e+02  6.0515426485368914e+02  4.5387865695684815e+02  3.0265834455504267e+02  1.5094314892734582e+02  4.3848259915227183e+00  3.4508653503370224e+04  3.4479452752126999e+04  3.2349465053787178e+04  2.4729280521557357e+04  2.4810588245186158e+04  2.4659286381096583e+04  2.4507884011954691e+04  2.4356503160243101e+04  2.4205138169428308e+04  2.4053788342062246e+04  2.3902451209264163e+04  2.3751124551541649e+04  2.3599806455505328e+04  2.3448495341186932e+04  2.3297189919410572e+04  2.3145889143061704e+04  2.2994592162192708e+04  2.2843298286270376e+04  2.2692006953413740e+04  2.2540717705645471e+04  2.2389430169058720e+04  2.2238144037921073e+04  2.2086859061908668e+04  2.1935575035825943e+04  2.1784291791302632e+04  2.1633009190068558e+04  2.1481727118491988e+04  2.1330445483133943e+04  2.1179164207121707e+04  2.1027883227185663e+04  2.0876602491234327e+04  2.0725321956367265e+04  2.0574041587245047e+04  2.0422761354751081e+04  2.0271481234891908e+04  2.0120201207893242e+04  1.9968921257456135e+04  1.9817641370145044e+04  1.9666361534883992e+04  1.9515081742541493e+04  1.9363801985588907e+04  1.9212522257818826e+04  1.9061242554112952e+04  1.8909962870250954e+04  1.8758683202752840e+04  1.8607403548748982e+04  1.8456123905873093e+04  1.8304844272173879e+04  1.8153564646042229e+04  1.8002285026151210e+04  1.7851005411406590e+04  1.7699725800905999e+04  1.7548446193905304e+04  1.7397166589790861e+04  1.7245886988056591e+04  1.7094607388285185e+04  1.6943327790132480e+04  1.6792048193314677e+04  1.6640768597597711e+04  1.6489489002788599e+04  1.6338209408728129e+04  1.6186929815285073e+04  1.6035650222351169e+04  1.5884370629837142e+04  1.5733091037669394e+04  1.5581811445787191e+04  1.5430531854140485e+04  1.5279252262687978e+04  1.5127972671395639e+04  1.4976693080235353e+04  1.4825413489184011e+04  1.4674133898222481e+04  1.4522854307335036e+04  1.4371574716508681e+04  1.4220295125732711e+04  1.4069015534998309e+04  1.3917735944298176e+04  1.3766456353626318e+04  1.3615176762977777e+04  1.3463897172348494e+04  1.3312617581735072e+04  1.3161337991134775e+04  1.3010058400545298e+04  1.2858778809964773e+04  1.2707499219391653e+04  1.2556219628824669e+04  1.2404940038262785e+04  1.2253660447705150e+04  1.2102380857151062e+04  1.1951101266599973e+04  1.1799821676051431e+04  1.1648542085505083e+04  1.1497262494960658e+04  1.1345982904417968e+04  1.1194703313876866e+04  1.1043423723337271e+04  1.0892144132799182e+04  1.0740864542262625e+04  1.0589584951727689e+04  1.0438305361194542e+04  1.0287025770663391e+04  1.0135746180134547e+04  9.9844665896083898e+03  9.8331869990853829e+03  9.6819074085661450e+03  9.5306278180514073e+03  9.3793482275420829e+03  9.2280686370392723e+03  9.0767890465443397e+03  8.9255094560589168e+03  8.7742298655850173e+03  8.6229502751250566e+03  8.4716706846819980e+03  8.3203910942594212e+03  8.1691115038616581e+03  8.0178319134939857e+03  7.8665523231627922e+03  7.7152727328758319e+03  7.5639931426425046e+03  7.4127135524741998e+03  7.2614339623847563e+03  7.1101543723909408e+03  6.9588747825130868e+03  6.8075951927758670e+03  6.6563156032091892e+03  6.5050360138493425e+03  6.3537564247403361e+03  6.2024768359355648e+03  6.0511972474997956e+03  5.8999176595116123e+03  5.7486380720663492e+03  5.5973584852797403e+03  5.4460788992922235e+03  5.2947993142743044e+03  5.1435197304330286e+03  4.9922401480198969e+03  4.8409605673404985e+03  4.6896809887663303e+03  4.5384014127492565e+03  4.3871218398392330e+03  4.2358422707061318e+03  4.0845627061666760e+03  3.9332831472177936e+03  3.7820035950780662e+03  3.6307240512395274e+03  3.4794445175327883e+03  3.3281649962094516e+03  3.1768854900471761e+03  3.0256060024849735e+03  2.8743265377992498e+03  2.7230471013355614e+03  2.5717676998180664e+03  2.4204883417691594e+03  2.2692090380885652e+03  2.1179298028682847e+03  1.9666506545649916e+03  1.8153716177286462e+03  1.6640927256228654e+03  1.5128140243202286e+03  1.3615355793558144e+03  1.2102574867965636e+03  1.0589798940744854e+03  9.0770302822045483e+02  7.5642733916937220e+02  6.0515306918462522e+02  4.5388532558497826e+02  3.0259561127039285e+02  1.5151158841306321e+02  -2.3254399159388439e-01  3.4507967077654954e+04  3.4479102209405108e+04  3.2349218021574543e+04  2.4729612949133952e+04  2.4810644870485910e+04  2.4659280646667448e+04  2.4507878740370143e+04  2.4356496588395854e+04  2.4205132452858743e+04  2.4053783534844300e+04  2.3902447255828167e+04  2.3751121320753911e+04  2.3599803820270947e+04  2.3448493191140700e+04  2.3297188163258528e+04  2.3145887706583409e+04  2.2994590985432093e+04  2.2843297320855392e+04  2.2692006160279187e+04  2.2540717053180477e+04  2.2389429631626212e+04  2.2238143594681747e+04  2.2086858695887353e+04  2.1935574733168945e+04  2.1784291540685052e+04  2.1633008982219468e+04  2.1481726945812716e+04  2.1330445339389997e+04  2.1179164087193454e+04  2.1027883126865952e+04  2.0876602407063729e+04  2.0725321885499750e+04  2.0574041527338282e+04  2.0422761303876567e+04  2.0271481191461462e+04  2.0120201170598568e+04  1.9968921225219343e+04  1.9817641342077906e+04  1.9666361510254450e+04  1.9515081720746195e+04  1.9363801966130482e+04  1.9212522240287235e+04  1.9061242538170151e+04  1.8909962855618262e+04  1.8758683189200437e+04  1.8607403536087408e+04  1.8456123893946133e+04  1.8304844260852675e+04  1.8153564635220566e+04  1.8002285015741487e+04  1.7851005401336577e+04  1.7699725791116136e+04  1.7548446184346467e+04  1.7397166580422523e+04  1.7245886978845367e+04  1.7094607379203524e+04  1.6943327781157666e+04  1.6792048184427967e+04  1.6640768588783671e+04  1.6489488994034476e+04  1.6338209400023426e+04  1.6186929806621121e+04  1.6035650213720826e+04  1.5884370621234515e+04  1.5733091029089610e+04  1.5581811437226261e+04  1.5430531845595096e+04  1.5279252254155414e+04  1.5127972662873635e+04  1.4976693071722077e+04  1.4825413480677922e+04  1.4674133889722316e+04  1.4522854298839758e+04  1.4371574708017437e+04  1.4220295117244799e+04  1.4069015526513142e+04  1.3917735935815266e+04  1.3766456345145263e+04  1.3615176754498269e+04  1.3463897163870235e+04  1.3312617573257865e+04  1.3161337982658419e+04  1.3010058392069654e+04  1.2858778801489718e+04  1.2707499210917067e+04  1.2556219620350483e+04  1.2404940029788915e+04  1.2253660439231533e+04  1.2102380848677663e+04  1.1951101258126744e+04  1.1799821667578333e+04  1.1648542077032085e+04  1.1497262486487743e+04  1.1345982895945095e+04  1.1194703305404018e+04  1.1043423714864441e+04  1.0892144124326334e+04  1.0740864533789734e+04  1.0589584943254747e+04  1.0438305352721514e+04  1.0287025762190262e+04  1.0135746171661265e+04  9.9844665811349223e+03  9.8331869906116972e+03  9.6819074000921773e+03  9.5306278095770977e+03  9.3793482190673567e+03  9.2280686285640404e+03  9.0767890380684821e+03  8.9255094475823116e+03  8.7742298571074934e+03  8.6229502666464250e+03  8.4716706762020185e+03  8.3203910857778010e+03  8.1691114953780589e+03  8.0178319050079845e+03  7.8665523146738706e+03  7.7152727243833715e+03  7.5639931341457450e+03  7.4127135439722415e+03  7.2614339538764825e+03  7.1101543638750109e+03  6.9588747739878736e+03  6.8075951842393888e+03  6.6563155946590541e+03  6.5050360052826372e+03  6.3537564161535356e+03  6.2024768273243762e+03  6.0511972388590248e+03  5.8999176508349447e+03  5.7486380633461222e+03  5.5973584765066435e+03  5.4460788904549427e+03  5.2947993053590826e+03  5.1435197214231412e+03  4.9922401388949766e+03  4.8409605580757488e+03  4.6896809793315097e+03  4.5384014031074530e+03  4.3871218299453294e+03  4.2358422605048881e+03  4.0845626955903208e+03  3.9332831361829762e+03  3.7820035834819810e+03  3.6307240389549297e+03  3.4794445044015256e+03  3.3281649820339726e+03  3.1768854745792528e+03  3.0256059854105170e+03  2.8743265187175311e+03  2.7230470797303387e+03  2.5717676750166920e+03  2.4204883128835454e+03  2.2692090039280497e+03  2.1179297618080241e+03  1.9666506043418560e+03  1.8153715551155026e+03  1.6640926458912547e+03  1.5128139203249787e+03  1.3615354398784702e+03  1.2102572936652793e+03  1.0589796147710213e+03  9.0770261459399308e+02  7.5642661032945193e+02  6.0515236515473134e+02  4.5387986214825236e+02  3.0261770823241375e+02  1.5138080866468374e+02  3.0142274559462862e-02  3.4507497356754895e+04  3.4478737048802286e+04  3.2348968010980785e+04  2.4729682100097420e+04  2.4810686717286550e+04  2.4659274983565803e+04  2.4507867262666416e+04  2.4356485286976800e+04  2.4205122605670560e+04  2.4053775332683017e+04  2.3902440523779238e+04  2.3751115825164539e+04  2.3599799339457375e+04  2.3448489535871024e+04  2.3297185177807023e+04  2.3145885264653396e+04  2.2994588985096114e+04  2.2843295679905292e+04  2.2692004812324936e+04  2.2540715944494252e+04  2.2389428718626277e+04  2.2238142841935773e+04  2.2086858074527994e+04  2.1935574219633316e+04  2.1784291115708595e+04  2.1633008630029635e+04  2.1481726653480589e+04  2.1330445096306816e+04  2.1179163884646896e+04  2.1027882957695991e+04  2.0876602265382604e+04  2.0725321766463443e+04  2.0574041426959913e+04  2.0422761218873598e+04  2.0271481119130469e+04  2.0120201108712587e+04  1.9968921171943519e+04  1.9817641295900237e+04  1.9666361469928772e+04  1.9515081685245375e+04  1.9363801934607862e+04  1.9212522212044772e+04  1.9061242512632423e+04  1.8909962832310786e+04  1.8758683167732037e+04  1.8607403516135542e+04  1.8456123875244815e+04  1.8304844243182622e+04  1.8153564618400924e+04  1.8002284999623127e+04  1.7851005385796543e+04  1.7699725776053001e+04  1.7548446169676612e+04  1.7397166566077012e+04  1.7245886964767305e+04  1.7094607365346030e+04  1.6943327767482064e+04  1.6792048170902362e+04  1.6640768575381771e+04  1.6489488980734579e+04  1.6338209386807659e+04  1.6186929793474728e+04  1.6035650200631642e+04  1.5884370608192514e+04  1.5733091016086524e+04  1.5581811424255255e+04  1.5430531832650553e+04  1.5279252241232687e+04  1.5127972649968904e+04  1.4976693058832192e+04  1.4825413467800268e+04  1.4674133876854759e+04  1.4522854285980524e+04  1.4371574695165067e+04  1.4220295104398085e+04  1.4069015513671089e+04  1.3917735922977061e+04  1.3766456332310241e+04  1.3615176741665849e+04  1.3463897151039979e+04  1.3312617560429378e+04  1.3161337969831400e+04  1.3010058379243837e+04  1.2858778788664886e+04  1.2707499198093061e+04  1.2556219607527133e+04  1.2404940016966115e+04  1.2253660426409184e+04  1.2102380835855663e+04  1.1951101245305028e+04  1.1799821654756848e+04  1.1648542064210769e+04  1.1497262473666551e+04  1.1345982883123999e+04  1.1194703292582968e+04  1.1043423702043397e+04  1.0892144111505268e+04  1.0740864520968615e+04  1.0589584930433524e+04  1.0438305339900151e+04  1.0287025749368704e+04  1.0135746158839476e+04  9.9844665683128133e+03  9.8331869777892025e+03  9.6819073872692170e+03  9.5306277967535516e+03  9.3793482062430994e+03  9.2280686157389136e+03  9.0767890252423058e+03  8.9255094347548493e+03  8.7742298442784740e+03  8.6229502538155157e+03  8.4716706633688173e+03  8.3203910729418167e+03  8.1691114825386985e+03  8.0178318921645223e+03  7.8665523018254435e+03  7.7152727115289208e+03  7.5639931212839901e+03  7.4127135311016218e+03  7.2614339409951162e+03  7.1101543509806115e+03  6.9588747610776672e+03  6.8075951713100085e+03  6.6563155817064217e+03  6.5050359923018004e+03  6.3537564031384791e+03  6.2024768142678149e+03  6.0511972257521084e+03  5.8999176376669220e+03  5.7486380501039512e+03  5.5973584631744752e+03  5.4460788770135186e+03  5.2947992917850033e+03  5.1435197076879231e+03  4.9922401249639852e+03  4.8409605439067727e+03  4.6896809648731041e+03  4.5384013882968275e+03  4.3871218147057434e+03  4.2358422447423945e+03  4.0845626791896939e+03  3.9332831190025427e+03  3.7820035653470536e+03  3.6307240196493735e+03  3.4794444836568277e+03  3.3281649595149270e+03  3.1768854498649398e+03  3.0256059579687708e+03  2.8743264878700543e+03  2.7230470446043191e+03  2.5717676344764777e+03  2.4204882654322423e+03  2.2692089475628272e+03  2.1179296938023194e+03  1.9666505209091745e+03  1.8153714508756398e+03  1.6640925129961593e+03  1.5128137469742564e+03  1.3615352077121736e+03  1.2102569728532517e+03  1.0589791552487529e+03  9.0770192227762925e+02  7.5642553816968120e+02  6.0515039696785914e+02  4.5387720322128024e+02  3.0260958660773377e+02  1.5133674188251584e+02  -2.5317070892258917e-03  3.4507118147344670e+04  3.4478398356566751e+04  3.2348708117159731e+04  2.4729641646449407e+04  2.4810685487224229e+04  2.4659260527485942e+04  2.4507849228125189e+04  2.4356468854234670e+04  2.4205108649632184e+04  2.4053763801740155e+04  2.3902431094080664e+04  2.3751108140058150e+04  2.3599793079232528e+04  2.3448484432459027e+04  2.3297181012288078e+04  2.3145881860043308e+04  2.2994586198744077e+04  2.2843293396804071e+04  2.2692002939595084e+04  2.2540714406955576e+04  2.2389427455279074e+04  2.2238141803172563e+04  2.2086857219921545e+04  2.1935573516176835e+04  2.1784290536410343e+04  2.1633008152786431e+04  2.1481726260171203e+04  2.1330444772059960e+04  2.1179163617248243e+04  2.1027882737106527e+04  2.0876602083346428e+04  2.0725321616187834e+04  2.0574041302853711e+04  2.0422761116333193e+04  2.0271481034364326e+04  2.0120201038597257e+04  1.9968921113905479e+04  1.9817641247818734e+04  1.9666361430055906e+04  1.9515081652140427e+04  1.9363801907083172e+04  1.9212522189121304e+04  1.9061242493502934e+04  1.8909962816309791e+04  1.8758683154310795e+04  1.8607403504841597e+04  1.8456123865705096e+04  1.8304844235089498e+04  1.8153564611500700e+04  1.8002284993706646e+04  1.7851005380691277e+04  1.7699725771616730e+04  1.7548446165792029e+04  1.7397166562647377e+04  1.7245886961712855e+04  1.7094607362600971e+04  1.6943327764992151e+04  1.6792048168622870e+04  1.6640768573275793e+04  1.6489488978771704e+04  1.6338209384962793e+04  1.6186929791727172e+04  1.6035650198964344e+04  1.5884370606591399e+04  1.5733091014539983e+04  1.5581811422753730e+04  1.5430531831186148e+04  1.5279252239798894e+04  1.5127972648560355e+04  1.4976693057444454e+04  1.4825413466429696e+04  1.4674133875498346e+04  1.4522854284635787e+04  1.4371574693829949e+04  1.4220295103070912e+04  1.4069015512350459e+04  1.3917735921661835e+04  1.3766456330999454e+04  1.3615176740358733e+04  1.3463897149735893e+04  1.3312617559127781e+04  1.3161337968531852e+04  1.3010058377945979e+04  1.2858778787368416e+04  1.2707499196797722e+04  1.2556219606232744e+04  1.2404940015672482e+04  1.2253660425116168e+04  1.2102380834563157e+04  1.1951101244012925e+04  1.1799821653465055e+04  1.1648542062919230e+04  1.1497262472375191e+04  1.1345982881832750e+04  1.1194703291291798e+04  1.1043423700752241e+04  1.0892144110214074e+04  1.0740864519677336e+04  1.0589584929142105e+04  1.0438305338608539e+04  1.0287025748076823e+04  1.0135746157547253e+04  9.9844665670201612e+03  9.8331869764960065e+03  9.6819073859753535e+03  9.5306277954588732e+03  9.3793482049474242e+03  9.2280686144420233e+03  9.0767890239439348e+03  8.9255094334546811e+03  8.7742298429761213e+03  8.6229502525105145e+03  8.4716706620605892e+03  8.3203910716296905e+03  8.1691114812218339e+03  8.0178318908419142e+03  7.8665523004958632e+03  7.7152727101908931e+03  7.5639931199357152e+03  7.4127135297409150e+03  7.2614339396193345e+03  7.1101543495865462e+03  6.9588747596614267e+03  6.8075951698668750e+03  6.6563155802306701e+03  6.5050359907864859e+03  6.3537564015751723e+03  6.2024768126462895e+03  6.0511972240599462e+03  5.8999176358890609e+03  5.7486380482220893e+03  5.5973584611663873e+03  5.4460788748522045e+03  5.2947992894376375e+03  5.1435197051145979e+03  4.9922401221161163e+03  4.8409605407252111e+03  4.6896809612857433e+03  4.5384013842156810e+03  4.3871218100233045e+03  4.2358422393270994e+03  4.0845626728802113e+03  3.9332831116006046e+03  3.7820035566083056e+03  3.6307240092716684e+03  3.4794444712650643e+03  3.3281649446412252e+03  3.1768854319224074e+03  3.0256059362163078e+03  2.8743264613644683e+03  2.7230470121341073e+03  2.5717675944686684e+03  2.4204882158188552e+03  2.2692088