<?xml version="1.0"?>
<VTKFile type="UnstructuredGrid"  version="0.1"  >
<UnstructuredGrid>
<Piece  NumberOfPoints="21400" NumberOfCells="42336">
<Points>
<DataArray  type="Float64"  NumberOfComponents="3"  format="ascii">0 0 0  0.004583333333333333 0 0  0.009166666666666667 0 0  0.01375 0 0  0.01833333333333333 0 0  0.02291666666666667 0 0  0.0275 0 0  0.03208333333333334 0 0  0.03666666666666667 0 0  0.04125 0 0  0.04583333333333334 0 0  0.05041666666666667 0 0  0.055 0 0  0.05958333333333334 0 0  0.06416666666666668 0 0  0.06875000000000001 0 0  0.07333333333333333 0 0  0.07791666666666666 0 0  0.08249999999999999 0 0  0.08708333333333333 0 0  0.09166666666666667 0 0  0.09625000000000002 0 0  0.1008333333333333 0 0  0.1054166666666667 0 0  0.11 0 0  0.1145833333333333 0 0  0.1191666666666667 0 0  0.12375 0 0  0.1283333333333334 0 0  0.1329166666666667 0 0  0.1375 0 0  0.1420833333333333 0 0  0.1466666666666667 0 0  0.15125 0 0  0.1558333333333333 0 0  0.1604166666666667 0 0  0.165 0 0  0.1695833333333333 0 0  0.1741666666666667 0 0  0.17875 0 0  0.1833333333333333 0 0  0.1879166666666667 0 0  0.1925 0 0  0.1970833333333333 0 0  0.2016666666666667 0 0  0.20625 0 0  0.2108333333333333 0 0  0.2154166666666666 0 0  0.22 0 0  0.2245833333333334 0 0  0.2291666666666667 0 0  0.23375 0 0  0.2383333333333333 0 0  0.2429166666666667 0 0  0.2475 0 0  0.2520833333333333 0 0  0.2566666666666667 0 0  0.26125 0 0  0.2658333333333334 0 0  0.2704166666666666 0 0  0.275 0 0  0.2795833333333334 0 0  0.2841666666666667 0 0  0.28875 0 0  0.2933333333333333 0 0  0.2979166666666667 0 0  0.3025 0 0  0.3070833333333334 0 0  0.3116666666666666 0 0  0.31625 0 0  0.3208333333333333 0 0  0.3254166666666667 0 0  0.33 0 0  0.3345833333333333 0 0  0.3391666666666667 0 0  0.34375 0 0  0.3483333333333333 0 0  0.3529166666666667 0 0  0.3575 0 0  0.3620833333333333 0 0  0.3666666666666667 0 0  0.37125 0 0  0.3758333333333334 0 0  0.3804166666666667 0 0  0.3850000000000001 0 0  0.3895833333333333 0 0  0.3941666666666667 0 0  0.39875 0 0  0.4033333333333334 0 0  0.4079166666666666 0 0  0.4125 0 0  0.4170833333333334 0 0  0.4216666666666667 0 0  0.42625 0 0  0.4308333333333333 0 0  0.4354166666666667 0 0  0.44 0 0  0.4445833333333333 0 0  0.4491666666666667 0 0  0.45375 0 0  0.4583333333333333 0 0  0.4629166666666666 0 0  0.4675 0 0  0.4720833333333334 0 0  0.4766666666666667 0 0  0.4812500000000001 0 0  0.4858333333333333 0 0  0.4904166666666667 0 0  0.495 0 0  0.4995833333333334 0 0  0.5041666666666667 0 0  0.50875 0 0  0.5133333333333334 0 0  0.5179166666666667 0 0  0.5225 0 0  0.5270833333333333 0 0  0.5316666666666667 0 0  0.53625 0 0  0.5408333333333333 0 0  0.5454166666666667 0 0  0.55 0 0  0.5545833333333333 0 0  0.5591666666666667 0 0  0.5637500000000001 0 0  0.5683333333333334 0 0  0.5729166666666666 0 0  0.5775 0 0  0.5820833333333334 0 0  0.5866666666666667 0 0  0.5912499999999999 0 0  0.5958333333333334 0 0  0.6004166666666667 0 0  0.605 0 0  0.6095833333333334 0 0  0.6141666666666667 0 0  0.61875 0 0  0.6233333333333333 0 0  0.6279166666666667 0 0  0.6325000000000001 0 0  0.6370833333333333 0 0  0.6416666666666666 0 0  0.64625 0 0  0.6508333333333334 0 0  0.6554166666666666 0 0  0.6599999999999999 0 0  0.6645833333333334 0 0  0.6691666666666667 0 0  0.67375 0 0  0.6783333333333333 0 0  0.6829166666666667 0 0  0.6875 0 0  0.6920833333333333 0 0  0.6966666666666667 0 0  0.70125 0 0  0.7058333333333333 0 0  0.7104166666666667 0 0  0.7150000000000001 0 0  0.7195833333333334 0 0  0.7241666666666666 0 0  0.72875 0 0  0.7333333333333334 0 0  0.7379166666666667 0 0  0.7425 0 0  0.7470833333333333 0 0  0.7516666666666667 0 0  0.75625 0 0  0.7608333333333334 0 0  0.7654166666666666 0 0  0.7700000000000001 0 0  0 0.002380952380952381 0  0.004583333333333333 0.002380952380952381 0  0.009166666666666667 0.002380952380952381 0  0.01375 0.002380952380952381 0  0.01833333333333333 0.002380952380952381 0  0.02291666666666667 0.002380952380952381 0  0.0275 0.002380952380952381 0  0.03208333333333334 0.002380952380952381 0  0.03666666666666667 0.002380952380952381 0  0.04125 0.002380952380952381 0  0.04583333333333334 0.002380952380952381 0  0.05041666666666667 0.002380952380952381 0  0.055 0.002380952380952381 0  0.05958333333333334 0.002380952380952381 0  0.06416666666666668 0.002380952380952381 0  0.06875000000000001 0.002380952380952381 0  0.07333333333333333 0.002380952380952381 0  0.07791666666666666 0.002380952380952381 0  0.08249999999999999 0.002380952380952381 0  0.08708333333333333 0.002380952380952381 0  0.09166666666666667 0.002380952380952381 0  0.09625000000000002 0.002380952380952381 0  0.1008333333333333 0.002380952380952381 0  0.1054166666666667 0.002380952380952381 0  0.11 0.002380952380952381 0  0.1145833333333333 0.002380952380952381 0  0.1191666666666667 0.002380952380952381 0  0.12375 0.002380952380952381 0  0.1283333333333334 0.002380952380952381 0  0.1329166666666667 0.002380952380952381 0  0.1375 0.002380952380952381 0  0.1420833333333333 0.002380952380952381 0  0.1466666666666667 0.002380952380952381 0  0.15125 0.002380952380952381 0  0.1558333333333333 0.002380952380952381 0  0.1604166666666667 0.002380952380952381 0  0.165 0.002380952380952381 0  0.1695833333333333 0.002380952380952381 0  0.1741666666666667 0.002380952380952381 0  0.17875 0.002380952380952381 0  0.1833333333333333 0.002380952380952381 0  0.1879166666666667 0.002380952380952381 0  0.1925 0.002380952380952381 0  0.1970833333333333 0.002380952380952381 0  0.2016666666666667 0.002380952380952381 0  0.20625 0.002380952380952381 0  0.2108333333333333 0.002380952380952381 0  0.2154166666666666 0.002380952380952381 0  0.22 0.002380952380952381 0  0.2245833333333334 0.002380952380952381 0  0.2291666666666667 0.002380952380952381 0  0.23375 0.002380952380952381 0  0.2383333333333333 0.002380952380952381 0  0.2429166666666667 0.002380952380952381 0  0.2475 0.002380952380952381 0  0.2520833333333333 0.002380952380952381 0  0.2566666666666667 0.002380952380952381 0  0.26125 0.002380952380952381 0  0.2658333333333334 0.002380952380952381 0  0.2704166666666666 0.002380952380952381 0  0.275 0.002380952380952381 0  0.2795833333333334 0.002380952380952381 0  0.2841666666666667 0.002380952380952381 0  0.28875 0.002380952380952381 0  0.2933333333333333 0.002380952380952381 0  0.2979166666666667 0.002380952380952381 0  0.3025 0.002380952380952381 0  0.3070833333333334 0.002380952380952381 0  0.3116666666666666 0.002380952380952381 0  0.31625 0.002380952380952381 0  0.3208333333333333 0.002380952380952381 0  0.3254166666666667 0.002380952380952381 0  0.33 0.002380952380952381 0  0.3345833333333333 0.002380952380952381 0  0.3391666666666667 0.002380952380952381 0  0.34375 0.002380952380952381 0  0.3483333333333333 0.002380952380952381 0  0.3529166666666667 0.002380952380952381 0  0.3575 0.002380952380952381 0  0.3620833333333333 0.002380952380952381 0  0.3666666666666667 0.002380952380952381 0  0.37125 0.002380952380952381 0  0.3758333333333334 0.002380952380952381 0  0.3804166666666667 0.002380952380952381 0  0.3850000000000001 0.002380952380952381 0  0.3895833333333333 0.002380952380952381 0  0.3941666666666667 0.002380952380952381 0  0.39875 0.002380952380952381 0  0.4033333333333334 0.002380952380952381 0  0.4079166666666666 0.002380952380952381 0  0.4125 0.002380952380952381 0  0.4170833333333334 0.002380952380952381 0  0.4216666666666667 0.002380952380952381 0  0.42625 0.002380952380952381 0  0.4308333333333333 0.002380952380952381 0  0.4354166666666667 0.002380952380952381 0  0.44 0.002380952380952381 0  0.4445833333333333 0.002380952380952381 0  0.4491666666666667 0.002380952380952381 0  0.45375 0.002380952380952381 0  0.4583333333333333 0.002380952380952381 0  0.4629166666666666 0.002380952380952381 0  0.4675 0.002380952380952381 0  0.4720833333333334 0.002380952380952381 0  0.4766666666666667 0.002380952380952381 0  0.4812500000000001 0.002380952380952381 0  0.4858333333333333 0.002380952380952381 0  0.4904166666666667 0.002380952380952381 0  0.495 0.002380952380952381 0  0.4995833333333334 0.002380952380952381 0  0.5041666666666667 0.002380952380952381 0  0.50875 0.002380952380952381 0  0.5133333333333334 0.002380952380952381 0  0.5179166666666667 0.002380952380952381 0  0.5225 0.002380952380952381 0  0.5270833333333333 0.002380952380952381 0  0.5316666666666667 0.002380952380952381 0  0.53625 0.002380952380952381 0  0.5408333333333333 0.002380952380952381 0  0.5454166666666667 0.002380952380952381 0  0.55 0.002380952380952381 0  0.5545833333333333 0.002380952380952381 0  0.5591666666666667 0.002380952380952381 0  0.5637500000000001 0.002380952380952381 0  0.5683333333333334 0.002380952380952381 0  0.5729166666666666 0.002380952380952381 0  0.5775 0.002380952380952381 0  0.5820833333333334 0.002380952380952381 0  0.5866666666666667 0.002380952380952381 0  0.5912499999999999 0.002380952380952381 0  0.5958333333333334 0.002380952380952381 0  0.6004166666666667 0.002380952380952381 0  0.605 0.002380952380952381 0  0.6095833333333334 0.002380952380952381 0  0.6141666666666667 0.002380952380952381 0  0.61875 0.002380952380952381 0  0.6233333333333333 0.002380952380952381 0  0.6279166666666667 0.002380952380952381 0  0.6325000000000001 0.002380952380952381 0  0.6370833333333333 0.002380952380952381 0  0.6416666666666666 0.002380952380952381 0  0.64625 0.002380952380952381 0  0.6508333333333334 0.002380952380952381 0  0.6554166666666666 0.002380952380952381 0  0.6599999999999999 0.002380952380952381 0  0.6645833333333334 0.002380952380952381 0  0.6691666666666667 0.002380952380952381 0  0.67375 0.002380952380952381 0  0.6783333333333333 0.002380952380952381 0  0.6829166666666667 0.002380952380952381 0  0.6875 0.002380952380952381 0  0.6920833333333333 0.002380952380952381 0  0.6966666666666667 0.002380952380952381 0  0.70125 0.002380952380952381 0  0.7058333333333333 0.002380952380952381 0  0.7104166666666667 0.002380952380952381 0  0.7150000000000001 0.002380952380952381 
[...]
<PointData  Scalars="pressure"> 
<DataArray  type="Float64"  Name="pressure"  format="ascii">2.2466490915102815e+04  2.2436795700374256e+04  2.2409585578978120e+04  2.2380996233240810e+04  2.2351122169781323e+04  2.2315745525435468e+04  2.2283048966133807e+04  2.2250325329450596e+04  2.2214748734232278e+04  2.2185522414984745e+04  2.2161726639503235e+04  2.2135391298555511e+04  2.2108301190788705e+04  2.2080870123123361e+04  2.2053249739401283e+04  2.2025485673267216e+04  2.1997542155140072e+04  2.1969326447942876e+04  2.1940799275714307e+04  2.1912127117993594e+04  2.1883574501482886e+04  2.1855216282588161e+04  2.1827079912097273e+04  2.1800454004428375e+04  1.5860742240412275e+04  1.5833270846033307e+04  1.5809166896226447e+04  1.5785218192406510e+04  1.5761198423267457e+04  1.5736791756293564e+04  1.5711895207249727e+04  1.5686613865126570e+04  1.5661136131751973e+04  1.5635572637744266e+04  1.5609885136202702e+04  1.5583956830143126e+04  1.5557717386861001e+04  1.5531208613344110e+04  1.5504681256545484e+04  1.5479567072281512e+04  1.5447351034949459e+04  1.5416392789177049e+04  1.5384984246564818e+04  1.5353065115034968e+04  1.5320261957818304e+04  1.5287027008321900e+04  1.5253237442248079e+04  1.5219285222680899e+04  1.5185346757718673e+04  1.5151600368781346e+04  1.5118528916269001e+04  1.5086029997119613e+04  1.5054864838434238e+04  1.5024540029564118e+04  1.4994589492260948e+04  1.4963783630950262e+04  1.4931198231095417e+04  1.4897411708520362e+04  1.4865731813504253e+04  1.4830639858129922e+04  1.4800677578329698e+04  1.4770377282212739e+04  1.4736761172388200e+04  1.4699021192800214e+04  1.4658406705557700e+04  1.4616084495817951e+04  1.4573232762387404e+04  1.4530884933882844e+04  1.4488062884724284e+04  1.4444612934501671e+04  1.4402188704115142e+04  1.4361380184024547e+04  1.4320168227310060e+04  1.4262563803845966e+04  1.4147257417163120e+04  1.4001903166326574e+04  1.3854311803597315e+04  1.3707780812182076e+04  1.3561278299503037e+04  1.3414291240144226e+04  1.3266667819547283e+04  1.3118424758666515e+04  1.2969642741257090e+04  1.2820416764474357e+04  1.2670835432672004e+04  1.2520973954510902e+04  1.2370893229540236e+04  1.2220641336379849e+04  1.2070255723750814e+04  1.1919765376447413e+04  1.1769192688299187e+04  1.1618554981534247e+04  1.1467865697297830e+04  1.1317135310452431e+04  1.1166372025110035e+04  1.1015582300908654e+04  1.0864771250866650e+04  1.0713942942714417e+04  1.0563100627991304e+04  1.0412246917120292e+04  1.0261383914001492e+04  1.0110513320152671e+04  9.9596365158191820e+03  9.8087546235572736e+03  9.6578685583881324e+03  9.5069790675888635e+03  9.3560867624295952e+03  9.2051921436080229e+03  9.0542956217197225e+03  8.9033975337945067e+03  8.7524981566980550e+03  8.6015977180233658e+03  8.4506964049632224e+03  8.2997943715525598e+03  8.1488917445903317e+03  7.9979886284886043e+03  7.8470851092480298e+03  7.6961812577203609e+03  7.5452771322881663e+03  7.3943727810674009e+03  7.2434682437189304e+03  7.0925635529391084e+03  6.9416587356869222e+03  6.7907538141945861e+03  6.6398488068001598e+03  6.4889437286337698e+03  6.3380385921834159e+03  6.1871334077617439e+03  6.0362281838913186e+03  5.8853229276229031e+03  5.7344176447987211e+03  5.5835123402705849e+03  5.4326070180809475e+03  5.2817016816138303e+03  5.1307963337212041e+03  4.9798909768295161e+03  4.8289856130304561e+03  4.6780802441593405e+03  4.5271748718641447e+03  4.3762694976677685e+03  4.2253641230260573e+03  4.0744587493839185e+03  3.9235533782319217e+03  3.7726480111658798e+03  3.6217426499523031e+03  3.4708372966031548e+03  3.3199319534641199e+03  3.1690266233218276e+03  3.0181213095374746e+03  2.8672160162169052e+03  2.7163107484314769e+03  2.5654055125103937e+03  2.4145003164351442e+03  2.2635951703824903e+03  2.1126900874879188e+03  1.9617850849443639e+03  1.8108801856243260e+03  1.6599754205430386e+03  1.5090708327245277e+03  1.3581664834555386e+03  1.2072624631344049e+03  1.0563589084349612e+03  9.0545605182154702e+02  7.5455417463637627e+02  6.0365472221213463e+02  4.5275236492065881e+02  3.0190539286068491e+02  1.5056425469014624e+02  4.2690987383527919e+00  2.2464838444236317e+04  2.2436479094249837e+04  2.2410455741637685e+04  2.2379227200363090e+04  1.6280820157070611e+04  1.6255974241566812e+04  1.6232398573098419e+04  1.6208806505639870e+04  1.6183910494143161e+04  2.2186206014891217e+04  2.2161919638265957e+04  2.2135458528284296e+04  2.2108335133462933e+04  2.2080888925068892e+04  2.2053263929681383e+04  2.2025503862679394e+04  2.1997572327802005e+04  2.1969364838828333e+04  2.1940817938238837e+04  2.1912108361310125e+04  2.1883553248748201e+04  2.1855195060292601e+04  2.1827040084818986e+04  2.1799757700742604e+04  2.1770886117437927e+04  2.1735185711444239e+04  2.1702037416553321e+04  2.1669206141818475e+04  2.1636272769066120e+04  2.1602780239536962e+04  2.1568588972564354e+04  2.1533858888409057e+04  2.1498869974534693e+04  2.1463783485681106e+04  2.1428536927259556e+04  2.1392953263363561e+04  2.1356927485108303e+04  2.1320522606143753e+04  2.1283976330777117e+04  2.1249271786519690e+04  1.5447183174972708e+04  2.1162959561381627e+04  1.5385077895378412e+04  2.1076020837333926e+04  1.5320343226181019e+04  2.0985346023527189e+04  1.5253265172592566e+04  2.0892318951062898e+04  1.5185304198143820e+04  2.0799364239597020e+04  1.5118411641212275e+04  2.0709309736811963e+04  1.5054687793396102e+04  2.0624931118975295e+04  1.4994781797160043e+04  2.0541666203163557e+04  1.4931453408607678e+04  2.0450477409549374e+04  1.4864517595655263e+04  1.4830113993572315e+04  1.4800758634535177e+04  1.4770773459508726e+04  1.4737272641782411e+04  1.4699323844485021e+04  1.4658601738149526e+04  1.4616158195237567e+04  1.4573110300251758e+04  1.4530969879899068e+04  1.4488184978257323e+04  1.4444477928149938e+04  1.4401957846423622e+04  1.4361307687632705e+04  1.4320661858405429e+04  1.4271547279380626e+04  1.4149926851788639e+04  1.4001664959283849e+04  1.3854194645113123e+04  1.3707789078808921e+04  1.3561337062069853e+04  1.3414363430742163e+04  1.3266736439955335e+04  1.3118483784422528e+04  1.2969691072621494e+04  1.2820455319169170e+04  1.2670865769212403e+04  1.2520997672103791e+04  1.2370911737886423e+04  1.2220655794550761e+04  1.2070267050275414e+04  1.1919774284589514e+04  1.1769199725992246e+04  1.1618560567704690e+04  1.1467870151992618e+04  1.1317138878652891e+04  1.1166374895046585e+04  1.1015584617925570e+04  1.0864773127828430e+04  1.0713944467787609e+04  1.0563101870462247e+04  1.0412247931754446e+04  1.0261384744323415e+04  1.0110514000927471e+04  9.9596370749417547e+03  9.8087550835006696e+03  9.6578689373218331e+03  9.5069793802483873e+03  9.3560870207973621e+03  9.2051923574499451e+03  9.0542957990106515e+03  8.9033976810573404e+03  8.7524982792754745e+03  8.6015978202964016e+03  8.4506964905278273e+03  8.2997944433626490e+03  8.1488918050740394e+03  7.9979886796429664e+03  7.8470851527162667e+03  7.6961812948550678e+03  7.5452771642030366e+03  7.3943728086796464e+03  7.2434682677840665e+03  7.0925635740795551e+03  6.9416587544154563e+03  6.7907538309336715e+03  6.6398488218978218e+03  6.4889437423766458e+03  6.3380386048075143e+03  6.1871334194612746e+03  6.0362281948259606e+03  5.8853229379237782e+03  5.7344176545732989e+03  5.5835123496066835e+03  5.4326070270500168e+03  5.2817016902736214e+03  5.1307963421179056e+03  4.9798909849994834e+03  4.8289856210015450e+03  4.6780802519519339e+03  4.5271748794918758e+03  4.3762695051379969e+03  4.2253641303400709e+03  4.0744587565369006e+03  3.9235533852126241e+03  3.7726480179559981e+03  3.6217426565254914e+03  3.4708373029235795e+03  3.3199319594844351e+03  3.1690266289803621e+03  3.0181213147543467e+03  2.8672160208886298e+03  2.7163107524233801e+03  2.5654055156457985e+03  2.4145003184797042e+03  2.2635951710209802e+03  2.1126900862890993e+03  1.9617850813063897e+03  1.8108801786873419e+03  1.6599754090454819e+03  1.5090708147512223e+03  1.3581664560340762e+03  1.2072624210996603e+03  1.0563588453177329e+03  9.0545593586449752e+02  7.5455411040777699e+02  6.0365354133430787e+02  4.5275922149249845e+02  3.0184260112685234e+02  1.5112639399004198e+02  -2.3169241531361859e-01  2.2463683058241466e+04  2.2435616407494832e+04  2.2408991403032720e+04  2.2376271656637651e+04  2.2347251633828531e+04  2.2314753294052513e+04  2.2283063656044062e+04  2.2251371763707895e+04  2.2218889573373268e+04  2.2188513132680877e+04  2.2162458212833393e+04  2.2135690044310231e+04  2.2108447410087927e+04  2.2080952176852421e+04  2.2053311035757190e+04  2.2025564485201707e+04  2.1997677007137441e+04  2.1969506592786001e+04  2.1940891056271135e+04  2.1912028633808117e+04  2.1883475675234171e+04  2.1855144783926135e+04  2.1826835519503667e+04  2.1798440933048525e+04  2.1768351216332274e+04  2.1735133936409486e+04  2.1701947538593944e+04  2.1669229100336612e+04  2.1636392933849162e+04  2.1602926090183984e+04  2.1568698166741866e+04  2.1533905253608918e+04  2.1498881442052349e+04  2.1463811152807379e+04  2.1428605598863418e+04  2.1393044694790264e+04  2.1357007638691015e+04  2.1320551076836095e+04  2.1283911484858581e+04  2.1247645058849528e+04  2.1205238934413221e+04  2.1163045127523426e+04  2.1120109790375045e+04  2.1076146065217843e+04  2.1031211856173857e+04  2.0985411816399028e+04  2.0939025684371547e+04  2.0892289100764829e+04  2.0845594969468013e+04  2.0799225775146613e+04  2.0753621672422760e+04  2.0709063377453360e+04  2.0665998397992364e+04  2.0624739827260059e+04  2.0584686943869958e+04  2.0541823909416951e+04  2.0497822655857417e+04  2.0450562760745128e+04  2.0402359248094188e+04  2.0356851365139588e+04  2.0318083143972221e+04  2.0277519070274149e+04  2.0231940983258981e+04  2.0179115406882793e+04  2.0123054650393638e+04  2.0064599424928274e+04  2.0004751298923387e+04  1.9947692820388624e+04  1.9889043553405409e+04  1.9828288641110365e+04  1.9769638387709543e+04  1.9714614957302441e+04  1.9659092029238862e+04  1.9605031062244820e+04  1.4155705106946851e+04  1.4000596376926198e+04  1.3853843347857945e+04  1.3707833588118679e+04  1.3561550257461708e+04  1.3414617039199624e+04  1.3266975082344910e+04  1.3118688043371667e+04  1.2969857876999602e+04  1.2820588176248652e+04  1.2670970212099157e+04  1.2521079283855155e+04  1.2370975405389518e+04  1.2220705521178112e+04  1.2070306001981926e+04  1.1919804916830666e+04  1.1769223923742937e+04  1.1618579771610577e+04  1.1467885462509816e+04  1.1317151138142814e+04  1.1166384750811429e+04  1.1015592569880695e+04  1.0864779564262790e+04  1.0713949692096936e+04  1.0563106121132871e+04  1.0412251397337928e+04  1.0261387574705292e+04  1.0110516315854222e+04  9.9596389705146066e+03  9.8087566371554040e+03  9.6578702116749319e+03  9.5069804260887831e+03  9.3560878794296077e+03  9.2051930625413843e+03  9.0542963780562859e+03  8.9033981565479098e+03  8.7524986696333799e+03  8.6015981406289120e+03  8.4506967532354738e+03  8.2997946586322960e+03  8.1488919812795721e+03  7.9979888236717070e+03  7.8470852702354214e+03  7.6961813905295858e+03  7.5452772418739887e+03  7.3943728715104662e+03  7.2434683183805564e+03  7.0925636145884291e+03  6.9416587866053324e+03  6.7907538562616501e+03  6.6398488415642496e+03  6.4889437573701662e+03  6.3380386159421241e+03  6.1871334274068113e+03  6.0362282001331660e+03  5.8853229410448894e+03  5.7344176558789450e+03  5.5835123493997307e+03  5.4326070255768682e+03  5.2817016877334027e+03  5.1307963386698757e+03  4.9798909807689488e+03  4.8289856160844911e+03  4.6780802464185399e+03  4.5271748733890345e+03  4.3762694984909122e+03  4.2253641231529964e+03  4.0744587487929689e+03  3.9235533768727464e+03  3.7726480089566999e+03  3.6217426467754917e+03  3.4708372922988046e+03  3.3199319478210255e+03  3.1690266160649721e+03  3.0181213003107659e+03  2.8672160045591868e+03  2.7163107337428510e+03  2.5654054940042570e+03  2.4145002930687156e+03  2.2635951407540597e+03  2.1126900496814587e+03  1.9617850362884128e+03  1.8108801223069904e+03  1.6599753369775535e+03  1.5090707204625282e+03  1.3581663292705048e+03  1.2072622452907665e+03  1.0563585906811509e+03  9.0545555968335043e+02  7.5455344086698256e+02  6.0365294568151717e+02  4.5275398428447755e+02  3.0186470206852823e+02  1.5100001878826228e+02  3.0504525909051696e-02  2.2462562954932313e+04  2.2434499736890284e+04  2.2406208883369407e+04  2.2375853423784345e+04  2.2345695916232340e+04  2.2314409544187842e+04  2.2283064610335259e+04  2.2251747045139942e+04  2.2220457248289029e+04  2.2190725185176925e+04  2.2163238542226740e+04  2.2136037521560280e+04  2.2108624200706057e+04  2.2081052251535890e+04  2.2053383691526004e+04  2.2025658110890261e+04  2.1997854327834040e+04  2.1969783472727260e+04  2.1941062801629552e+04  2.1911815638153847e+04  2.1883339024326604e+04  2.1855109709240856e+04  2.1826588996682240e+04  2.1797465317591643e+04  2.1767058203384699e+04  2.1734817049776637e+04  2.1701726173896732e+04  2.1669285873973698e+04  2.1636703092910167e+04  2.1603290993515602e+04  2.1568966967759960e+04  2.1534006050785189e+04  2.1498891818898308e+04  2.1463869125231242e+04  2.1428775657597358e+04  2.1393273539700378e+04  2.1357204200557710e+04  2.1320652587882745e+04  2.1283724322267266e+04  2.1246014042611354e+04  2.1205270957671204e+04  2.1163353965860759e+04  2.1120478473566680e+04  2.1076516997285049e+04  2.1031516802811799e+04  2.0985644043945023e+04  2.0939139202099890e+04  2.0892295920740547e+04  2.0845459464039137e+04  2.0798972851978098e+04  2.0753222411547038e+04  2.0708545585229112e+04  2.0665349884312862e+04  2.0623981182001236e+04  2.0586355129291333e+04  2.0541815841671269e+04  2.0499135125420857e+04  2.0451299586556343e+04  2.0398052430814074e+04  2.0354772515313951e+04  2.0318905121566189e+04  2.0278772687283046e+04  2.0234742787638603e+04  2.0179732903286382e+04  2.0123733445403181e+04  2.0065342188439656e+04  2.0003067406872960e+04  1.9948543533938173e+04  1.9889828000555503e+04  1.9827620078369011e+04  1.9768322089113855e+04  1.9714827864399304e+04  1.9660405857756683e+04  1.9605650755223705e+04  1.4152867595307644e+04  1.3998799248514386e+04  1.3853324980973788e+04  1.3707981770487022e+04  1.3561950247948298e+04  1.3415066372651811e+04  1.3267389041170580e+04  1.3119038736348361e+04  1.2970142661334105e+04  1.2820814276041823e+04  1.2671147631035015e+04  1.2521217782876065e+04  1.2371083404084979e+04  1.2220789863777774e+04  1.2070372077016440e+04  1.1919856892549327e+04  1.1769264995092064e+04  1.1618612378440523e+04  1.1467911467923170e+04  1.1317171968286266e+04  1.1166401501840030e+04  1.1015606088679335e+04  1.0864790508920218e+04  1.0713958577083064e+04  1.0563113351061258e+04  1.0412257292266630e+04  1.0261392389181417e+04  1.0110520253331173e+04  9.9596421943375917e+03  9.8087592789908867e+03  9.6578723780252494e+03  9.5069822033628479e+03  9.3560893379168447e+03  9.2051942595462278e+03  9.0542973603853789e+03  8.9033989624943206e+03  8.7524993305671796e+03  8.6015986822777031e+03  8.4506971967191002e+03  8.2997950213016447e+03  8.1488922773983850e+03  7.9979890649721601e+03  7.8470854663716800e+03  7.6961815494487137e+03  7.5452773701197048e+03  7.3943729744721759e+03  7.2434684004977353e+03  7.0925636795184691e+03  6.9416588373614904e+03  6.7907538953264693e+03  6.6398488709828471e+03  6.4889437788269724e+03  6.3380386308240204e+03  6.1871334368550624e+03  6.0362282050861240e+03  5.8853229422730774e+03  5.7344176540138415e+03  5.5835123449573603e+03  5.4326070189770453e+03  5.2817016793153953e+03  5.1307963287050243e+03  4.9798909694707463e+03  4.8289856036164692e+03  4.6780802329002636e+03  4.5271748589003992e+03  4.3762694830748778e+03  4.2253641068168354e+03  4.0744587315079971e+03  3.9235533585724656e+03  3.7726479895331395e+03  3.6217426260734187e+03  3.4708372701073044e+03  3.3199319238616799e+03  3.1690265899755168e+03  3.0181212716225382e+03  2.8672159726658701e+03  2.7163106978566989e+03  2.5654054530939193e+03  2.4145002457694191e+03  2.2635950852352858e+03  2.1126899834476176e+03  1.9617849558710718e+03  1.8108800227762974e+03  1.6599752111425230e+03  1.5090705575137176e+03  1.3581661124003922e+03  1.2072619472066376e+03  1.0563581656999490e+03  9.0545492169841202e+02  7.5455245847704987e+02  6.0365113932681595e+02  4.5275160913426600e+02  3.0185741348471981e+02  1.5095887908652355e+02  -2.4393846958662441e-03  2.2461437600120753e+04  2.2433212738605303e+04  2.2404529148815891e+04  2.2374819430153813e+04  2.2344677539755918e+04  2.2313965473688255e+04  2.2283061212734356e+04  2.2252197466166570e+04  2.2221641439245926e+04  2.2192179962769769e+04  2.2164063725544227e+04  2.2136446583432713e+04  2.2108843536333283e+04  2.2081177513686835e+04  2.2053469994136976e+04  2.2025765595421235e+04  2.1998092615592846e+04  2.1970239611866909e+04  2.1941496376943174e+04  2.1911233021974309e+04  2.1883175149649582e+04  2.1855162127057021e+04  2.1826483768323898e+04  2.1796824952679315e+04  2.1766343948981113e+04  2.1734792716470682e+04  2.1701149490604988e+04  2.1669429551267269e+04  2.1637258335264007e+04  2.1603915896968407e+04  2.1569420550033847e+04  2.1534134986651319e+04  2.1498857620007711e+04  2.1463937975028046e+04  2.1429065599020501e+04  2.1393669891765221e+04  2.1357525315712795e+04  2.1320867119407867e+04  2.1283578003578194e+04  2.1245452412929160e+04  2.1205459380489076e+04  2.1163930848715449e+04  2.1121150697704139e+04  2.1077163660540198e+04  2.1032064512554822e+04  2.0986040735215465e+04  2.0939348031035268e+04  2.0892295000004156e+04  2.0845229877229209e+04  2.0798516542092460e+04  2.0752530735969962e+04  2.0707629626642472e+04  2.0664190716394285e+04  2.0622653411865125e+04  2.0584848915280756e+04  2.0541874737939725e+04  2.0503904055995652e+04  1.4899701155348912e+04  1.4857231974266739e+04  2.0351617932438065e+04  2.0319294834446802e+04  1.4773932937936586e+04  1.4744834599291029e+04  1.4704508629010155e+04  1.4663493980440191e+04  1.4620605390757504e+04  1.4573672040912559e+04  1.4534353804790193e+04  1.4491836048153431e+04  1.4445339907868269e+04  1.9767633811700889e+04  1.9715233252435984e+04  1.9661788759249463e+04  1.4268996607330495e+04  1.4140322885731501e+04  1.3996389838165551e+04  1.3852827511660225e+04  1.3708342134206217e+04  1.3562587318391554e+04  1.3415731959714722e+04  1.3267984691667963e+04  1.3119536060750168e+04  1.2970543273532461e+04  1.2821130864632596e+04  1.2671395403833561e+04  1.2521410935599497e+04  1.2371233933777392e+04  1.2220907415211135e+04  1.2070464194695816e+04  1.1919929390063497e+04  1.1769322318628947e+04  1.1618657919424277e+04  1.1467947814941717e+04  1.1317201102921128e+04  1.1166424947746194e+04  1.1015625023735334e+04  1.0864805849090348e+04  1.0713971039005140e+04  1.0563123498804305e+04  1.0412265572374095e+04  1.0261399157061225e+04  1.0110525793247474e+04  9.9596467346571535e+03  9.8087630038930492e+03  9.6578754365609748e+03  9.5069847165128849e+03  9.3560914041285869e+03  9.2051959591050199e+03  9.0542987588859360e+03  8.9034001136122606e+03  8.7525002782822812e+03  8.6015994626647880e+03  8.4506978393959052e+03  8.2997955506030521e+03  8.1488927133313391e+03  7.9979894239939294e+03  7.8470857620254465e+03  7.6961817928834516e+03  7.5452775705160184e+03  7.3943731393914804e+03  7.2434685361688471e+03  7.0925637910730302e+03  6.9416589290274469e+03  6.7907539705871704e+03  6.6398489327079069e+03  6.4889438293799376e+03  6.3380386721509403e+03  6.1871334705573590e+03  6.0362282324804901e+03  5.8853229644407174e+03  5.7344176718408607e+03  5.5835123591678484e+03  5.4326070301601067e+03  5.2817016879470948e+03  5.1307963351661265e+03  4.9798909740608415e+03  4.8289856065650602e+03  4.6780802343751693e+03  4.5271748590137904e+03  4.3762694818871414e+03  4.2253641043383241e+03  4.0744587276987068e+03  3.9235533533394532e+03  3.7726479827254611e+03  3.6217426174741117e+03  3.4708372594217253e+03  3.3199319107011547e+03  3.1690265738347853e+03  3.0181212518486964e+03  2.8672159484154431e+03  2.7163106680357059e+03  2.5654054162730677e+03  2.4145002000621253e+03  2.2635950