<?xml version="1.0"?>
<VTKFile type="UnstructuredGrid"  version="0.1"  >
<UnstructuredGrid>
<Piece  NumberOfPoints="21400" NumberOfCells="42336">
<Points>
<DataArray  type="Float64"  NumberOfComponents="3"  format="ascii">0 0 0  0.004583333333333333 0 0  0.009166666666666667 0 0  0.01375 0 0  0.01833333333333333 0 0  0.02291666666666667 0 0  0.0275 0 0  0.03208333333333334 0 0  0.03666666666666667 0 0  0.04125 0 0  0.04583333333333334 0 0  0.05041666666666667 0 0  0.055 0 0  0.05958333333333334 0 0  0.06416666666666668 0 0  0.06875000000000001 0 0  0.07333333333333333 0 0  0.07791666666666666 0 0  0.08249999999999999 0 0  0.08708333333333333 0 0  0.09166666666666667 0 0  0.09625000000000002 0 0  0.1008333333333333 0 0  0.1054166666666667 0 0  0.11 0 0  0.1145833333333333 0 0  0.1191666666666667 0 0  0.12375 0 0  0.1283333333333334 0 0  0.1329166666666667 0 0  0.1375 0 0  0.1420833333333333 0 0  0.1466666666666667 0 0  0.15125 0 0  0.1558333333333333 0 0  0.1604166666666667 0 0  0.165 0 0  0.1695833333333333 0 0  0.1741666666666667 0 0  0.17875 0 0  0.1833333333333333 0 0  0.1879166666666667 0 0  0.1925 0 0  0.1970833333333333 0 0  0.2016666666666667 0 0  0.20625 0 0  0.2108333333333333 0 0  0.2154166666666666 0 0  0.22 0 0  0.2245833333333334 0 0  0.2291666666666667 0 0  0.23375 0 0  0.2383333333333333 0 0  0.2429166666666667 0 0  0.2475 0 0  0.2520833333333333 0 0  0.2566666666666667 0 0  0.26125 0 0  0.2658333333333334 0 0  0.2704166666666666 0 0  0.275 0 0  0.2795833333333334 0 0  0.2841666666666667 0 0  0.28875 0 0  0.2933333333333333 0 0  0.2979166666666667 0 0  0.3025 0 0  0.3070833333333334 0 0  0.3116666666666666 0 0  0.31625 0 0  0.3208333333333333 0 0  0.3254166666666667 0 0  0.33 0 0  0.3345833333333333 0 0  0.3391666666666667 0 0  0.34375 0 0  0.3483333333333333 0 0  0.3529166666666667 0 0  0.3575 0 0  0.3620833333333333 0 0  0.3666666666666667 0 0  0.37125 0 0  0.3758333333333334 0 0  0.3804166666666667 0 0  0.3850000000000001 0 0  0.3895833333333333 0 0  0.3941666666666667 0 0  0.39875 0 0  0.4033333333333334 0 0  0.4079166666666666 0 0  0.4125 0 0  0.4170833333333334 0 0  0.4216666666666667 0 0  0.42625 0 0  0.4308333333333333 0 0  0.4354166666666667 0 0  0.44 0 0  0.4445833333333333 0 0  0.4491666666666667 0 0  0.45375 0 0  0.4583333333333333 0 0  0.4629166666666666 0 0  0.4675 0 0  0.4720833333333334 0 0  0.4766666666666667 0 0  0.4812500000000001 0 0  0.4858333333333333 0 0  0.4904166666666667 0 0  0.495 0 0  0.4995833333333334 0 0  0.5041666666666667 0 0  0.50875 0 0  0.5133333333333334 0 0  0.5179166666666667 0 0  0.5225 0 0  0.5270833333333333 0 0  0.5316666666666667 0 0  0.53625 0 0  0.5408333333333333 0 0  0.5454166666666667 0 0  0.55 0 0  0.5545833333333333 0 0  0.5591666666666667 0 0  0.5637500000000001 0 0  0.5683333333333334 0 0  0.5729166666666666 0 0  0.5775 0 0  0.5820833333333334 0 0  0.5866666666666667 0 0  0.5912499999999999 0 0  0.5958333333333334 0 0  0.6004166666666667 0 0  0.605 0 0  0.6095833333333334 0 0  0.6141666666666667 0 0  0.61875 0 0  0.6233333333333333 0 0  0.6279166666666667 0 0  0.6325000000000001 0 0  0.6370833333333333 0 0  0.6416666666666666 0 0  0.64625 0 0  0.6508333333333334 0 0  0.6554166666666666 0 0  0.6599999999999999 0 0  0.6645833333333334 0 0  0.6691666666666667 0 0  0.67375 0 0  0.6783333333333333 0 0  0.6829166666666667 0 0  0.6875 0 0  0.6920833333333333 0 0  0.6966666666666667 0 0  0.70125 0 0  0.7058333333333333 0 0  0.7104166666666667 0 0  0.7150000000000001 0 0  0.7195833333333334 0 0  0.7241666666666666 0 0  0.72875 0 0  0.7333333333333334 0 0  0.7379166666666667 0 0  0.7425 0 0  0.7470833333333333 0 0  0.7516666666666667 0 0  0.75625 0 0  0.7608333333333334 0 0  0.7654166666666666 0 0  0.7700000000000001 0 0  0 0.002380952380952381 0  0.004583333333333333 0.002380952380952381 0  0.009166666666666667 0.002380952380952381 0  0.01375 0.002380952380952381 0  0.01833333333333333 0.002380952380952381 0  0.02291666666666667 0.002380952380952381 0  0.0275 0.002380952380952381 0  0.03208333333333334 0.002380952380952381 0  0.03666666666666667 0.002380952380952381 0  0.04125 0.002380952380952381 0  0.04583333333333334 0.002380952380952381 0  0.05041666666666667 0.002380952380952381 0  0.055 0.002380952380952381 0  0.05958333333333334 0.002380952380952381 0  0.06416666666666668 0.002380952380952381 0  0.06875000000000001 0.002380952380952381 0  0.07333333333333333 0.002380952380952381 0  0.07791666666666666 0.002380952380952381 0  0.08249999999999999 0.002380952380952381 0  0.08708333333333333 0.002380952380952381 0  0.09166666666666667 0.002380952380952381 0  0.09625000000000002 0.002380952380952381 0  0.1008333333333333 0.002380952380952381 0  0.1054166666666667 0.002380952380952381 0  0.11 0.002380952380952381 0  0.1145833333333333 0.002380952380952381 0  0.1191666666666667 0.002380952380952381 0  0.12375 0.002380952380952381 0  0.1283333333333334 0.002380952380952381 0  0.1329166666666667 0.002380952380952381 0  0.1375 0.002380952380952381 0  0.1420833333333333 0.002380952380952381 0  0.1466666666666667 0.002380952380952381 0  0.15125 0.002380952380952381 0  0.1558333333333333 0.002380952380952381 0  0.1604166666666667 0.002380952380952381 0  0.165 0.002380952380952381 0  0.1695833333333333 0.002380952380952381 0  0.1741666666666667 0.002380952380952381 0  0.17875 0.002380952380952381 0  0.1833333333333333 0.002380952380952381 0  0.1879166666666667 0.002380952380952381 0  0.1925 0.002380952380952381 0  0.1970833333333333 0.002380952380952381 0  0.2016666666666667 0.002380952380952381 0  0.20625 0.002380952380952381 0  0.2108333333333333 0.002380952380952381 0  0.2154166666666666 0.002380952380952381 0  0.22 0.002380952380952381 0  0.2245833333333334 0.002380952380952381 0  0.2291666666666667 0.002380952380952381 0  0.23375 0.002380952380952381 0  0.2383333333333333 0.002380952380952381 0  0.2429166666666667 0.002380952380952381 0  0.2475 0.002380952380952381 0  0.2520833333333333 0.002380952380952381 0  0.2566666666666667 0.002380952380952381 0  0.26125 0.002380952380952381 0  0.2658333333333334 0.002380952380952381 0  0.2704166666666666 0.002380952380952381 0  0.275 0.002380952380952381 0  0.2795833333333334 0.002380952380952381 0  0.2841666666666667 0.002380952380952381 0  0.28875 0.002380952380952381 0  0.2933333333333333 0.002380952380952381 0  0.2979166666666667 0.002380952380952381 0  0.3025 0.002380952380952381 0  0.3070833333333334 0.002380952380952381 0  0.3116666666666666 0.002380952380952381 0  0.31625 0.002380952380952381 0  0.3208333333333333 0.002380952380952381 0  0.3254166666666667 0.002380952380952381 0  0.33 0.002380952380952381 0  0.3345833333333333 0.002380952380952381 0  0.3391666666666667 0.002380952380952381 0  0.34375 0.002380952380952381 0  0.3483333333333333 0.002380952380952381 0  0.3529166666666667 0.002380952380952381 0  0.3575 0.002380952380952381 0  0.3620833333333333 0.002380952380952381 0  0.3666666666666667 0.002380952380952381 0  0.37125 0.002380952380952381 0  0.3758333333333334 0.002380952380952381 0  0.3804166666666667 0.002380952380952381 0  0.3850000000000001 0.002380952380952381 0  0.3895833333333333 0.002380952380952381 0  0.3941666666666667 0.002380952380952381 0  0.39875 0.002380952380952381 0  0.4033333333333334 0.002380952380952381 0  0.4079166666666666 0.002380952380952381 0  0.4125 0.002380952380952381 0  0.4170833333333334 0.002380952380952381 0  0.4216666666666667 0.002380952380952381 0  0.42625 0.002380952380952381 0  0.4308333333333333 0.002380952380952381 0  0.4354166666666667 0.002380952380952381 0  0.44 0.002380952380952381 0  0.4445833333333333 0.002380952380952381 0  0.4491666666666667 0.002380952380952381 0  0.45375 0.002380952380952381 0  0.4583333333333333 0.002380952380952381 0  0.4629166666666666 0.002380952380952381 0  0.4675 0.002380952380952381 0  0.4720833333333334 0.002380952380952381 0  0.4766666666666667 0.002380952380952381 0  0.4812500000000001 0.002380952380952381 0  0.4858333333333333 0.002380952380952381 0  0.4904166666666667 0.002380952380952381 0  0.495 0.002380952380952381 0  0.4995833333333334 0.002380952380952381 0  0.5041666666666667 0.002380952380952381 0  0.50875 0.002380952380952381 0  0.5133333333333334 0.002380952380952381 0  0.5179166666666667 0.002380952380952381 0  0.5225 0.002380952380952381 0  0.5270833333333333 0.002380952380952381 0  0.5316666666666667 0.002380952380952381 0  0.53625 0.002380952380952381 0  0.5408333333333333 0.002380952380952381 0  0.5454166666666667 0.002380952380952381 0  0.55 0.002380952380952381 0  0.5545833333333333 0.002380952380952381 0  0.5591666666666667 0.002380952380952381 0  0.5637500000000001 0.002380952380952381 0  0.5683333333333334 0.002380952380952381 0  0.5729166666666666 0.002380952380952381 0  0.5775 0.002380952380952381 0  0.5820833333333334 0.002380952380952381 0  0.5866666666666667 0.002380952380952381 0  0.5912499999999999 0.002380952380952381 0  0.5958333333333334 0.002380952380952381 0  0.6004166666666667 0.002380952380952381 0  0.605 0.002380952380952381 0  0.6095833333333334 0.002380952380952381 0  0.6141666666666667 0.002380952380952381 0  0.61875 0.002380952380952381 0  0.6233333333333333 0.002380952380952381 0  0.6279166666666667 0.002380952380952381 0  0.6325000000000001 0.002380952380952381 0  0.6370833333333333 0.002380952380952381 0  0.6416666666666666 0.002380952380952381 0  0.64625 0.002380952380952381 0  0.6508333333333334 0.002380952380952381 0  0.6554166666666666 0.002380952380952381 0  0.6599999999999999 0.002380952380952381 0  0.6645833333333334 0.002380952380952381 0  0.6691666666666667 0.002380952380952381 0  0.67375 0.002380952380952381 0  0.6783333333333333 0.002380952380952381 0  0.6829166666666667 0.002380952380952381 0  0.6875 0.002380952380952381 0  0.6920833333333333 0.002380952380952381 0  0.6966666666666667 0.002380952380952381 0  0.70125 0.002380952380952381 0  0.7058333333333333 0.002380952380952381 0  0.7104166666666667 0.002380952380952381 0  0.7150000000000001 0.002380952380952381 
[...]
<PointData  Scalars="pressure"> 
<DataArray  type="Float64"  Name="pressure"  format="ascii">3.2459973758400945e+04  3.2430235643027907e+04  3.2402869361388930e+04  3.2373997978238538e+04  3.2343643570194152e+04  3.2307464257473905e+04  3.2273724562391042e+04  3.2239635746269651e+04  3.2202421523279558e+04  3.2175138062309117e+04  2.3409708146404064e+04  2.3376539822612307e+04  2.3336467213172738e+04  2.3292260610420493e+04  2.3249369328301927e+04  2.3180344233671734e+04  2.3034701674473672e+04  2.2861063308099870e+04  2.2690349813466855e+04  2.2525776873012772e+04  2.2365255554472777e+04  2.2207384689488194e+04  2.2051302676008152e+04  2.1896469280089448e+04  2.1742533908987894e+04  2.1589260668075909e+04  2.1436485680078426e+04  2.1284091910555879e+04  2.1131993793331170e+04  2.0980127516096192e+04  2.0828444688380128e+04  2.0676908096068793e+04  2.0525488781568067e+04  2.0374163989189667e+04  2.0222915689346752e+04  2.0071729498805638e+04  1.9920593877622628e+04  1.9769499523092356e+04  1.9618438906451458e+04  1.9467405914691724e+04  1.9316395570899611e+04  1.9165403814040321e+04  1.9014427324276385e+04  1.8863463383535345e+04  1.8712509763618760e+04  1.8561564636006813e+04  1.8410626498874248e+04  1.8259694117844640e+04  1.8108766477767673e+04  1.7957842743380945e+04  1.7806922227159244e+04  1.7656004362997661e+04  1.7505088684641851e+04  1.7354174807990537e+04  1.7203262416562069e+04  1.7052351249550713e+04  1.6901441092005221e+04  1.6750531766748521e+04  1.6599623127727129e+04  1.6448715054535460e+04  1.6297807447906180e+04  1.6146900225995305e+04  1.5995993321321457e+04  1.5845086678243591e+04  1.5694180250882271e+04  1.5543274001406275e+04  1.5392367898620209e+04  1.5241461916800161e+04  1.5090556034733789e+04  1.4939650234928851e+04  1.4788744502960728e+04  1.4637838826934318e+04  1.4486933197040453e+04  1.4336027605190024e+04  1.4185122044712363e+04  1.4034216510106522e+04  1.3883310996836097e+04  1.3732405501160138e+04  1.3581500019993631e+04  1.3430594550792521e+04  1.3279689091458817e+04  1.3128783640262394e+04  1.2977878195776497e+04  1.2826972756824523e+04  1.2676067322436200e+04  1.2525161891811367e+04  1.2374256464290185e+04  1.2223351039328503e+04  1.2072445616477600e+04  1.1921540195367434e+04  1.1770634775692857e+04  1.1619729357202252e+04  1.1468823939688122e+04  1.1317918522979395e+04  1.1167013106934995e+04  1.1016107691438634e+04  1.0865202276394450e+04  1.0714296861723435e+04  1.0563391447360493e+04  1.0412486033252011e+04  1.0261580619353876e+04  1.0110675205629794e+04  9.9597697920499722e+03  9.8088643785900003e+03  9.6579589652299310e+03  9.5070535519535260e+03  9.3561481387476942e+03  9.2052427256019564e+03  9.0543373125080834e+03  8.9034318994597706e+03  8.7525264864524179e+03  8.6016210734829510e+03  8.4507156605497057e+03  8.2998102476523782e+03  8.1489048347919907e+03  7.9979994219709533e+03  7.8470940091931298e+03  7.6961885964640105e+03  7.5452831837909007e+03  7.3943777711831826e+03  7.2434723586526889e+03  7.0925669462141404e+03  6.9416615338856718e+03  6.7907561216895374e+03  6.6398507096529420e+03  6.4889452978090294e+03  6.3380398861981621e+03  6.1871344748694119e+03  6.0362290638824015e+03  5.8853236533095587e+03  5.7344182432388152e+03  5.5835128337769656e+03  5.4326074250536622e+03  5.2817020172263465e+03  5.1307966104862444e+03  4.9798912050656754e+03  4.8289858012469549e+03  4.6780803993733225e+03  4.5271749998623027e+03  4.3762696032221065e+03  4.2253642100718234e+03  4.0744588211663176e+03  3.9235534374271083e+03  3.7726480599807319e+03  3.6217426902067023e+03  3.4708373297978369e+03  3.3199319808366236e+03  3.1690266458926326e+03  3.0181213281480432e+03  2.8672160315610599e+03  2.7163107610812685e+03  2.5654055229374126e+03  2.4145003250281256e+03  2.2635951774617874e+03  2.1126900933174529e+03  1.9617850897414669e+03  1.8108801895678389e+03  1.6599754237799780e+03  1.5090708353755695e+03  1.3581664856195159e+03  1.2072624648919921e+03  1.0563589098516834e+03  9.0545605295021949e+02  7.5455417551907840e+02  6.0365472288177511e+02  4.5275236540219828e+02  3.0190539317213035e+02  1.5056425484261146e+02  4.2690987426574596e+00  3.2458332667506333e+04  3.2429929736477119e+04  3.2403759781687466e+04  3.2372222474074119e+04  2.3560020830435536e+04  2.3534611467261217e+04  2.3510291120927355e+04  2.3485694184391130e+04  2.3459625466681391e+04  3.2173234753494846e+04  3.2136418552864914e+04  3.2091142923004430e+04  3.2035647979929883e+04  3.1974423710893319e+04  3.1914553843193717e+04  2.3189146793641481e+04  2.3037255786679038e+04  2.2860151042387519e+04  2.2689676803056820e+04  2.2525348663490800e+04  2.2364974669077252e+04  2.2207194428121380e+04  2.2051169263675220e+04  2.1896372982920475e+04  2.1742462705846661e+04  2.1589206970481453e+04  2.1436444526093786e+04  2.1284059952144522e+04  2.1131968707485394e+04  2.0980107650959217e+04  2.0828428843811431e+04  2.0676895383608589e+04  2.0525478532686098e+04  2.0374155693701647e+04  2.0222908953153477e+04  2.0071724014295218e+04  1.9920589402549249e+04  1.9769495865242217e+04  1.9618435912333367e+04  1.9467403461075352e+04  1.9316393558401702e+04  1.9165402162206050e+04  1.9014425967768155e+04  1.8863462269152264e+04  1.8712508847947232e+04  1.8561563883555351e+04  1.8410625880584041e+04  1.8259693609893839e+04  1.8108766060607384e+04  1.7957842400954993e+04  1.7806921946270853e+04  1.7656004132793834e+04  1.7505088496192839e+04  1.7354174653946069e+04  1.7203262290869989e+04  1.7052351147226396e+04  1.6901441008942322e+04  1.6750531699563613e+04  1.6599623073632014e+04  1.6448715011232165e+04  1.6297807413500561e+04  1.6146900198925954e+04  1.5995993300301163e+04  1.5845086662211130e+04  1.5694180238962674e+04  1.5543273992878121e+04  1.5392367892888671e+04  1.5241461913374758e+04  1.5090556033210079e+04  1.4939650234973346e+04  1.4788744504298416e+04  1.4637838829338432e+04  1.4486933200323987e+04  1.4336027609198765e+04  1.4185122049319159e+04  1.4034216515206503e+04  1.3883311002342780e+04  1.3732405507002213e+04  1.3581500026112291e+04  1.3430594557139273e+04  1.3279689097993658e+04  1.3128783646952350e+04  1.2977878202594364e+04  1.2826972763747879e+04  1.2676067329446541e+04  1.2525161898893452e+04  1.2374256471431425e+04  1.2223351046518534e+04  1.2072445623707856e+04  1.1921540202630862e+04  1.1770634782983645e+04  1.1619729364515593e+04  1.1468823947020066e+04  1.1317918530326671e+04  1.1167013114294918e+04  1.1016107698808977e+04  1.0865202283773384e+04  1.0714296869109445e+04  1.0563391454752329e+04  1.0412486040648648e+04  1.0261580626754458e+04  1.0110675213033615e+04  9.9597697994564496e+03  9.8088643859986460e+03  9.6579589726403374e+03  9.5070535593653585e+03  9.3561481461606709e+03  9.2052427330158262e+03  9.0543373199226371e+03  8.9034319068748264e+03  8.7525264938678138e+03  8.6016210808985288e+03  8.4507156679653199e+03  8.2998102550678868e+03  8.1489048422072437e+03  7.9979994293857853e+03  7.8470940166073724e+03  7.6961886038774701e+03  7.5452831912033471e+03  7.3943777785943530e+03  7.2434723660622749e+03  7.0925669536217683e+03  6.9416615412909005e+03  6.7907561290918347e+03  6.6398507170516632e+03  6.4889453052034023e+03  6.3380398935872436e+03  6.1871344822520614e+03  6.0362290712572458e+03  5.8853236606749206e+03  5.7344182505926647e+03  5.5835128411168353e+03  5.4326074323765579e+03  5.2817020245286249e+03  5.1307966177634780e+03  4.9798912123124737e+03  4.8289858084567522e+03  4.6780804065381117e+03  4.5271750069723139e+03  4.3762696102653963e+03  4.2253642170337635e+03  4.0744588280289622e+03  3.9235534441683849e+03  3.7726480665734089e+03  3.6217426966170765e+03  3.4708373359840016e+03  3.3199319867462268e+03  3.1690266514598752e+03  3.0181213332896427e+03  2.8672160361707256e+03  2.7163107650220072e+03  2.5654055260306459e+03  2.4145003270379302e+03  2.2635951780716441e+03  2.1126900920950566e+03  1.9617850860840911e+03  1.8108801826149047e+03  1.6599754122693294e+03  1.5090708173915421e+03  1.3581664581893015e+03  1.2072624228501393e+03  1.0563588467287252e+03  9.0545593698860580e+02  7.5455411128690901e+02  6.0365354200123932e+02  4.5275922197209792e+02  3.0184260143697668e+02  1.5112639414245768e+02  -2.3169241560205378e-01  3.2457216420978682e+04  3.2429104959671553e+04  3.2402346480660366e+04  3.2369304658034034e+04  3.2339835613742209e+04  3.2306620148395450e+04  3.2273944416220544e+04  3.2240896941497660e+04  3.2206554903116499e+04  3.2173045129692229e+04  3.2137635869199294e+04  3.2093542353251949e+04  3.2036661402889487e+04  3.1974710151812887e+04  3.1911278748210054e+04  3.1844058101509003e+04  2.3041865654786223e+04  2.2856704032176454e+04  2.2687416178519292e+04  2.2523891039064656e+04  2.2364019952644776e+04  2.2206545770135104e+04  2.2050713519817087e+04  2.1896043460898483e+04  2.1742218724877763e+04  2.1589022774575213e+04  2.1436303235253130e+04  2.1283950153798578e+04  2.1131882469806977e+04  2.0980039325789261e+04  2.0828374322688411e+04  2.0676851622041981e+04  2.0525443237917483e+04  2.0374127114809999e+04  2.0222885736825468e+04  2.0071705103693686e+04  1.9920573965069842e+04  1.9769483240016329e+04  1.9618425571478048e+04  1.9467394980679674e+04  1.9316386596520901e+04  1.9165396441976627e+04  1.9014421264317796e+04  1.8863458399359119e+04  1.8712505662364012e+04  1.8561561259996612e+04  1.8410623719003466e+04  1.8259691828271156e+04  1.8108764591631392e+04  1.7957841189338804e+04  1.7806920946572027e+04  1.7656003307639799e+04  1.7505087814833085e+04  1.7354174091068799e+04  1.7203261825633414e+04  1.7052350762464685e+04  1.6901440690514170e+04  1.6750531435817182e+04  1.6599622854965248e+04  1.6448714829731191e+04  1.6297807262642224e+04  1.6146900073332987e+04  1.5995993195540570e+04  1.5845086574628147e+04  1.5694180165544029e+04  1.5543273931139327e+04  1.5392367840781173e+04  1.5241461869209394e+04  1.5090555995593997e+04  1.4939650202758017e+04  1.4788744476536745e+04  1.4637838805249441e+04  1.4486933179263651e+04  1.4336027590636008e+04  1.4185122032816042e+04  1.4034216500401857e+04  1.3883310988938803e+04  1.3732405494753302e+04  1.3581500014815914e+04  1.3430594546628410e+04  1.3279689088130575e+04  1.3128783637623465e+04  1.2977878193706008e+04  1.2826972755222812e+04  1.2676067321221062e+04  1.2525161890915029e+04  1.2374256463656735e+04  1.2223351038911855e+04  1.2072445616239722e+04  1.1921540195276979e+04  1.1770634775723975e+04  1.1619729357333610e+04  1.1468823939902139e+04  1.1317918523261555e+04  1.1167013107273346e+04  1.1016107691823299e+04  1.0865202276817286e+04  1.0714296862177722e+04  1.0563391447840677e+04  1.0412486033753517e+04  1.0261580619872913e+04  1.0110675206163227e+04  9.9597697925952016e+03  9.8088643791448703e+03  9.6579589657926335e+03  9.5070535525225641e+03  9.3561481393217964e+03  9.2052427261800403e+03  9.0543373130892105e+03  8.9034319000431224e+03  8.7525264870372612e+03  8.6016210740686020e+03  8.4507156611355131e+03  8.2998102482376980e+03  8.1489048353761582e+03  7.9979994225532555e+03  7.8470940097727935e+03  7.6961885970401654e+03  7.5452831843625354e+03  7.3943777717491230e+03  7.2434723592115497e+03  7.0925669467642665e+03  6.9416615344250840e+03  6.7907561222158592e+03  6.6398507101633013e+03  6.4889452982999655e+03  6.3380398866654741e+03  6.1871344753080184e+03  6.0362290642861517e+03  5.8853236536709755e+03  5.7344182435488319e+03  5.5835128340245756e+03  5.4326074252254894e+03  5.2817020173061292e+03  5.1307966104542174e+03  4.9798912048977782e+03  4.8289858009138761e+03  4.6780803988393282e+03  4.5271749990837752e+03  4.3762696021457368e+03  4.2253642086323280e+03  4.0744588192836104e+03  3.9235534350026901e+03  3.7726480568931097e+03  3.6217426863054984e+03  3.4708373248961393e+03  3.3199319747009522e+03  3.1690266382296086e+03  3.0181213185864331e+03  2.8672160196272230e+03  2.7163107461650056e+03  2.5654055042436412e+03  2.4145003015070647e+03  2.2635951477059634e+03  2.1126900554060908e+03  1.9617850409991922e+03  1.8108801261795395e+03  1.6599753401562446e+03  1.5090707230658654e+03  1.3581663313955423e+03  1.2072622470167273e+03  1.0563585920723795e+03  9.0545556079171365e+02  7.5455344173380081e+02  6.0365294633910719e+02  4.5275398475735528e+02  3.0186470237433196e+02  1.5100001893841764e+02  3.0504525891240159e-02  3.2456162879872845e+04  3.2428056415473307e+04  3.2399613292876224e+04  3.2368958734127053e+04  3.2338343354062501e+04  3.2306376553041497e+04  3.2274082763232014e+04  3.2241451263017367e+04  3.2208253372121486e+04  3.2175113437537122e+04  3.2140648328005889e+04  3.2100240273238735e+04  3.2038648454764309e+04  3.1975139823149937e+04  3.1909138436792324e+04  3.1838169302587234e+04  2.3034308180539043e+04  2.2850821490665690e+04  2.2683641816978481e+04  2.2521487298762593e+04  2.2362437749164015e+04  2.2205465136346833e+04  2.2049950778408260e+04  2.1895489943516346e+04  2.1741807717152908e+04  2.1588711782777908e+04  2.1436064262693348e+04  2.1283764187689758e+04  2.1131736247023189e+04  2.0979923372600126e+04  2.0828281730155388e+04  2.0676777259430211e+04  2.0525383234412388e+04  2.0374078509934825e+04  2.0222846239515045e+04  2.0071672922923804e+04  1.9920547688591978e+04  1.9769461746061173e+04  1.9618407963465495e+04  1.9467380538257537e+04  1.9316374738379098e+04  1.9165386697280523e+04  1.9014413250539095e+04  1.8863451804916556e+04  1.8712500232923419e+04  1.8561556787584959e+04  1.8410620033308052e+04  1.8259688789650110e+04  1.8108762085474966e+04  1.7957839121503723e+04  1.7806919239673425e+04  1.7656001898031867e+04  1.7505086650145236e+04  1.7354173128191476e+04  1.7203261029069068e+04  1.7052350102975994e+04  1.6901440144014741e+04  1.6750530982460547e+04  1.6599622478396061e+04  1.6448714516469518e+04  1.6297807001576864e+04  1.6146899855304500e+04  1.5995993012997902e+04  1.5845086421345866e+04  1.5694180036389360e+04  1.5543273821880215e+04  1.5392367747928105e+04  1.5241461789885048e+04  1.5090555927425798e+04  1.4939650143789531e+04  1.4788744425154706e+04  1.4637838760123499e+04  1.4486933139296776e+04  1.4336027554923561e+04  1.4185122000612002e+04  1.4034216471091051e+04  1.3883310962013908e+04  1.3732405469795964e+04  1.3581499991481143e+04  1.3430594524631695e+04  1.3279689067237307e+04  1.3128783617640158e+04  1.2977878174473113e+04  1.2826972736608748e+04  1.2676067303117321e+04  1.2525161873232126e+04  1.2374256446320880e+04  1.2223351021862185e+04  1.2072445599426059e+04  1.1921540178657939e+04  1.1770634759265413e+04  1.1619729341007382e+04  1.1468823923685022e+04  1.1317918507134407e+04  1.1167013091220366e+04  1.1016107675831459e+04  1.0865202260875836e+04  1.0714296846277790e+04  1.0563391431974938e+04  1.0412486017915920e+04  1.0261580604058458e+04  1.0110675190367774e+04  9.9597697768153230e+03  9.8088643633777101e+03  9.6579589500358252e+03  9.5070535367741122e+03  9.3561481235800238e+03  9.2052427104435228e+03  9.0543372973567111e+03  8.9034318843135625e+03  8.7525264713096622e+03  8.6016210583420634e+03  8.4507156454091783e+03  8.2998102325107102e+03  8.1489048196476379e+03  7.9979994068222713e+03  7.8470939940383169e+03  7.6961885813010394e+03  7.5452831686174277e+03  7.3943777559964801e+03  7.2434723434495354e+03  7.0925669309906971e+03  6.9416615186373401e+03  6.7907561064107922e+03  6.6398506943371167e+03  6.4889452824480777e+03  6.3380398707823324e+03  6.1871344593869007e+03  6.0362290483189063e+03  5.8853236376477198e+03  5.7344182274575724e+03  5.5835128178507475e+03  5.4326074089513986e+03  5.2817020009102780e+03  5.1307965939104524e+03  4.9798911881742706e+03  4.8289857839718707e+03  4.6780803816315738e+03  4.5271749815526036e+03  4.3762695842206695e+03  4.2253641902270901e+03  4.0744588002923747e+03  3.9235534152953460e+03  3.7726480363092278e+03  3.6217426646465869e+03  3.4708373019156093e+03  3.3199319500909705e+03  3.1690266116036523e+03  3.0181212894558375e+03  2.8672159873691803e+03  2.7163107099781728e+03  2.5654054630854571e+03  2.4145002540035166e+03  2.2635950920189175e+03  2.1126899890336836e+03  1.9617849604678261e+03  1.8108800265551108e+03  1.6599752142442737e+03  1.5090705600540412e+03  1.3581661144739933e+03  1.2072619488908215e+03  1.0563581670575031e+03  9.0545492277994731e+02  7.5455245932288642e+02  6.0365113996848811e+02  4.5275160959569627e+02  3.0185741378311536e+02  1.5095887923300438e+02  -2.4393847477286925e-03  3.2455132357489405e+04  3.2426864035203056e+04  3.2398027363004097e+04  3.2368032829389816e+04  3.2337451314667316e+04  3.2306102269285271e+04  3.2274312689045557e+04  3.2242222789448784e+04  3.2209879647850441e+04  3.2177515070039244e+04  3.2144881928491865e+04  3.2111462293901477e+04  2.3343249979763092e+04  3.1976196724503661e+04  2.3242036147975803e+04  2.3169588410968106e+04  2.3013088795004769e+04  2.2842627405436084e+04  2.2678579743744169e+04  2.2518282282105629e+04  2.2360309724168445e+04  2.2203999503833034e+04  2.2048908954254603e+04  2.1894729667222047e+04  2.1741240719975020e+04  2.1588281302400526e+04  2.1435732593370289e+04  2.1283505546613909e+04  2.1131532545305043e+04  2.0979761628013232e+04  2.0828152437630029e+04  2.0676673337005926e+04  2.0525299324499159e+04  2.0374010505529448e+04  2.0222790956179899e+04  2.0071627867263698e+04  1.9920510891905295e+04  1.9769431642841628e+04  1.9618383301316368e+04  1.9467360310174139e+04  1.9316358131209538e+04  1.9165373052060171e+04  1.9014402031658989e+04  1.8863442575947967e+04  1.8712492637515948e+04  1.8561550534272916e+04  1.8410614883356102e+04  1.8259684547282508e+04  1.8108758589988105e+04  1.7957836240876441e+04  1.7806916865375249e+04  1.7655999940794016e+04  1.7505085036508641e+04  1.7354171797684096e+04  1.7203259931894416e+04  1.7052349198118012e+04  1.6901439397682465e+04  1.6750530366810515e+04  1.6599621970482222e+04  1.6448714097379576e+04  1.6297806655721666e+04  1.6146899569833073e+04  1.5995992777315794e+04  1.5845086226718466e+04  1.5694179875615060e+04  1.5543273689021149e+04  1.5392367638088223e+04  1.5241461699027239e+04  1.5090555852221118e+04  1.4939650081492953e+04  1.4788744373502648e+04  1.4637838717249369e+04  1.4486933103661337e+04  1.4336027525257507e+04  1.4185121975868609e+04  1.4034216450407148e+04  1.3883310944677694e+04  1.3732405455220436e+04  1.3581499979182237e+04  1.3430594514210228e+04  1.3279689058364087e+04  1.3128783610043707e+04  1.2977878167929566e+04  1.2826972730933481e+04  1.2676067298158092e+04  1.2525161868863379e+04  1.2374256442439078e+04  1.2223351018381936e+04  1.2072445596276950e+04  1.1921540175781893e+04  1.1770634756614540e+04  1.1619729338542184e+04  1.1468823921372928e+04  1.1317918504948544e+04  1.1167013089138572e+04  1.1016107673835453e+04  1.0865202258950532e+04  1.0714296844410737e+04  1.0563391430155863e+04  1.0412486016136330e+04  1.0261580602311335e+04  1.0110675188647310e+04  9.9597697751167107e+03  9.8088643616969512e+03  9.6579589483695854e+03  9.5070535351195995e+03  9.3561481219348880e+03  9.2052427088057539e+03  9.0543372957245829e+03  8.9034318826855470e+03  8.7525264696844042e+03  8.6016210567182952e+03  8.4507156437856902e+03  8.2998102308863035e+03  8.1489048180210839e+03  7.9979994051922549e+03  7.8470939924034001e+03  7.6961885796595952e+03  7.5452831669675888e+03  7.3943777543360638e+03  7.2434723417759669e+03  7.0925669293009059e+03  6.9416615169276538e+03  6.7907561046767933e+03  6.6398506925734764e+03  6.4889452806483578e+03  6.3380398689387448e+03  6.1871344574900095e+03  6.0362290463572754e+03  5.8853236356074804e+03  5.7344182253218896e+03  5.5835128155991843e+03  5.4326074065591311e+03  5.2817019983471337e+03  5.1307965911397387e+03  4.9798911851513485e+03  4.8289857806423752e+03  4.6780803779292401e+03  4.5271749773965730e+03  4.3762695795121435e+03  4.2253641848451589e+03  4.0744587940887805e+03  3.9235534080878811e+03  3.7726480278733352e+03  3.6217426547046011e+03  3.4708372901228267e+03  3.3199319360174422e+03  3.1690265947100766e+03  3.0181212690612460e+03  2.8672159626069538e+03  2.7163106797352493e+03  2.5654054259168156e+03  2.4145002080096065e+03  2.2635950