<?xml version="1.0"?>
<VTKFile type="UnstructuredGrid"  version="0.1"  >
<UnstructuredGrid>
<Piece  NumberOfPoints="21400" NumberOfCells="42336">
<Points>
<DataArray  type="Float64"  NumberOfComponents="3"  format="ascii">0 0 0  0.004583333333333333 0 0  0.009166666666666667 0 0  0.01375 0 0  0.01833333333333333 0 0  0.02291666666666667 0 0  0.0275 0 0  0.03208333333333334 0 0  0.03666666666666667 0 0  0.04125 0 0  0.04583333333333334 0 0  0.05041666666666667 0 0  0.055 0 0  0.05958333333333334 0 0  0.06416666666666668 0 0  0.06875000000000001 0 0  0.07333333333333333 0 0  0.07791666666666666 0 0  0.08249999999999999 0 0  0.08708333333333333 0 0  0.09166666666666667 0 0  0.09625000000000002 0 0  0.1008333333333333 0 0  0.1054166666666667 0 0  0.11 0 0  0.1145833333333333 0 0  0.1191666666666667 0 0  0.12375 0 0  0.1283333333333334 0 0  0.1329166666666667 0 0  0.1375 0 0  0.1420833333333333 0 0  0.1466666666666667 0 0  0.15125 0 0  0.1558333333333333 0 0  0.1604166666666667 0 0  0.165 0 0  0.1695833333333333 0 0  0.1741666666666667 0 0  0.17875 0 0  0.1833333333333333 0 0  0.1879166666666667 0 0  0.1925 0 0  0.1970833333333333 0 0  0.2016666666666667 0 0  0.20625 0 0  0.2108333333333333 0 0  0.2154166666666666 0 0  0.22 0 0  0.2245833333333334 0 0  0.2291666666666667 0 0  0.23375 0 0  0.2383333333333333 0 0  0.2429166666666667 0 0  0.2475 0 0  0.2520833333333333 0 0  0.2566666666666667 0 0  0.26125 0 0  0.2658333333333334 0 0  0.2704166666666666 0 0  0.275 0 0  0.2795833333333334 0 0  0.2841666666666667 0 0  0.28875 0 0  0.2933333333333333 0 0  0.2979166666666667 0 0  0.3025 0 0  0.3070833333333334 0 0  0.3116666666666666 0 0  0.31625 0 0  0.3208333333333333 0 0  0.3254166666666667 0 0  0.33 0 0  0.3345833333333333 0 0  0.3391666666666667 0 0  0.34375 0 0  0.3483333333333333 0 0  0.3529166666666667 0 0  0.3575 0 0  0.3620833333333333 0 0  0.3666666666666667 0 0  0.37125 0 0  0.3758333333333334 0 0  0.3804166666666667 0 0  0.3850000000000001 0 0  0.3895833333333333 0 0  0.3941666666666667 0 0  0.39875 0 0  0.4033333333333334 0 0  0.4079166666666666 0 0  0.4125 0 0  0.4170833333333334 0 0  0.4216666666666667 0 0  0.42625 0 0  0.4308333333333333 0 0  0.4354166666666667 0 0  0.44 0 0  0.4445833333333333 0 0  0.4491666666666667 0 0  0.45375 0 0  0.4583333333333333 0 0  0.4629166666666666 0 0  0.4675 0 0  0.4720833333333334 0 0  0.4766666666666667 0 0  0.4812500000000001 0 0  0.4858333333333333 0 0  0.4904166666666667 0 0  0.495 0 0  0.4995833333333334 0 0  0.5041666666666667 0 0  0.50875 0 0  0.5133333333333334 0 0  0.5179166666666667 0 0  0.5225 0 0  0.5270833333333333 0 0  0.5316666666666667 0 0  0.53625 0 0  0.5408333333333333 0 0  0.5454166666666667 0 0  0.55 0 0  0.5545833333333333 0 0  0.5591666666666667 0 0  0.5637500000000001 0 0  0.5683333333333334 0 0  0.5729166666666666 0 0  0.5775 0 0  0.5820833333333334 0 0  0.5866666666666667 0 0  0.5912499999999999 0 0  0.5958333333333334 0 0  0.6004166666666667 0 0  0.605 0 0  0.6095833333333334 0 0  0.6141666666666667 0 0  0.61875 0 0  0.6233333333333333 0 0  0.6279166666666667 0 0  0.6325000000000001 0 0  0.6370833333333333 0 0  0.6416666666666666 0 0  0.64625 0 0  0.6508333333333334 0 0  0.6554166666666666 0 0  0.6599999999999999 0 0  0.6645833333333334 0 0  0.6691666666666667 0 0  0.67375 0 0  0.6783333333333333 0 0  0.6829166666666667 0 0  0.6875 0 0  0.6920833333333333 0 0  0.6966666666666667 0 0  0.70125 0 0  0.7058333333333333 0 0  0.7104166666666667 0 0  0.7150000000000001 0 0  0.7195833333333334 0 0  0.7241666666666666 0 0  0.72875 0 0  0.7333333333333334 0 0  0.7379166666666667 0 0  0.7425 0 0  0.7470833333333333 0 0  0.7516666666666667 0 0  0.75625 0 0  0.7608333333333334 0 0  0.7654166666666666 0 0  0.7700000000000001 0 0  0 0.002380952380952381 0  0.004583333333333333 0.002380952380952381 0  0.009166666666666667 0.002380952380952381 0  0.01375 0.002380952380952381 0  0.01833333333333333 0.002380952380952381 0  0.02291666666666667 0.002380952380952381 0  0.0275 0.002380952380952381 0  0.03208333333333334 0.002380952380952381 0  0.03666666666666667 0.002380952380952381 0  0.04125 0.002380952380952381 0  0.04583333333333334 0.002380952380952381 0  0.05041666666666667 0.002380952380952381 0  0.055 0.002380952380952381 0  0.05958333333333334 0.002380952380952381 0  0.06416666666666668 0.002380952380952381 0  0.06875000000000001 0.002380952380952381 0  0.07333333333333333 0.002380952380952381 0  0.07791666666666666 0.002380952380952381 0  0.08249999999999999 0.002380952380952381 0  0.08708333333333333 0.002380952380952381 0  0.09166666666666667 0.002380952380952381 0  0.09625000000000002 0.002380952380952381 0  0.1008333333333333 0.002380952380952381 0  0.1054166666666667 0.002380952380952381 0  0.11 0.002380952380952381 0  0.1145833333333333 0.002380952380952381 0  0.1191666666666667 0.002380952380952381 0  0.12375 0.002380952380952381 0  0.1283333333333334 0.002380952380952381 0  0.1329166666666667 0.002380952380952381 0  0.1375 0.002380952380952381 0  0.1420833333333333 0.002380952380952381 0  0.1466666666666667 0.002380952380952381 0  0.15125 0.002380952380952381 0  0.1558333333333333 0.002380952380952381 0  0.1604166666666667 0.002380952380952381 0  0.165 0.002380952380952381 0  0.1695833333333333 0.002380952380952381 0  0.1741666666666667 0.002380952380952381 0  0.17875 0.002380952380952381 0  0.1833333333333333 0.002380952380952381 0  0.1879166666666667 0.002380952380952381 0  0.1925 0.002380952380952381 0  0.1970833333333333 0.002380952380952381 0  0.2016666666666667 0.002380952380952381 0  0.20625 0.002380952380952381 0  0.2108333333333333 0.002380952380952381 0  0.2154166666666666 0.002380952380952381 0  0.22 0.002380952380952381 0  0.2245833333333334 0.002380952380952381 0  0.2291666666666667 0.002380952380952381 0  0.23375 0.002380952380952381 0  0.2383333333333333 0.002380952380952381 0  0.2429166666666667 0.002380952380952381 0  0.2475 0.002380952380952381 0  0.2520833333333333 0.002380952380952381 0  0.2566666666666667 0.002380952380952381 0  0.26125 0.002380952380952381 0  0.2658333333333334 0.002380952380952381 0  0.2704166666666666 0.002380952380952381 0  0.275 0.002380952380952381 0  0.2795833333333334 0.002380952380952381 0  0.2841666666666667 0.002380952380952381 0  0.28875 0.002380952380952381 0  0.2933333333333333 0.002380952380952381 0  0.2979166666666667 0.002380952380952381 0  0.3025 0.002380952380952381 0  0.3070833333333334 0.002380952380952381 0  0.3116666666666666 0.002380952380952381 0  0.31625 0.002380952380952381 0  0.3208333333333333 0.002380952380952381 0  0.3254166666666667 0.002380952380952381 0  0.33 0.002380952380952381 0  0.3345833333333333 0.002380952380952381 0  0.3391666666666667 0.002380952380952381 0  0.34375 0.002380952380952381 0  0.3483333333333333 0.002380952380952381 0  0.3529166666666667 0.002380952380952381 0  0.3575 0.002380952380952381 0  0.3620833333333333 0.002380952380952381 0  0.3666666666666667 0.002380952380952381 0  0.37125 0.002380952380952381 0  0.3758333333333334 0.002380952380952381 0  0.3804166666666667 0.002380952380952381 0  0.3850000000000001 0.002380952380952381 0  0.3895833333333333 0.002380952380952381 0  0.3941666666666667 0.002380952380952381 0  0.39875 0.002380952380952381 0  0.4033333333333334 0.002380952380952381 0  0.4079166666666666 0.002380952380952381 0  0.4125 0.002380952380952381 0  0.4170833333333334 0.002380952380952381 0  0.4216666666666667 0.002380952380952381 0  0.42625 0.002380952380952381 0  0.4308333333333333 0.002380952380952381 0  0.4354166666666667 0.002380952380952381 0  0.44 0.002380952380952381 0  0.4445833333333333 0.002380952380952381 0  0.4491666666666667 0.002380952380952381 0  0.45375 0.002380952380952381 0  0.4583333333333333 0.002380952380952381 0  0.4629166666666666 0.002380952380952381 0  0.4675 0.002380952380952381 0  0.4720833333333334 0.002380952380952381 0  0.4766666666666667 0.002380952380952381 0  0.4812500000000001 0.002380952380952381 0  0.4858333333333333 0.002380952380952381 0  0.4904166666666667 0.002380952380952381 0  0.495 0.002380952380952381 0  0.4995833333333334 0.002380952380952381 0  0.5041666666666667 0.002380952380952381 0  0.50875 0.002380952380952381 0  0.5133333333333334 0.002380952380952381 0  0.5179166666666667 0.002380952380952381 0  0.5225 0.002380952380952381 0  0.5270833333333333 0.002380952380952381 0  0.5316666666666667 0.002380952380952381 0  0.53625 0.002380952380952381 0  0.5408333333333333 0.002380952380952381 0  0.5454166666666667 0.002380952380952381 0  0.55 0.002380952380952381 0  0.5545833333333333 0.002380952380952381 0  0.5591666666666667 0.002380952380952381 0  0.5637500000000001 0.002380952380952381 0  0.5683333333333334 0.002380952380952381 0  0.5729166666666666 0.002380952380952381 0  0.5775 0.002380952380952381 0  0.5820833333333334 0.002380952380952381 0  0.5866666666666667 0.002380952380952381 0  0.5912499999999999 0.002380952380952381 0  0.5958333333333334 0.002380952380952381 0  0.6004166666666667 0.002380952380952381 0  0.605 0.002380952380952381 0  0.6095833333333334 0.002380952380952381 0  0.6141666666666667 0.002380952380952381 0  0.61875 0.002380952380952381 0  0.6233333333333333 0.002380952380952381 0  0.6279166666666667 0.002380952380952381 0  0.6325000000000001 0.002380952380952381 0  0.6370833333333333 0.002380952380952381 0  0.6416666666666666 0.002380952380952381 0  0.64625 0.002380952380952381 0  0.6508333333333334 0.002380952380952381 0  0.6554166666666666 0.002380952380952381 0  0.6599999999999999 0.002380952380952381 0  0.6645833333333334 0.002380952380952381 0  0.6691666666666667 0.002380952380952381 0  0.67375 0.002380952380952381 0  0.6783333333333333 0.002380952380952381 0  0.6829166666666667 0.002380952380952381 0  0.6875 0.002380952380952381 0  0.6920833333333333 0.002380952380952381 0  0.6966666666666667 0.002380952380952381 0  0.70125 0.002380952380952381 0  0.7058333333333333 0.002380952380952381 0  0.7104166666666667 0.002380952380952381 0  0.7150000000000001 0.002380952380952381 
[...]
<PointData  Scalars="pressure"> 
<DataArray  type="Float64"  Name="pressure"  format="ascii">2.1087928338335340e+04  2.1058233224591182e+04  2.1031023465460657e+04  2.1002434760556815e+04  2.0972561729593974e+04  2.0937186716030803e+04  2.0904492126687433e+04  2.0871770955333162e+04  2.0836197580192093e+04  2.0806974259962404e+04  2.0783181250569414e+04  2.0756849128283986e+04  2.0729762255690264e+04  2.0702333934649672e+04  2.0674714971063313e+04  2.0646949574845759e+04  2.0618999573565954e+04  2.0590768142519642e+04  2.0562208704125311e+04  2.0533473441920141e+04  2.0504797213202106e+04  2.0476182070821462e+04  2.0447496799491924e+04  2.0418743045457584e+04  2.0390130200221185e+04  2.0363085783257680e+04  1.4813430221634921e+04  1.4785871707584884e+04  1.4761752138304109e+04  1.4737515659393837e+04  1.4713003441718369e+04  1.4688250161835418e+04  1.4663423717745634e+04  1.4638634221790095e+04  1.4613853148730264e+04  1.4588974177415219e+04  1.4563930735243275e+04  1.4538758959326633e+04  1.4513688747452217e+04  1.4490054016534750e+04  1.4459866609854136e+04  1.4430921553837370e+04  1.4401594667521842e+04  1.4371761484143102e+04  1.4340928944114719e+04  1.4309519345259690e+04  1.4277146806204541e+04  1.4244303670621101e+04  1.4210817715066061e+04  1.4177109325109095e+04  1.4143305902117005e+04  1.4109644912430384e+04  1.4076624701359704e+04  1.4044128616127844e+04  1.4011690155532264e+04  1.3978472948357428e+04  1.3944327006012421e+04  1.3909493756425009e+04  1.3876917972673202e+04  1.3840614488369569e+04  1.3810176450590323e+04  1.3781480309998762e+04  1.3752874175972405e+04  1.3724310441506066e+04  1.3694435098802580e+04  1.3663381473568523e+04  1.3631581195875418e+04  1.3598955990553628e+04  1.3565670569294563e+04  1.3531765187033450e+04  1.3496847789999514e+04  1.3460039563714432e+04  1.3418433066650676e+04  1.3380788565423240e+04  1.3348494723885269e+04  1.3313569190418462e+04  1.3278046714242382e+04  1.3242541829511660e+04  1.3206483518162473e+04  1.3169755512671734e+04  1.3133799744908505e+04  1.3070387630579089e+04  1.2939232523246725e+04  1.2789818044861817e+04  1.2642610713177484e+04  1.2496980764989341e+04  1.2351257312455793e+04  1.2204880243794958e+04  1.2057723230003910e+04  1.1909836995662085e+04  1.1761329897401272e+04  1.1612317594010776e+04  1.1462903770376870e+04  1.1313174642726668e+04  1.1163199210958195e+04  1.1013031581471874e+04  1.0862713742117021e+04  1.0712278135629023e+04  1.0561749818697346e+04  1.0411148184293712e+04  1.0260488297927384e+04  1.0109781918436231e+04  9.9590382715982742e+03  9.8082646346474849e+03  9.6574667780862073e+03  9.5066493005650191e+03  9.3558158838449017e+03  9.2049694879986710e+03  9.0541125017960312e+03  8.9032468593253652e+03  8.7523741310321820e+03  8.6014955952445507e+03  8.4506122947110907e+03  8.2997250815444986e+03  8.1488346531320913e+03  7.9979415809607908e+03  7.8470463338487107e+03  7.6961492967350759e+03  7.5452507859244242e+03  7.3943510614867564e+03  7.2434503373669422e+03  7.0925487896422201e+03  6.9416465632779637e+03  6.7907437776623483e+03  6.6398405311457991e+03  6.4889369047677856e+03  6.3380329653190192e+03  6.1871287678593380e+03  6.0362243577893259e+03  5.8853197725557939e+03  5.7344150430566260e+03  5.5835101947986986e+03  5.4326052488528921e+03  5.2817002226424893e+03  5.1307951305947545e+03  4.9798899846802296e+03  4.8289847948601600e+03  4.6780795694588378e+03  4.5271743154749283e+03  4.3762690388434949e+03  4.2253637446586818e+03  4.0744584373656176e+03  3.9235531209289284e+03  3.7726477989846276e+03  3.6217424749816705e+03  3.4708371523194560e+03  3.3199318344878584e+03  3.1690265252170907e+03  3.0181212286465397e+03  2.8672159495238611e+03  2.7163106934497719e+03  2.5654054671901135e+03  2.4145002790865988e+03  2.2635951396132023e+03  2.1126900621507066e+03  1.9617850640945753e+03  1.8108801684846162e+03  1.6599754064743863e+03  1.5090708212024101e+03  1.3581664740503761e+03  1.2072624554955455e+03  1.0563589022776043e+03  9.0545604691612698e+02  7.5455417080000336e+02  6.0365471930177034e+02  4.5275236282781333e+02  3.0190539150709475e+02  1.5056425402750889e+02  4.2690987197291470e+00  2.1086275840465514e+04  2.1057916593648715e+04  2.1031893582591245e+04  2.1000665745533068e+04  1.5276589209380883e+04  1.5251744448265628e+04  1.5228170196973457e+04  1.5204579902644969e+04  1.5179686135622167e+04  2.0807657752715870e+04  2.0783374206388347e+04  2.0756916353326091e+04  2.0729796244450641e+04  2.0702352868942377e+04  2.0674729440762967e+04  2.0646968291832785e+04  2.0619030691571599e+04  2.0590808209680559e+04  2.0562230437438713e+04  2.0533460717540951e+04  2.0504787989546359e+04  2.0476192782079186e+04  2.0447509232403881e+04  2.0418727895309337e+04  2.0390084776672637e+04  2.0362369090551838e+04  2.0333142116431565e+04  2.0297356712887711e+04  2.0264237012472862e+04  2.0230999074645108e+04  2.0197341693196762e+04  2.0163338651094746e+04  2.0129243739669622e+04  2.0095218492870354e+04  2.0061214902940763e+04  2.0027071193046431e+04  1.9992687836767327e+04  1.9958119805163900e+04  1.9923582715668788e+04  1.9890925735681329e+04  1.4459697254270463e+04  1.9810143760258456e+04  1.4401687983412123e+04  1.9728939152063176e+04  1.4341039333270855e+04  1.9643493670483833e+04  1.4277235854547571e+04  1.9553950070875006e+04  1.4210857408865764e+04  1.9461676410639124e+04  1.4143273741635416e+04  1.9369018458173599e+04  1.4076509863018426e+04  1.9279093249572492e+04  1.4011872677271620e+04  1.9189013815325376e+04  1.3944471629021280e+04  1.9094317961364912e+04  1.3875715557786873e+04  1.3840025136325798e+04  1.3810018548064891e+04  1.3781521662390905e+04  1.3752800623018595e+04  1.3724516174690798e+04  1.3694561869607176e+04  1.3663449488517221e+04  1.3631684121771019e+04  1.3599025812208301e+04  1.3565731471546524e+04  1.3531870675818120e+04  1.3497042539533233e+04  1.3460428726026556e+04  1.3419755156501908e+04  1.8369072053823140e+04  1.8324421774335387e+04  1.8276290875329636e+04  1.8227435522996653e+04  1.8178827683661304e+04  1.8129293067666633e+04  1.8078754567323103e+04  1.8029088975544229e+04  1.3078230340359751e+04  1.2940363475994111e+04  1.2789234082077835e+04  1.2642486765372487e+04  1.2497005317842986e+04  1.2351335379246155e+04  1.2204967884972553e+04  1.2057803527208986e+04  1.1909904717911291e+04  1.1761384727368211e+04  1.1612361048287568e+04  1.1462937840216327e+04  1.1313201235127202e+04  1.1163219954880040e+04  1.1013047793515612e+04  1.0862726455300412e+04  1.0712288147475818e+04  1.0561757739941493e+04  1.0411154481240217e+04  1.0260493326775912e+04  1.0109785952044193e+04  9.9590415198938845e+03  9.8082672600062633e+03  9.6574689068402658e+03  9.5066510315995056e+03  9.3558172950246408e+03  9.2049706409877599e+03  9.0541134456895361e+03  8.9032476334020594e+03  8.7523747668550186e+03  8.6014961182748066e+03  8.4506127255576448e+03  8.2997254369376878e+03  8.1488349466879263e+03  7.9979418237845739e+03  7.8470465350145096e+03  7.6961494636686693e+03  7.5452509247105590e+03  7.3943511771167159e+03  7.2434504339387149e+03  7.0925488705228809e+03  6.9416466312357325e+03  6.7907438349742251e+03  6.6398405796854731e+03  6.4889369460775497e+03  6.3380330006686581e+03  6.1871287982944141e+03  6.0362243841708087e+03  5.8853197955925962e+03  5.7344150633323225e+03  5.5835102127934952e+03  5.4326052649616522e+03  5.2817002371895524e+03  5.1307951438460750e+03  4.9798899968533451e+03  4.8289848061323046e+03  4.6780795799735479e+03  4.5271743253473887e+03  4.3762690481647887e+03  4.2253637534991467e+03  4.0744584457773603e+03  3.9235531289476439e+03  3.7726478066307204e+03  3.6217424822607131e+03  3.4708371592219382e+03  3.3199318409881334e+03  3.1690265312713850e+03  3.0181212341897308e+03  2.8672159544646306e+03  2.7163106976634726e+03  2.5654054705083418e+03  2.4145002812818234e+03  2.2635951403758149e+03  2.1126900610540974e+03  1.9617850605407095e+03  1.8108801616167736e+03  1.6599753950335821e+03  1.5090708032755847e+03  1.3581664466668544e+03  1.2072624134916152e+03  1.0563588391852143e+03  9.0545593097886604e+02  7.5455410658687958e+02  6.0365353843568846e+02  4.5275921940806489e+02  3.0184259977899370e+02  1.5112639332761870e+02  -2.3169241407506122e-01  2.1085120361468991e+04  2.1057053818154352e+04  2.1030429132915171e+04  2.0997710132599717e+04  2.0968691108217921e+04  2.0936194269104992e+04  2.0904506534654920e+04  2.0872817007618403e+04  2.0840337743336746e+04  2.0809964503335847e+04  2.0783912644711803e+04  2.0757147849661025e+04  2.0729908675481212e+04  2.0702416569600620e+04  2.0674777498873311e+04  2.0647030715532470e+04  2.0619138598077912e+04  2.0590955657172013e+04  2.0562313936034272e+04  2.0533401109196726e+04  2.0504751825874660e+04  2.0476236243188432e+04  2.0447557260901023e+04  2.0418691828713007e+04  2.0389856712592209e+04  2.0361008548483045e+04  2.0330487962202948e+04  2.0297276235467478e+04  2.0264259948174262e+04  2.0231095733920789e+04  2.0197414106243566e+04  2.0163353110301348e+04  2.0129222913603455e+04  2.0095210677948919e+04  2.0061244821057418e+04  2.0027122715687477e+04  1.9992729475003849e+04  1.9958114230368432e+04  1.9923491923538666e+04  1.9889373656772939e+04  1.9849636425851935e+04  1.9810217619120249e+04  1.9770155031524522e+04  1.9729085301561157e+04  1.9686925026927594e+04  1.9643629782680229e+04  1.9599297893633942e+04  1.9554030939650922e+04  1.9508081256460377e+04  1.9461665980906168e+04  1.9415165976035907e+04  1.9368886993521130e+04  1.9323327064385219e+04  1.9278956251374093e+04  1.9235407781359860e+04  1.9188983366899603e+04  1.9142679371533617e+04  1.9094431804858712e+04  1.9045025202688084e+04  1.8997617940294374e+04  1.8957382133050181e+04  1.8918912470638923e+04  1.8878726374322068e+04  1.8841075978613859e+04  1.8799448493368636e+04  1.8756649431923252e+04  1.8713190596104039e+04  1.8668223920294666e+04  1.8622500797808432e+04  1.8576129911664244e+04  1.8528502467279166e+04  1.8478647668757676e+04  1.8424340340378152e+04  1.8371368890821424e+04  1.8324712325543136e+04  1.8276483434532092e+04  1.8227250905288824e+04  1.8179093327753388e+04  1.8129501196893234e+04  1.8078870386629002e+04  1.8027973665840800e+04  1.7962627954104013e+04  1.2939789484315039e+04  1.2787517047715935e+04  1.2642105797205766e+04  1.2497116614587976e+04  1.2351616440850215e+04  1.2205275404414717e+04  1.2058082703624306e+04  1.1910139141483371e+04  1.1761574076903375e+04  1.1612510913734583e+04  1.1463055252509250e+04  1.1313292841388955e+04  1.1163291399989328e+04  1.1013103625736530e+04  1.0862770236922994e+04  1.0712322625908344e+04  1.0561785017956285e+04  1.0411176163941593e+04  1.0260510640216189e+04  1.0109799835501472e+04  9.9590526961588694e+03  9.8082762882837396e+03  9.6574762223280431e+03  9.5066569750446124e+03  9.3558221348190473e+03  9.2049745897409248e+03  9.0541166727188684e+03  8.9032502742032484e+03  8.7523769303306963e+03  8.6014978922913670e+03  8.4506141812477799e+03  8.2997266320552808e+03  8.1488359282418787e+03  7.9979426301195872e+03  7.8470471974645798e+03  7.6961500078779318e+03  7.5452513716933618e+03  7.3943515441118834e+03  7.2434507351004668e+03  7.0925491174813187e+03  6.9416468335527443e+03  6.7907440005151520e+03  6.6398407149226596e+03  6.4889370563386583e+03  6.3380330903400663e+03  6.1871288709879937e+03  6.0362244428607746e+03  5.8853198427278940e+03  5.7344151009289362e+03  5.5835102425102987e+03  5.4326052881627165e+03  5.2817002549953013e+03  5.1307951571752637e+03  4.9798900064574163e+03  4.8289848126234683e+03  4.6780795838476142e+03  4.5271743270021825e+03  4.3762690479148832e+03  4.2253637515873888e+03  4.0744584423836277e+03  3.9235531241950771e+03  3.7726478005896183e+03  3.6217424749501065e+03  3.4708371506087165e+03  3.3199318309834380e+03  3.1690265197237227e+03  3.0181212208738875e+03  2.8672159390649836e+03  2.7163106797494629e+03  2.5654054494986271e+03  2.4145002563915227e+03  2.2635951105378581e+03  2.1126900247996905e+03  1.9617850158134049e+03  1.8108801054753712e+03  1.6599753231617885e+03  1.5090707091475235e+03  1.3581663200344024e+03  1.2072622377892162e+03  1.0563585846344729e+03  9.0545555486610692e+02  7.5455343709957026e+02  6.0365294282347247e+02  4.5275398222924150e+02  3.0186470073943758e+02  1.5100001813565561e+02  3.0504525996942505e-02  2.1084000098794972e+04  2.1055936987377307e+04  2.1027646504780136e+04  2.0997291753039473e+04  2.0967135285233853e+04  2.0935850368809759e+04  2.0904507308883385e+04  2.0873192069162975e+04  2.0841905070505851e+04  2.0812176116197526e+04  2.0784692742186198e+04  2.0757495277696999e+04  2.0730085697996918e+04  2.0702517357409612e+04  2.0674851693481931e+04  2.0647127275771276e+04  2.0619321184898075e+04  2.0591241748455654e+04  2.0562502147508458e+04  2.0533219800675557e+04  2.0504678980869805e+04  2.0476337894793633e+04  2.0447667078477905e+04  2.0418647537328408e+04  2.0389553919947884e+04  2.0360027143643267e+04  2.0328912756585622e+04  2.0296847755536452e+04  2.0264388073094495e+04  2.0231345536589768e+04  2.0197597933497786e+04  2.0163379385555538e+04  2.0129157233402369e+04  2.0095184116616390e+04  2.0061321828246750e+04  2.0027255725746185e+04  1.9992833865856795e+04  1.9958132605299972e+04  1.9923244446485340e+04  1.9887781321346123e+04  1.9849622554529098e+04  1.9810486378141606e+04  1.9770516245576280e+04  1.9729495634982388e+04  1.9687330334856200e+04  1.9644021631311229e+04  1.9599628232663250e+04  1.9554297307926514e+04  1.9508237740299948e+04  1.9461719035327780e+04  1.9415070653979648e+04  1.9368649860982150e+04  1.9322911465161415e+04  1.9278319373875493e+04  1.9237193111392589e+04  1.9188480347763063e+04  1.9143424300648487e+04  1.9095347481966288e+04  1.9040835236904699e+04  1.8995622083487619e+04  1.8956691657954700e+04  1.8920342634116128e+04  1.8876742696123536e+04  1.8843209009036113e+04  1.8799464742268508e+04  1.8756812197306695e+04  1.8713729343019957e+04  1.8668383790900898e+04  1.8622663267823700e+04  1.8576492087450162e+04  1.8529086867352195e+04  1.8479877610516472e+04  1.8426902670736075e+04  1.8373769369406014e+04  1.8325382498924235e+04  1.8277140927144948e+04  1.8226198961409536e+04  1.8180021058736878e+04  1.8130089572243600e+04  1.8078517949001176e+04  1.8029499594322577e+04  1.3071147716954678e+04  1.2931345839584923e+04  1.2785300191112177e+04  1.2641621366893565e+04  1.2497398825012571e+04  1.2352135285216838e+04  1.2205816771634696e+04  1.2058565315772401e+04  1.1910540830118114e+04  1.1761896981430069e+04  1.1612765797177122e+04  1.1463254643733324e+04  1.1313448291148146e+04  1.1163412602771297e+04  1.1013198343056243e+04  1.0862844525357888e+04  1.0712381146494541e+04  1.0561831333766735e+04  1.0411212993161203e+04  1.0260540058764876e+04  1.0109823433924417e+04  9.9590716987840824e+03  9.8082916427491837e+03  9.6574886664950463e+03  9.5066670869422669e+03  9.3558303699776425e+03  9.2049813091977776e+03  9.0541221641334978e+03  8.9032547678748997e+03  8.7523806114316430e+03  8.6015009102769400e+03  8.4506166571470403e+03  8.2997286641597093e+03  8.1488375965740752e+03  7.9979439999657443e+03  7.8470483221830527e+03  7.6961509311438622e+03  7.5452521293009022e+03  7.3943521654271062e+03  7.2434512442367941e+03  7.0925495342533623e+03  6.9416471742523372e+03  6.7907442785441144e+03  6.6398409413096952e+03  6.4889372401622531e+03  6.3380332390749300e+03  6.1871289907891369e+03  6.0362245387966805e+03  5.8853199189719562e+03  5.7344151609167693e+03  5.5835102890689568e+03  5.4326053236168646e+03  5.2817002812543988e+03  5.1307951758050740e+03  4.9798900187385889e+03  4.8289848195993645e+03  4.6780795863632184e+03  4.5271743257355101e+03  4.3762690434020806e+03  4.2253637442423833e+03  4.0744584325130563e+03  3.9235531120089458e+03  3.7726477862079591e+03  3.6217424584056953e+03  3.4708371318456730e+03  3.3199318098511835e+03  3.1690264959654032e+03  3.0181211941077586e+03  2.8672159087563950e+03  2.7163106451697590e+03  2.5654054096651639e+03  2.4145002099796802e+03  2.2635950557502038e+03  2.1126899591678939e+03  1.9617849358914818e+03  1.8108800063519393e+03  1.6599751976610462e+03  1.5090705464724922e+03  1.3581661033877676e+03  1.2072619398865954e+03  1.0563581597995776e+03  9.0545491699772742e+02  7.5455245480079600e+02  6.0365113653792946e+02  4.5275160712876516e+02  3.0185741218781499e+02  1.5095887844988110e+02  -2.4393844699610156e-03  2.1082874514755946e+04  2.1054649763900143e+04  2.1025966559000608e+04  2.0996257537890117e+04  2.0966116683421275e+04  2.0935406038215140e+04  2.0904503609279149e+04  2.0873642133389410e+04  2.0843088820273151e+04  2.0813630429401339e+04  2.0785517599429764e+04  2.0757904233804958e+04  2.0730305290996512e+04  2.0702643507486075e+04  2.0674939973062934e+04  2.0647238588402095e+04  2.0619566367249496e+04  2.0591709872605246e+04  2.0562956235364025e+04  2.0532676406356866e+04  2.0504591870309676e+04  2.0476544232837783e+04  2.0447892075247612e+04  2.0418598961033364e+04  2.0389287252582220e+04  2.0359619673513494e+04  2.0327555847567750e+04  2.0296487670780029e+04  2.0264682733342623e+04  2.0231802038983245e+04  2.0197922412260363e+04  2.0163394544532606e+04  2.0129005184970265e+04  2.0095119376408660e+04  2.0061462646427506e+04  2.0027498463048985e+04  1.9993008154393377e+04  1.9958212083311151e+04  1.9922992332758680e+04  1.9887151778356831e+04  1.9849720147888242e+04  1.9810987864496026e+04  1.9771169180911489e+04  1.9730209353063045e+04  1.9688052099778481e+04  1.9644700230982766e+04  1.9600218789984538e+04  1.9554754234913282e+04  1.9508522936624388e+04  1.9461801983922407e+04  1.9414916366560516e+04  1.9368230087265216e+04  1.9322170708933572e+04  1.9277265858135659e+04  1.9235461353006798e+04  1.9186527645659378e+04  1.9145379889881417e+04  1.3913400523047079e+04  1.3869744222190304e+04  1.8992772776694725e+04  1.8956036536456286e+04  1.8918153429401766e+04  1.8874789330406380e+04  1.3726292478559650e+04  1.3695994821496903e+04  1.3663921994203534e+04  1.3636245302435766e+04  1.3599780795457074e+04  1.3566753935580853e+04  1.3534452640729920e+04  1.3500804799818983e+04  1.3469319578545148e+04  1.3433364501400492e+04  1.3388923837884900e+04  1.3352644312631024e+04  1.3316685176951942e+04  1.3281456808764129e+04  1.3245821014972438e+04  1.3208983249565377e+04  1.3169792816393201e+04  1.3127506037776200e+04  1.3043670971639520e+04  1.2920715349581551e+04  1.2782748487571489e+04  1.2641357503415062e+04  1.2497973414999382e+04  1.2352944282718337e+04  1.2206611071833573e+04  1.2059256128759296e+04  1.1911108693074080e+04  1.1762350351051417e+04  1.1613122279094527e+04  1.1463532920768046e+04  1.1313665015463985e+04  1.1163581521630482e+04  1.1013330362410161e+04  1.0862948110053345e+04  1.0712462790465906e+04  1.0561895992506923e+04  1.0411264443929946e+04  1.0260581185694811e+04  1.0109856447270105e+04  9.9590983007398718e+03  9.8083131517138518e+03  9.6575061098123915e+03  9.5066812700751088e+03  9.3558419282087580e+03  9.2049907464244079e+03  9.0541298821335931e+03  8.9032610885252598e+03  8.7523857936924342e+03  8.6015051632693267e+03  8.4506201502957010e+03  8.2997315351146226e+03  8.1488399574393015e+03  7.9979459422276714e+03  7.8470499206318627e+03  7.6961522470098917e+03  7.5452532127744798e+03  7.3943530576911517e+03  7.2434519791120319e+03  7.0925501395339506e+03  6.9416476727929230e+03  6.7907446891464624e+03  6.6398412794471569e+03  6.4889375185726240e+03  6.3380334682461898e+03  6.1871291793578575e+03  6.0362246938750141e+03  5.8853200464162082e+03  5.7344152655480311e+03  5.5835103748544125e+03  5.4326053938187433e+03  5.2817003385522976e+03  5.1307952223962975e+03  4.9798900564203414e+03  4.8289848498358897e+03  4.6780796103403718e+03  4.5271743444048743e+03  4.3762690575161678e+03  4.2253637543822588e+03  4.0744584391093072e+03  3.9235531153566758e+03  3.7726477864762064e+03  3.6217424556413557e+03  3.4708371259716737e+03  3.3199318006582666e+03  3.1690264830962446e+03  3.0181211770314389e+03  2.8672158867300177e+03  2.7163106171822651e+03  2.5654053743556256e+03  2.4145001655178612e+03  2.2635949