<?xml version="1.0"?>
<VTKFile type="UnstructuredGrid"  version="0.1"  >
<UnstructuredGrid>
<Piece  NumberOfPoints="21400" NumberOfCells="42336">
<Points>
<DataArray  type="Float64"  NumberOfComponents="3"  format="ascii">0 0 0  0.004583333333333333 0 0  0.009166666666666667 0 0  0.01375 0 0  0.01833333333333333 0 0  0.02291666666666667 0 0  0.0275 0 0  0.03208333333333334 0 0  0.03666666666666667 0 0  0.04125 0 0  0.04583333333333334 0 0  0.05041666666666667 0 0  0.055 0 0  0.05958333333333334 0 0  0.06416666666666668 0 0  0.06875000000000001 0 0  0.07333333333333333 0 0  0.07791666666666666 0 0  0.08249999999999999 0 0  0.08708333333333333 0 0  0.09166666666666667 0 0  0.09625000000000002 0 0  0.1008333333333333 0 0  0.1054166666666667 0 0  0.11 0 0  0.1145833333333333 0 0  0.1191666666666667 0 0  0.12375 0 0  0.1283333333333334 0 0  0.1329166666666667 0 0  0.1375 0 0  0.1420833333333333 0 0  0.1466666666666667 0 0  0.15125 0 0  0.1558333333333333 0 0  0.1604166666666667 0 0  0.165 0 0  0.1695833333333333 0 0  0.1741666666666667 0 0  0.17875 0 0  0.1833333333333333 0 0  0.1879166666666667 0 0  0.1925 0 0  0.1970833333333333 0 0  0.2016666666666667 0 0  0.20625 0 0  0.2108333333333333 0 0  0.2154166666666666 0 0  0.22 0 0  0.2245833333333334 0 0  0.2291666666666667 0 0  0.23375 0 0  0.2383333333333333 0 0  0.2429166666666667 0 0  0.2475 0 0  0.2520833333333333 0 0  0.2566666666666667 0 0  0.26125 0 0  0.2658333333333334 0 0  0.2704166666666666 0 0  0.275 0 0  0.2795833333333334 0 0  0.2841666666666667 0 0  0.28875 0 0  0.2933333333333333 0 0  0.2979166666666667 0 0  0.3025 0 0  0.3070833333333334 0 0  0.3116666666666666 0 0  0.31625 0 0  0.3208333333333333 0 0  0.3254166666666667 0 0  0.33 0 0  0.3345833333333333 0 0  0.3391666666666667 0 0  0.34375 0 0  0.3483333333333333 0 0  0.3529166666666667 0 0  0.3575 0 0  0.3620833333333333 0 0  0.3666666666666667 0 0  0.37125 0 0  0.3758333333333334 0 0  0.3804166666666667 0 0  0.3850000000000001 0 0  0.3895833333333333 0 0  0.3941666666666667 0 0  0.39875 0 0  0.4033333333333334 0 0  0.4079166666666666 0 0  0.4125 0 0  0.4170833333333334 0 0  0.4216666666666667 0 0  0.42625 0 0  0.4308333333333333 0 0  0.4354166666666667 0 0  0.44 0 0  0.4445833333333333 0 0  0.4491666666666667 0 0  0.45375 0 0  0.4583333333333333 0 0  0.4629166666666666 0 0  0.4675 0 0  0.4720833333333334 0 0  0.4766666666666667 0 0  0.4812500000000001 0 0  0.4858333333333333 0 0  0.4904166666666667 0 0  0.495 0 0  0.4995833333333334 0 0  0.5041666666666667 0 0  0.50875 0 0  0.5133333333333334 0 0  0.5179166666666667 0 0  0.5225 0 0  0.5270833333333333 0 0  0.5316666666666667 0 0  0.53625 0 0  0.5408333333333333 0 0  0.5454166666666667 0 0  0.55 0 0  0.5545833333333333 0 0  0.5591666666666667 0 0  0.5637500000000001 0 0  0.5683333333333334 0 0  0.5729166666666666 0 0  0.5775 0 0  0.5820833333333334 0 0  0.5866666666666667 0 0  0.5912499999999999 0 0  0.5958333333333334 0 0  0.6004166666666667 0 0  0.605 0 0  0.6095833333333334 0 0  0.6141666666666667 0 0  0.61875 0 0  0.6233333333333333 0 0  0.6279166666666667 0 0  0.6325000000000001 0 0  0.6370833333333333 0 0  0.6416666666666666 0 0  0.64625 0 0  0.6508333333333334 0 0  0.6554166666666666 0 0  0.6599999999999999 0 0  0.6645833333333334 0 0  0.6691666666666667 0 0  0.67375 0 0  0.6783333333333333 0 0  0.6829166666666667 0 0  0.6875 0 0  0.6920833333333333 0 0  0.6966666666666667 0 0  0.70125 0 0  0.7058333333333333 0 0  0.7104166666666667 0 0  0.7150000000000001 0 0  0.7195833333333334 0 0  0.7241666666666666 0 0  0.72875 0 0  0.7333333333333334 0 0  0.7379166666666667 0 0  0.7425 0 0  0.7470833333333333 0 0  0.7516666666666667 0 0  0.75625 0 0  0.7608333333333334 0 0  0.7654166666666666 0 0  0.7700000000000001 0 0  0 0.002380952380952381 0  0.004583333333333333 0.002380952380952381 0  0.009166666666666667 0.002380952380952381 0  0.01375 0.002380952380952381 0  0.01833333333333333 0.002380952380952381 0  0.02291666666666667 0.002380952380952381 0  0.0275 0.002380952380952381 0  0.03208333333333334 0.002380952380952381 0  0.03666666666666667 0.002380952380952381 0  0.04125 0.002380952380952381 0  0.04583333333333334 0.002380952380952381 0  0.05041666666666667 0.002380952380952381 0  0.055 0.002380952380952381 0  0.05958333333333334 0.002380952380952381 0  0.06416666666666668 0.002380952380952381 0  0.06875000000000001 0.002380952380952381 0  0.07333333333333333 0.002380952380952381 0  0.07791666666666666 0.002380952380952381 0  0.08249999999999999 0.002380952380952381 0  0.08708333333333333 0.002380952380952381 0  0.09166666666666667 0.002380952380952381 0  0.09625000000000002 0.002380952380952381 0  0.1008333333333333 0.002380952380952381 0  0.1054166666666667 0.002380952380952381 0  0.11 0.002380952380952381 0  0.1145833333333333 0.002380952380952381 0  0.1191666666666667 0.002380952380952381 0  0.12375 0.002380952380952381 0  0.1283333333333334 0.002380952380952381 0  0.1329166666666667 0.002380952380952381 0  0.1375 0.002380952380952381 0  0.1420833333333333 0.002380952380952381 0  0.1466666666666667 0.002380952380952381 0  0.15125 0.002380952380952381 0  0.1558333333333333 0.002380952380952381 0  0.1604166666666667 0.002380952380952381 0  0.165 0.002380952380952381 0  0.1695833333333333 0.002380952380952381 0  0.1741666666666667 0.002380952380952381 0  0.17875 0.002380952380952381 0  0.1833333333333333 0.002380952380952381 0  0.1879166666666667 0.002380952380952381 0  0.1925 0.002380952380952381 0  0.1970833333333333 0.002380952380952381 0  0.2016666666666667 0.002380952380952381 0  0.20625 0.002380952380952381 0  0.2108333333333333 0.002380952380952381 0  0.2154166666666666 0.002380952380952381 0  0.22 0.002380952380952381 0  0.2245833333333334 0.002380952380952381 0  0.2291666666666667 0.002380952380952381 0  0.23375 0.002380952380952381 0  0.2383333333333333 0.002380952380952381 0  0.2429166666666667 0.002380952380952381 0  0.2475 0.002380952380952381 0  0.2520833333333333 0.002380952380952381 0  0.2566666666666667 0.002380952380952381 0  0.26125 0.002380952380952381 0  0.2658333333333334 0.002380952380952381 0  0.2704166666666666 0.002380952380952381 0  0.275 0.002380952380952381 0  0.2795833333333334 0.002380952380952381 0  0.2841666666666667 0.002380952380952381 0  0.28875 0.002380952380952381 0  0.2933333333333333 0.002380952380952381 0  0.2979166666666667 0.002380952380952381 0  0.3025 0.002380952380952381 0  0.3070833333333334 0.002380952380952381 0  0.3116666666666666 0.002380952380952381 0  0.31625 0.002380952380952381 0  0.3208333333333333 0.002380952380952381 0  0.3254166666666667 0.002380952380952381 0  0.33 0.002380952380952381 0  0.3345833333333333 0.002380952380952381 0  0.3391666666666667 0.002380952380952381 0  0.34375 0.002380952380952381 0  0.3483333333333333 0.002380952380952381 0  0.3529166666666667 0.002380952380952381 0  0.3575 0.002380952380952381 0  0.3620833333333333 0.002380952380952381 0  0.3666666666666667 0.002380952380952381 0  0.37125 0.002380952380952381 0  0.3758333333333334 0.002380952380952381 0  0.3804166666666667 0.002380952380952381 0  0.3850000000000001 0.002380952380952381 0  0.3895833333333333 0.002380952380952381 0  0.3941666666666667 0.002380952380952381 0  0.39875 0.002380952380952381 0  0.4033333333333334 0.002380952380952381 0  0.4079166666666666 0.002380952380952381 0  0.4125 0.002380952380952381 0  0.4170833333333334 0.002380952380952381 0  0.4216666666666667 0.002380952380952381 0  0.42625 0.002380952380952381 0  0.4308333333333333 0.002380952380952381 0  0.4354166666666667 0.002380952380952381 0  0.44 0.002380952380952381 0  0.4445833333333333 0.002380952380952381 0  0.4491666666666667 0.002380952380952381 0  0.45375 0.002380952380952381 0  0.4583333333333333 0.002380952380952381 0  0.4629166666666666 0.002380952380952381 0  0.4675 0.002380952380952381 0  0.4720833333333334 0.002380952380952381 0  0.4766666666666667 0.002380952380952381 0  0.4812500000000001 0.002380952380952381 0  0.4858333333333333 0.002380952380952381 0  0.4904166666666667 0.002380952380952381 0  0.495 0.002380952380952381 0  0.4995833333333334 0.002380952380952381 0  0.5041666666666667 0.002380952380952381 0  0.50875 0.002380952380952381 0  0.5133333333333334 0.002380952380952381 0  0.5179166666666667 0.002380952380952381 0  0.5225 0.002380952380952381 0  0.5270833333333333 0.002380952380952381 0  0.5316666666666667 0.002380952380952381 0  0.53625 0.002380952380952381 0  0.5408333333333333 0.002380952380952381 0  0.5454166666666667 0.002380952380952381 0  0.55 0.002380952380952381 0  0.5545833333333333 0.002380952380952381 0  0.5591666666666667 0.002380952380952381 0  0.5637500000000001 0.002380952380952381 0  0.5683333333333334 0.002380952380952381 0  0.5729166666666666 0.002380952380952381 0  0.5775 0.002380952380952381 0  0.5820833333333334 0.002380952380952381 0  0.5866666666666667 0.002380952380952381 0  0.5912499999999999 0.002380952380952381 0  0.5958333333333334 0.002380952380952381 0  0.6004166666666667 0.002380952380952381 0  0.605 0.002380952380952381 0  0.6095833333333334 0.002380952380952381 0  0.6141666666666667 0.002380952380952381 0  0.61875 0.002380952380952381 0  0.6233333333333333 0.002380952380952381 0  0.6279166666666667 0.002380952380952381 0  0.6325000000000001 0.002380952380952381 0  0.6370833333333333 0.002380952380952381 0  0.6416666666666666 0.002380952380952381 0  0.64625 0.002380952380952381 0  0.6508333333333334 0.002380952380952381 0  0.6554166666666666 0.002380952380952381 0  0.6599999999999999 0.002380952380952381 0  0.6645833333333334 0.002380952380952381 0  0.6691666666666667 0.002380952380952381 0  0.67375 0.002380952380952381 0  0.6783333333333333 0.002380952380952381 0  0.6829166666666667 0.002380952380952381 0  0.6875 0.002380952380952381 0  0.6920833333333333 0.002380952380952381 0  0.6966666666666667 0.002380952380952381 0  0.70125 0.002380952380952381 0  0.7058333333333333 0.002380952380952381 0  0.7104166666666667 0.002380952380952381 0  0.7150000000000001 0.002380952380952381 
[...]
<PointData  Scalars="pressure"> 
<DataArray  type="Float64"  Name="pressure"  format="ascii">1.6009352805195718e+04  1.5979657770345608e+04  1.5952448294518299e+04  1.5923860091352781e+04  1.5893987870594859e+04  1.5858614141336215e+04  1.5825921111435955e+04  1.5793201906369010e+04  1.5757631127814331e+04  1.5728410255449520e+04  1.5704619561484213e+04  1.5678290232042136e+04  1.5651206359749822e+04  1.5623780983905543e+04  1.5596164486374459e+04  1.5568400369530209e+04  1.5540449302614021e+04  1.5512212583878541e+04  1.5483640512339403e+04  1.5454879742328125e+04  1.5426154951725681e+04  1.5397449087652350e+04  1.5368593210590640e+04  1.5339498909402093e+04  1.5310176965982504e+04  1.5280655120682892e+04  1.5251011030896043e+04  1.5221339057744164e+04  1.5191544578269142e+04  1.5161475855707213e+04  1.5131176108510650e+04  1.5101008361322358e+04  1.5071508412359224e+04  1.5047483530575935e+04  1.0933179586665919e+04  1.0909159215596996e+04  1.0886022012852343e+04  1.0863484033731831e+04  1.0841636301557422e+04  1.0821549690731039e+04  1.0796654785202840e+04  1.0773256961836852e+04  1.0750287206563675e+04  1.0727284608471460e+04  1.0704062723354555e+04  1.0680642903243328e+04  1.0656757242822630e+04  1.0632548733356409e+04  1.0607652956750082e+04  1.0582311654471405e+04  1.0556081080368969e+04  1.0529310278231933e+04  1.0501515707741593e+04  1.0473038923036276e+04  1.0442086071414820e+04  1.0408908161360536e+04  1.0373101559931820e+04  1.0336432045296080e+04  1.0301481901376939e+04  1.0259574972832956e+04  1.0219615386605599e+04  1.0179329769748967e+04  1.0139121416213247e+04  1.0098669953182558e+04  1.0057965297344226e+04  1.0019670956324882e+04  9.9831994858761500e+03  9.9456749779625316e+03  9.9071980771532126e+03  9.8688507312608290e+03  9.8310913938771027e+03  9.7945143348847578e+03  9.7581142833901231e+03  9.7277396827492084e+03  9.7033800585243516e+03  9.6774252351161358e+03  9.6499312916595227e+03  9.6215617029519253e+03  9.5919219180557302e+03  9.5617204940400989e+03  9.5321688466972610e+03  9.5035713142506393e+03  9.4750455801758835e+03  9.4468658147358819e+03  9.4181471982347230e+03  9.3891129811825867e+03  9.3602552322335505e+03  9.3315752705179530e+03  9.3030793668413517e+03  9.2746943120601627e+03  9.2464368681033757e+03  9.2182402415051038e+03  9.1901254533822957e+03  9.1620163426708732e+03  9.1338749855500409e+03  9.1054306856158473e+03  9.0764718912213939e+03  9.0470314128565060e+03  9.0171242302239552e+03  8.9867077117535537e+03  8.9557252011140008e+03  8.9240972596519096e+03  8.8917186280476053e+03  8.8584618324301227e+03  8.8241821314694207e+03  8.7888310450888566e+03  8.7528963945419709e+03  8.7171109601569242e+03  8.6809030817825205e+03  8.6440657066532876e+03  8.6080182723157359e+03  8.5444820187153164e+03  8.4131094126335811e+03  8.2634851835999452e+03  8.1161118432998837e+03  7.9703525795806218e+03  7.8245271017854639e+03  7.6780688049541786e+03  7.5308466647890345e+03  7.3829079306624726e+03  7.2343583307402168e+03  7.0853115028595612e+03  6.9358695579744226e+03  6.7861174739450835e+03  6.6361232682636028e+03  6.4859402627241407e+03  6.3356098150750568e+03  6.1851638597220217e+03  6.0346270417179248e+03  5.8840184196616356e+03  5.7333527867550984e+03  5.5826416796082367e+03  5.4318941423311071e+03  5.2811173034446074e+03  5.1303168115866347e+03  4.9794971654687442e+03  4.8286619648554033e+03  4.6778141025346113e+03  4.5269559120768490e+03  4.3760892823197055e+03  4.2252157466660856e+03  4.0743365531936111e+03  3.9234527200424077e+03  3.7725650794281910e+03  3.6216743128053763e+03  3.4707809790990764e+03  3.3198855374762275e+03  3.1689883657918331e+03  3.0180897755963092e+03  2.8671900244014637e+03  2.7162893257611286e+03  2.5653878576165689e+03  2.4144857692797113e+03  2.2635831873748452e+03  2.1126802210316737e+03  1.9617769666228126e+03  1.8108735123786219e+03  1.6599699433147446e+03  1.5090663471302300e+03  1.3581628221398212e+03  1.2072594895119901e+03  1.0563565115859158e+03  9.0545414234728867e+02  7.5455268132087292e+02  6.0365358936100063e+02  4.5275155029353402e+02  3.0190486598711607e+02  1.5056399676496667e+02  4.2690914801892434e+00  1.6007700286263151e+04  1.5979341120019159e+04  1.5953318375947858e+04  1.5922091090063999e+04  1.1577033628573823e+04  1.1552189775974828e+04  1.1528616645440081e+04  1.1505027763580079e+04  1.1480135802494193e+04  1.5729093654740987e+04  1.5704812471344907e+04  1.5678357433398309e+04  1.5651240350844584e+04  1.5623799964205780e+04  1.5596179075444161e+04  1.5568419326353873e+04  1.5540480854618716e+04  1.5512253402926834e+04  1.5483663555375073e+04  1.5454869362376501e+04  1.5426149974560656e+04  1.5397467783266788e+04  1.5368621222144422e+04  1.5339523252132189e+04  1.5310199666306280e+04  1.5280669923938367e+04  1.5251008859153146e+04  1.5221351181244376e+04  1.5191578677971154e+04  1.5161505873358497e+04  1.5131172107081518e+04  1.5100907862867460e+04  1.5071489053180250e+04  1.5044303907575293e+04  1.5008457536110895e+04  1.4975482329015769e+04  1.4943748583948744e+04  1.4912806861420839e+04  1.4882716660098915e+04  1.4854974133408103e+04  1.0796425159671611e+04  1.4789019799144891e+04  1.0750288671261411e+04  1.4725924105745806e+04  1.0704099524587195e+04  1.4661910238409806e+04  1.0656818610161734e+04  1.4595902364052554e+04  1.0607738417291948e+04  1.4526952095006865e+04  1.0556185355827987e+04  1.4454200885751579e+04  1.0501639783985755e+04  1.4377028612601971e+04  1.0442559107214522e+04  1.4289002192244447e+04  1.0373268839295582e+04  1.4189386466311797e+04  1.0300548099973354e+04  1.0259507011503389e+04  1.0219689936817185e+04  1.0179300524212225e+04  1.0139136488117014e+04  1.0098799924233612e+04  1.0057603340178037e+04  1.0019413828675933e+04  9.9834083186789103e+03  9.9457860180963853e+03  9.9071680539371173e+03  9.8687912740148731e+03  9.8309693936442618e+03  9.7943019154742233e+03  9.7588725036453598e+03  1.3354044376384107e+04  1.3320447906932626e+04  1.3284933584663157e+04  1.3247023198441791e+04  1.3208207764075847e+04  1.3167406280223224e+04  1.3125786327541584e+04  1.3085158699819724e+04  1.3046092172298457e+04  1.3006802142580098e+04  1.2968310492851371e+04  1.2928821764384164e+04  1.2888894963607860e+04  1.2849296894778248e+04  1.2809917522443584e+04  1.2770816656264380e+04  1.2731840468160082e+04  1.2693066392917231e+04  1.2654348119419807e+04  1.2615770406968619e+04  1.2577176322808640e+04  1.2538586806504270e+04  1.2499568323568810e+04  1.2459804110915115e+04  1.2419388095118304e+04  1.2378338976467334e+04  1.2336590741306763e+04  1.2294068684604514e+04  1.2250663654696424e+04  1.2206230410437818e+04  1.2160595381081732e+04  1.2113555486106665e+04  1.2064971095663426e+04  1.2015500044518934e+04  1.1966515201460754e+04  1.1916788604183907e+04  1.1866101168084302e+04  1.1816308930679594e+04  8.5523350599394471e+03  8.4142378297419236e+03  8.2628957459497524e+03  8.1159839971949314e+03  7.9703742090269143e+03  7.8246029393916979e+03  7.6781547178717501e+03  7.5309256055764154e+03  7.3829745782257296e+03  7.2344123028961021e+03  7.0853542683682708e+03  6.9359030721264226e+03  6.7861436162774562e+03  6.6361436464982989e+03  6.4859561768622743e+03  6.3356222850458525e+03  6.1851736726525460e+03  6.0346348000322387e+03  5.8840245829879705e+03  5.7333577059048121e+03  5.5826456230740259e+03  5.4318973164944500e+03  5.2811198677911716e+03  5.1303188900884015e+03  4.9794988550793378e+03  4.8286633418558395e+03  4.6778152272878306e+03  4.5269568326068138e+03  4.3760900370214085e+03  4.2252163663711644e+03  4.0743370627558379e+03  3.9234531395633562e+03  3.7725654252113623e+03  3.6216745981038212e+03  3.4707812147047243e+03  3.3198857321868286e+03  3.1689885267824220e+03  3.0180899087154476e+03  2.8671901344075159e+03  2.7162894165099951e+03  2.5653879322092225e+03  2.4144858301752192e+03  2.2635832364720186e+03  2.1126802597194751e+03  1.9617769957956666e+03  1.8108735324061961e+03  1.6599699539450335e+03  1.5090663472759259e+03  1.3581628095060018e+03  1.2072594594861896e+03  1.0563564581475680e+03  9.0545403410057258e+02  7.5455262312175603e+02  6.0365241305882762e+02  4.5275841014253825e+02  3.0184207648604433e+02  1.5112613614859970e+02  -2.3169193369220634e-01  1.6006544734623778e+04  1.5978478275187301e+04  1.5951853839103835e+04  1.5919135422353160e+04  1.5890117180494595e+04  1.5857621520817462e+04  1.5825935288913535e+04  1.5794247640504234e+04  1.5761770722281846e+04  1.5731400085056812e+04  1.5705350761250678e+04  1.5678588845904842e+04  1.5651352787702335e+04  1.5623863820120232e+04  1.5596227540767359e+04  1.5568482571499328e+04  1.5540590249227233e+04  1.5512403421084879e+04  1.5483751509912649e+04  1.5454817727031212e+04  1.5426128253494313e+04  1.5397538000752653e+04  1.5368722558788162e+04  1.5339605776106831e+04  1.5310279690268821e+04  1.5280727828929552e+04  1.5250988138792192e+04  1.5221391610619983e+04  1.5191704784567592e+04  1.5161619657810115e+04  1.5131156548241594e+04  1.5100654133132433e+04  1.5070718055934700e+04  1.5040849445915735e+04  1.5007925158782004e+04  1.4975283905695955e+04  1.4943604006762574e+04  1.4912641957686908e+04  1.4882488572515280e+04  1.4853533104023227e+04  1.4820691796551999e+04  1.4788962615828179e+04  1.4757503040770081e+04  1.4725949171801238e+04  1.4694157361352922e+04  1.4661972936254633e+04  1.4629299933251135e+04  1.4596000367299614e+04  1.4561972810116291e+04  1.4527082486950339e+04  1.4491240808229308e+04  1.4454350017806817e+04  1.4416374288097380e+04  1.4377331695031267e+04  1.4336208553629545e+04  1.4289301330789020e+04  1.4240281149361144e+04  1.4189468724236707e+04  1.4137813220047410e+04  1.4083870114994725e+04  1.4029285371148624e+04  1.3973532834170848e+04  1.3918413695678822e+04  1.3863798852283886e+04  1.3805425556056438e+04  1.3753425996702626e+04  1.3705499339412423e+04  1.3653279820373040e+04  1.3599972675376712e+04  1.3547242606994550e+04  1.3495293531833047e+04  1.3444306913852310e+04  1.3397936175426441e+04  1.3355379495560468e+04  1.3320413258847029e+04  1.3285653463037881e+04  1.3246973852304463e+04  1.3208762552862216e+04  1.3167549676030862e+04  1.3125586935369649e+04  1.3084685128962967e+04  1.3046366840145420e+04  1.3006411354708234e+04  1.2968681505553846e+04  1.2928879174319829e+04  1.2888794387435073e+04  1.2849277114857025e+04  1.2809841225544913e+04  1.2770814635815099e+04  1.2731778740651083e+04  1.2693078139138968e+04  1.2654297741397315e+04  1.2615795528782532e+04  1.2577145192334865e+04  1.2538681812611103e+04  1.2499727060213962e+04  1.2459926510294074e+04  1.2419509497018567e+04  1.2378476186152420e+04  1.2336740726034142e+04  1.2294240289631463e+04  1.2250863914642450e+04  1.2206464082759414e+04  1.2160869492568889e+04  1.2113877174311936e+04  1.2065210454328799e+04  1.2015245280398438e+04  1.1966744882597741e+04  1.1916993367923833e+04  1.1866213277459947e+04  1.1815186057821998e+04  1.1749704104042628e+04  8.4136460601414619e+03  8.2611602643454589e+03  8.1155896103011801e+03  7.9704754446316529e+03  7.8248763153530372e+03  7.6784562715647935e+03  7.5312000955089215e+03  7.3832052860700915e+03  7.2345986848839584e+03  7.0855017499910091e+03  6.9360185604876287e+03  6.7862336638274028e+03  6.6362138248244710e+03  6.4860109768985922e+03  6.3356652238470642e+03  6.1852074616743903e+03  6.0346615132970310e+03  5.8840458024908912e+03  5.7333746390423003e+03  5.5826591940080625e+03  5.4319082357295829e+03  5.2811286845196219e+03  5.1303260313294186e+03  4.9795046548857281e+03  4.8286680631298532e+03  4.6778190781285039e+03  4.5269599786183462e+03  4.3760926106355182e+03  4.2252184739549330e+03  4.0743387900693883e+03  3.9234545559804264e+03  3.7725665870059570e+03  3.6216755510264320e+03  3.4707819960137158e+03  3.3198863722584256e+03  3.1689890503918500e+03  3.0180903360588741e+03  2.8671904819173374e+03  2.7162896975027811e+03  2.5653881573950944e+03  2.4144860080483159e+03  2.2635833735929164e+03  2.1126803608903147e+03  1.9617770641150191e+03  1.8108735691689003e+03  1.6599699583130218e+03  1.5090663155756095e+03  1.3581627338234359e+03  1.2072593251599326e+03  1.0563562369449617e+03  9.0545368455339940e+02  7.5455197440960364e+02  6.0365183320620190e+02  4.5275318430387290e+02  3.0186418473579062e+02  1.5099976476942635e+02  3.0504560026627242e-02  1.6005424347496855e+04  1.5977361319219286e+04  1.5949071126069421e+04  1.5918716927453290e+04  1.5888561273650108e+04  1.5857277499836529e+04  1.5825935916473889e+04  1.5794622519135804e+04  1.5763337754671782e+04  1.5733611308122199e+04  1.5706130608844252e+04  1.5678936123487962e+04  1.5651529803722833e+04  1.5623964846260398e+04  1.5596302389524519e+04  1.5568580472552676e+04  1.5540775279807776e+04  1.5512693718559369e+04  1.5483946915286415e+04  1.5454649311638124e+04  1.5426078706998383e+04  1.5397682109212425e+04  1.5368914521523493e+04  1.5339736441967500e+04  1.5310417739578474e+04  1.5280867929270531e+04  1.5250883434537564e+04  1.5221459723924099e+04  1.5191954551438190e+04  1.5161848301131295e+04  1.5131163226038070e+04  1.5100254281474488e+04  1.5069605698118265e+04  1.5038849974091478e+04  1.5006932696015017e+04  1.4974858322734357e+04  1.4943273219217815e+04  1.4912279340646366e+04  1.4881918362214315e+04  1.4851862441606576e+04  1.4820373066688791e+04  1.4788895234214531e+04  1.4757532579987179e+04  1.4726045740743555e+04  1.4694293983132700e+04  1.4662157830381317e+04  1.4629521560747120e+04  1.4596271660912667e+04  1.4562280834965779e+04  1.4527435478450065e+04  1.4491617146236911e+04  1.4454750519696765e+04  1.4416782250639924e+04  1.4377752505699278e+04  1.4339050214348397e+04  1.4289677617171739e+04  1.4240902520053978e+04  1.4190228231473437e+04  1.4134585655922780e+04  1.4084671826234879e+04  1.4029607063597727e+04  1.3973374776957544e+04  1.3917713055644304e+04  1.3866318571844358e+04  1.3802336883140113e+04  1.3751910693675976e+04  1.3707695652864915e+04  1.3653213385402270e+04  1.3599871588970203e+04  1.3546881940779880e+04  1.3495473950328937e+04  1.3441844165268672e+04  1.3399993402372667e+04  1.3356107639082144e+04  1.3319812267439995e+04  1.3288418050114511e+04  1.3245773081057148e+04  1.3210899359176005e+04  1.3167653105598987e+04  1.3125338218423864e+04  1.3082741200557317e+04  1.3048153104872446e+04  1.3004370592665018e+04  1.2970413347164666e+04  1.2928804683754282e+04  1.2888491533628569e+04  1.2849340161471368e+04  1.2809562839999486e+04  1.2770925585805415e+04  1.2731530081426687e+04  1.2693222639584161e+04  1.2654072241043217e+04  1.2615972295318988e+04  1.2576955254615270e+04  1.2538972725962027e+04  1.2500062919786122e+04  1.2460200901730306e+04  1.2419775583396779e+04  1.2378786688264792e+04  1.2337074741461382e+04  1.2294624242792059e+04  1.2251313465986548e+04  1.2206986856042118e+04  1.2161487817047358e+04  1.2114570650262096e+04  1.2066054545409435e+04  1.2013948518697662e+04  1.1967606892927684e+04  1.1917582736762402e+04  1.1865849259444087e+04  1.1816703962941303e+04  8.5452127950220383e+03  8.4051567438845268e+03  8.2589128814204050e+03  8.1150825488931305e+03  7.9707406843153522e+03  7.8253821583913759e+03  7.6789875285750877e+03  7.5316747547421446e+03  7.3836006628637087e+03  7.2349165446430561e+03  7.0857525785669313e+03  6.9362146775705387e+03  6.7863864599683520e+03  6.6363328703176194e+03  6.4861039360033792e+03  6.3357380763335950e+03  6.1852648074876106e+03  6.0347068666272653e+03  5.8840818422113234e+03  5.7334034093232749e+03  5.5826822596602615e+03  5.4319268001583123e+03  5.2811436783077706e+03  5.1303381784044432e+03  4.9795145218698199e+03  4.8286760961975642e+03  4.6778256306295052e+03  4.5269653318827040e+03  4.3760969897393143e+03  4.2252220597478572e+03  4.0743417284158572e+03  3.9234569649107043e+03  3.7725685622885353e+03  3.6216771705386382e+03  3.4707833231900513e+03  3.3198874588251006e+03  3.1689899385438730e+03  3.0180910601975806e+03  2.8671910700372532e+03  2.7162901722945221e+03  2.5653885371132051e+03  2.4144863071776736e+03  2.2635836033326100e+03  2.1126805294572941e+03  1.9617771768474063e+03  1.8108736283736885e+03  1.6599699627415685e+03  1.5090662592915335e+03  1.3581626040071719e+03  1.2072590977719967e+03  1.0563558689432587e+03  9.0545309195923130e+02  7.5455102751655647e+02  6.0365005378027911e+02  4.5275082851884787e+02  3.0185690868376332e+02  1.5095863128357593e+02  -2.4392969283711587e-03  1.6004298584502587e+04  1.5976073919822005e+04  1.5947391014912817e+04  1.5917682538104093e+04  1.5887542493267762e+04  1.5856832961036758e+04  1.5825931971573898e+04  1.5795072287417222e+04  1.5764521127719592e+04  1.5735065202434422e+04  1.5706955121431482e+04  1.5679344849598032e+04  1.5651749351435068e+04  1.5624091272940101e+04  1.5596391498708488e+04  1.5568693537353176e+04  1.5541023690394279e+04  1.5513167406269202e+04  1.5484410211282520e+04  1.5454122523979007e+04  1.5426021659572007e+04  1.5397941856113823e+04  1.5369237959200051e+04  1.5339886614138310e+04  1.5310581944472555e+04  1.5281255416699139e+04  1.5250473242553429e+04  1.5221593500775130e+04  1.5192385440215987e+04  1.5162245858788472e+04  1.5131244017828618e+04  1.5099747970454710e+04  1.5068442835631886e+04  1.5037335514057826e+04  1.5005916042576644e+04  1.4974285543692124e+04  1.4942779651199930e+04  1.4911756142939888e+04  1.4881133687354473e+04  1.4850776693613077e+04  1.4819918756603389e+04  1.4788806084632844e+04  1.4757598826820815e+04  1.4726210845161240e+04  1.4694536448675775e+04  1.4662472721341352e+04  1.4629911340366460e+04  1.4596737157923933e+04  1.4562823542508348e+04  1.4528045277376745e+04  1.4492282216450854e+04  1.4455444304108609e+04  1.4417483711024395e+04  1.4378423423512131e+04  1.4340126282306745e+04  1.4291681681106653e+04  1.4243407148353283e+04  1.4192885238235889e+04  1.4136258394235583e+04  1.4086200643281500e+04  1.4030268521715128e+04  1.3973037679910714e+04  1.3916456489391148e+04  1.3864466834850424e+04  1.3804112109002006e+04  1.3747257612919162e+04  1.3706954076959444e+04  9.9438403865573873e+03  9.9071238943370336e+03  9.8653946076752709e+03  9.8320735621554868e+03  9.7897271420684501e+03  9.7583111826050790e+03  9.7289629103627012e+03  1.3321386698554868e+04  9.6828784434768477e+03  1.3247324031633401e+04  9.6222089089097717e+03  1.3169301537180052e+04  9.5588538783851436e+03  1.3082477829357555e+04  9.5028818663519269e+03  1.3003985103656401e+04  9.4462358868134452e+03  1.2929671465007452e+04  9.3862138837414786e+03  1.2850385186598292e+04  9.3289417362395125e+03  1.2772128908255158e+04  9.2722594249341328e+03  1.2694538624390745e+04  9.2159563215557191e+03  1.2617393607449441e+04  9.1599502352875115e+03  1.2540701755346752e+04  9.1055553685083087e+03  9.0785801427913157e+03  9.0486213504142743e+03  9.0190399574987659e+03  8.9887895551296115e+03  8.9581114432814848e+03  8.9268994896808090e+03  8.8949654817688061e+03  8.8623132227480073e+03  8.8286560757014449e+03  8.7938395812034069e+03  8.7543986790103827e+03  8.7204611785432262e+03  8.6833706584543233e+03  8.6440656604098676e+03  8.6016549903443065e+03  8.5176211224854505e+03  8.3944618390716423e+03  8.2563187384830944e+03  8.1147875987024299e+03  7.9712918158650755e+03  7.8261731201313032e+03  7.6797677653046067e+03  7.5323544835292587e+03  7.3841597160308111e+03  7.2353628651652871e+03  7.0861033896558174e+03  6.9364883724802421e+03  6.7865994685175319e+03  6.6364987670489836e+03  6.4862334913908444e+03  6.3358396480884776e+03  6.1853448042374976e+03  6.0347701755445805e+03  5.8841321855709975e+03  5.7334436268226800e+03  5.5827145255186115e+03  5.4319527872598865e+03  5.2811646811509127e+03  5.1303552048006914e+03  4.9795283612881331e+03  4.8286873708001858e+03  4.6778348335307064e+03  4.5269728559813184e+03  4.3761031495841708e+03  4.2252271082341431e+03  4.0743458696260927e+03  3.9234603640616701e+03  3.7725713534900306e+03  3.6216794628848402e+03  3.4707852055698704e+03  3.3198890037400242e+03  3.1689912051499659e+03  3.0180920967351217e+03  2.8671919157715874e+03  2.7162908590609959e+03  2.5653890905345570e+03  2.4144867476012869e+03  2.2635839