<?xml version="1.0"?>
<VTKFile type="UnstructuredGrid"  version="0.1"  >
<UnstructuredGrid>
<Piece  NumberOfPoints="21400" NumberOfCells="42336">
<Points>
<DataArray  type="Float64"  NumberOfComponents="3"  format="ascii">0 0 0  0.004583333333333333 0 0  0.009166666666666667 0 0  0.01375 0 0  0.01833333333333333 0 0  0.02291666666666667 0 0  0.0275 0 0  0.03208333333333334 0 0  0.03666666666666667 0 0  0.04125 0 0  0.04583333333333334 0 0  0.05041666666666667 0 0  0.055 0 0  0.05958333333333334 0 0  0.06416666666666668 0 0  0.06875000000000001 0 0  0.07333333333333333 0 0  0.07791666666666666 0 0  0.08249999999999999 0 0  0.08708333333333333 0 0  0.09166666666666667 0 0  0.09625000000000002 0 0  0.1008333333333333 0 0  0.1054166666666667 0 0  0.11 0 0  0.1145833333333333 0 0  0.1191666666666667 0 0  0.12375 0 0  0.1283333333333334 0 0  0.1329166666666667 0 0  0.1375 0 0  0.1420833333333333 0 0  0.1466666666666667 0 0  0.15125 0 0  0.1558333333333333 0 0  0.1604166666666667 0 0  0.165 0 0  0.1695833333333333 0 0  0.1741666666666667 0 0  0.17875 0 0  0.1833333333333333 0 0  0.1879166666666667 0 0  0.1925 0 0  0.1970833333333333 0 0  0.2016666666666667 0 0  0.20625 0 0  0.2108333333333333 0 0  0.2154166666666666 0 0  0.22 0 0  0.2245833333333334 0 0  0.2291666666666667 0 0  0.23375 0 0  0.2383333333333333 0 0  0.2429166666666667 0 0  0.2475 0 0  0.2520833333333333 0 0  0.2566666666666667 0 0  0.26125 0 0  0.2658333333333334 0 0  0.2704166666666666 0 0  0.275 0 0  0.2795833333333334 0 0  0.2841666666666667 0 0  0.28875 0 0  0.2933333333333333 0 0  0.2979166666666667 0 0  0.3025 0 0  0.3070833333333334 0 0  0.3116666666666666 0 0  0.31625 0 0  0.3208333333333333 0 0  0.3254166666666667 0 0  0.33 0 0  0.3345833333333333 0 0  0.3391666666666667 0 0  0.34375 0 0  0.3483333333333333 0 0  0.3529166666666667 0 0  0.3575 0 0  0.3620833333333333 0 0  0.3666666666666667 0 0  0.37125 0 0  0.3758333333333334 0 0  0.3804166666666667 0 0  0.3850000000000001 0 0  0.3895833333333333 0 0  0.3941666666666667 0 0  0.39875 0 0  0.4033333333333334 0 0  0.4079166666666666 0 0  0.4125 0 0  0.4170833333333334 0 0  0.4216666666666667 0 0  0.42625 0 0  0.4308333333333333 0 0  0.4354166666666667 0 0  0.44 0 0  0.4445833333333333 0 0  0.4491666666666667 0 0  0.45375 0 0  0.4583333333333333 0 0  0.4629166666666666 0 0  0.4675 0 0  0.4720833333333334 0 0  0.4766666666666667 0 0  0.4812500000000001 0 0  0.4858333333333333 0 0  0.4904166666666667 0 0  0.495 0 0  0.4995833333333334 0 0  0.5041666666666667 0 0  0.50875 0 0  0.5133333333333334 0 0  0.5179166666666667 0 0  0.5225 0 0  0.5270833333333333 0 0  0.5316666666666667 0 0  0.53625 0 0  0.5408333333333333 0 0  0.5454166666666667 0 0  0.55 0 0  0.5545833333333333 0 0  0.5591666666666667 0 0  0.5637500000000001 0 0  0.5683333333333334 0 0  0.5729166666666666 0 0  0.5775 0 0  0.5820833333333334 0 0  0.5866666666666667 0 0  0.5912499999999999 0 0  0.5958333333333334 0 0  0.6004166666666667 0 0  0.605 0 0  0.6095833333333334 0 0  0.6141666666666667 0 0  0.61875 0 0  0.6233333333333333 0 0  0.6279166666666667 0 0  0.6325000000000001 0 0  0.6370833333333333 0 0  0.6416666666666666 0 0  0.64625 0 0  0.6508333333333334 0 0  0.6554166666666666 0 0  0.6599999999999999 0 0  0.6645833333333334 0 0  0.6691666666666667 0 0  0.67375 0 0  0.6783333333333333 0 0  0.6829166666666667 0 0  0.6875 0 0  0.6920833333333333 0 0  0.6966666666666667 0 0  0.70125 0 0  0.7058333333333333 0 0  0.7104166666666667 0 0  0.7150000000000001 0 0  0.7195833333333334 0 0  0.7241666666666666 0 0  0.72875 0 0  0.7333333333333334 0 0  0.7379166666666667 0 0  0.7425 0 0  0.7470833333333333 0 0  0.7516666666666667 0 0  0.75625 0 0  0.7608333333333334 0 0  0.7654166666666666 0 0  0.7700000000000001 0 0  0 0.002380952380952381 0  0.004583333333333333 0.002380952380952381 0  0.009166666666666667 0.002380952380952381 0  0.01375 0.002380952380952381 0  0.01833333333333333 0.002380952380952381 0  0.02291666666666667 0.002380952380952381 0  0.0275 0.002380952380952381 0  0.03208333333333334 0.002380952380952381 0  0.03666666666666667 0.002380952380952381 0  0.04125 0.002380952380952381 0  0.04583333333333334 0.002380952380952381 0  0.05041666666666667 0.002380952380952381 0  0.055 0.002380952380952381 0  0.05958333333333334 0.002380952380952381 0  0.06416666666666668 0.002380952380952381 0  0.06875000000000001 0.002380952380952381 0  0.07333333333333333 0.002380952380952381 0  0.07791666666666666 0.002380952380952381 0  0.08249999999999999 0.002380952380952381 0  0.08708333333333333 0.002380952380952381 0  0.09166666666666667 0.002380952380952381 0  0.09625000000000002 0.002380952380952381 0  0.1008333333333333 0.002380952380952381 0  0.1054166666666667 0.002380952380952381 0  0.11 0.002380952380952381 0  0.1145833333333333 0.002380952380952381 0  0.1191666666666667 0.002380952380952381 0  0.12375 0.002380952380952381 0  0.1283333333333334 0.002380952380952381 0  0.1329166666666667 0.002380952380952381 0  0.1375 0.002380952380952381 0  0.1420833333333333 0.002380952380952381 0  0.1466666666666667 0.002380952380952381 0  0.15125 0.002380952380952381 0  0.1558333333333333 0.002380952380952381 0  0.1604166666666667 0.002380952380952381 0  0.165 0.002380952380952381 0  0.1695833333333333 0.002380952380952381 0  0.1741666666666667 0.002380952380952381 0  0.17875 0.002380952380952381 0  0.1833333333333333 0.002380952380952381 0  0.1879166666666667 0.002380952380952381 0  0.1925 0.002380952380952381 0  0.1970833333333333 0.002380952380952381 0  0.2016666666666667 0.002380952380952381 0  0.20625 0.002380952380952381 0  0.2108333333333333 0.002380952380952381 0  0.2154166666666666 0.002380952380952381 0  0.22 0.002380952380952381 0  0.2245833333333334 0.002380952380952381 0  0.2291666666666667 0.002380952380952381 0  0.23375 0.002380952380952381 0  0.2383333333333333 0.002380952380952381 0  0.2429166666666667 0.002380952380952381 0  0.2475 0.002380952380952381 0  0.2520833333333333 0.002380952380952381 0  0.2566666666666667 0.002380952380952381 0  0.26125 0.002380952380952381 0  0.2658333333333334 0.002380952380952381 0  0.2704166666666666 0.002380952380952381 0  0.275 0.002380952380952381 0  0.2795833333333334 0.002380952380952381 0  0.2841666666666667 0.002380952380952381 0  0.28875 0.002380952380952381 0  0.2933333333333333 0.002380952380952381 0  0.2979166666666667 0.002380952380952381 0  0.3025 0.002380952380952381 0  0.3070833333333334 0.002380952380952381 0  0.3116666666666666 0.002380952380952381 0  0.31625 0.002380952380952381 0  0.3208333333333333 0.002380952380952381 0  0.3254166666666667 0.002380952380952381 0  0.33 0.002380952380952381 0  0.3345833333333333 0.002380952380952381 0  0.3391666666666667 0.002380952380952381 0  0.34375 0.002380952380952381 0  0.3483333333333333 0.002380952380952381 0  0.3529166666666667 0.002380952380952381 0  0.3575 0.002380952380952381 0  0.3620833333333333 0.002380952380952381 0  0.3666666666666667 0.002380952380952381 0  0.37125 0.002380952380952381 0  0.3758333333333334 0.002380952380952381 0  0.3804166666666667 0.002380952380952381 0  0.3850000000000001 0.002380952380952381 0  0.3895833333333333 0.002380952380952381 0  0.3941666666666667 0.002380952380952381 0  0.39875 0.002380952380952381 0  0.4033333333333334 0.002380952380952381 0  0.4079166666666666 0.002380952380952381 0  0.4125 0.002380952380952381 0  0.4170833333333334 0.002380952380952381 0  0.4216666666666667 0.002380952380952381 0  0.42625 0.002380952380952381 0  0.4308333333333333 0.002380952380952381 0  0.4354166666666667 0.002380952380952381 0  0.44 0.002380952380952381 0  0.4445833333333333 0.002380952380952381 0  0.4491666666666667 0.002380952380952381 0  0.45375 0.002380952380952381 0  0.4583333333333333 0.002380952380952381 0  0.4629166666666666 0.002380952380952381 0  0.4675 0.002380952380952381 0  0.4720833333333334 0.002380952380952381 0  0.4766666666666667 0.002380952380952381 0  0.4812500000000001 0.002380952380952381 0  0.4858333333333333 0.002380952380952381 0  0.4904166666666667 0.002380952380952381 0  0.495 0.002380952380952381 0  0.4995833333333334 0.002380952380952381 0  0.5041666666666667 0.002380952380952381 0  0.50875 0.002380952380952381 0  0.5133333333333334 0.002380952380952381 0  0.5179166666666667 0.002380952380952381 0  0.5225 0.002380952380952381 0  0.5270833333333333 0.002380952380952381 0  0.5316666666666667 0.002380952380952381 0  0.53625 0.002380952380952381 0  0.5408333333333333 0.002380952380952381 0  0.5454166666666667 0.002380952380952381 0  0.55 0.002380952380952381 0  0.5545833333333333 0.002380952380952381 0  0.5591666666666667 0.002380952380952381 0  0.5637500000000001 0.002380952380952381 0  0.5683333333333334 0.002380952380952381 0  0.5729166666666666 0.002380952380952381 0  0.5775 0.002380952380952381 0  0.5820833333333334 0.002380952380952381 0  0.5866666666666667 0.002380952380952381 0  0.5912499999999999 0.002380952380952381 0  0.5958333333333334 0.002380952380952381 0  0.6004166666666667 0.002380952380952381 0  0.605 0.002380952380952381 0  0.6095833333333334 0.002380952380952381 0  0.6141666666666667 0.002380952380952381 0  0.61875 0.002380952380952381 0  0.6233333333333333 0.002380952380952381 0  0.6279166666666667 0.002380952380952381 0  0.6325000000000001 0.002380952380952381 0  0.6370833333333333 0.002380952380952381 0  0.6416666666666666 0.002380952380952381 0  0.64625 0.002380952380952381 0  0.6508333333333334 0.002380952380952381 0  0.6554166666666666 0.002380952380952381 0  0.6599999999999999 0.002380952380952381 0  0.6645833333333334 0.002380952380952381 0  0.6691666666666667 0.002380952380952381 0  0.67375 0.002380952380952381 0  0.6783333333333333 0.002380952380952381 0  0.6829166666666667 0.002380952380952381 0  0.6875 0.002380952380952381 0  0.6920833333333333 0.002380952380952381 0  0.6966666666666667 0.002380952380952381 0  0.70125 0.002380952380952381 0  0.7058333333333333 0.002380952380952381 0  0.7104166666666667 0.002380952380952381 0  0.7150000000000001 0.002380952380952381 
[...]
<PointData  Scalars="pressure"> 
<DataArray  type="Float64"  Name="pressure"  format="ascii">1.0387247249295229e+04  1.0357552159363906e+04  1.0330342484703782e+04  1.0301753927025829e+04  1.0271881122568082e+04  1.0236506448742492e+04  1.0203812234589552e+04  1.0171091471493895e+04  1.0135518521172689e+04  1.0106295487331005e+04  1.0082502542744494e+04  1.0056170184180002e+04  1.0029082503451680e+04  1.0001652394184928e+04  9.9740300240058004e+03  9.9462586071075002e+03  9.9182984358315734e+03  9.8900503413782044e+03  9.8614640885284316e+03  9.8326857136394938e+03  9.8039390236828640e+03  9.7752056793453685e+03  9.7463151375804209e+03  9.7171770912420834e+03  9.6877998123110410e+03  9.6582073584472582e+03  9.6284717235269127e+03  9.5986776402350042e+03  9.5687130571404614e+03  9.5383934186035731e+03  9.5076976452754880e+03  9.4768143463037468e+03  9.4460390951811551e+03  9.4156227282820582e+03  9.3856924931743906e+03  9.3563047469856447e+03  9.3275796892967173e+03  9.2998208142763979e+03  9.2746043553854324e+03  6.7387169924284754e+03  6.7104817728481839e+03  6.6869826085122859e+03  6.6646545659224994e+03  6.6425592794012509e+03  6.6206908721890413e+03  6.5988797621985477e+03  6.5771060060539321e+03  6.5553269699634820e+03  6.5335026639826356e+03  6.5116379045641461e+03  6.4896849586449407e+03  6.4676837785986481e+03  6.4456193218323997e+03  6.4234911896876174e+03  6.4004356080901016e+03  6.3762930224280817e+03  6.3512603966585311e+03  6.3262239460902756e+03  6.3033735020158128e+03  6.2768711421973712e+03  6.2524422259210669e+03  6.2280582414685950e+03  6.2034383411956478e+03  6.1784877235050317e+03  6.1529869094174346e+03  6.1268951446706278e+03  6.1000269375802436e+03  6.0714733133365726e+03  6.0417031616158147e+03  6.0118688113725075e+03  5.9826700178481879e+03  5.9527326652251077e+03  5.9191072321502070e+03  5.8885415660935823e+03  5.8614445605614137e+03  5.8313459637055712e+03  5.8018471029159691e+03  5.7729521549773253e+03  5.7430382241720799e+03  5.7116969651155023e+03  5.6786692792367703e+03  5.6448445543646085e+03  5.6100653885438023e+03  5.5750966009750236e+03  5.5396176502107146e+03  5.5043546244377658e+03  5.4690160252656560e+03  5.4343724292509960e+03  5.4000760485297042e+03  5.3667708332479733e+03  5.3339922283982451e+03  5.3022365030111732e+03  5.2709817225414208e+03  5.2405515402742294e+03  5.2099243741394039e+03  5.1792728630744423e+03  5.1490652837249627e+03  5.1192729038736561e+03  5.0898607558337735e+03  5.0607266222112185e+03  5.0318574533825958e+03  5.0031676904286323e+03  4.9746626755131501e+03  4.9462696609451059e+03  4.9180070253273734e+03  4.8898109733406800e+03  4.8617088431610637e+03  4.8336429635237246e+03  4.8056467403104953e+03  4.7776666377887468e+03  4.7497401298485111e+03  4.7218164475189133e+03  4.6939357708527650e+03  4.6660491670942747e+03  4.6381986020686209e+03  4.6103363472403316e+03  4.5825055276771473e+03  4.5546591757822016e+03  4.5268411225008394e+03  4.4990047950826238e+03  4.4711942979743162e+03  4.4433629217918369e+03  4.4155541055536378e+03  4.3877191512465133e+03  4.3598966724188285e+03  4.3320222595787891e+03  4.3040693624855376e+03  4.2757753505682285e+03  4.2469382139917925e+03  4.2175972026497684e+03  4.1877711150721179e+03  4.1574208329607472e+03  4.1264925640252586e+03  4.0949089966831657e+03  4.0625666551462127e+03  4.0293395417640754e+03  3.9950840880573569e+03  3.9597527587831514e+03  3.9238339670804858e+03  3.8880607886194202e+03  3.8518623213681049e+03  3.8150321907415378e+03  3.7789901158736129e+03  3.7154602613687757e+03  3.5840983631437007e+03  3.4344842588850320e+03  3.2871188868321228e+03  3.1413659578958418e+03  2.9955457654736751e+03  2.8490921081226165e+03  2.7018742614334274e+03  2.5539397141063005e+03  2.4053944013148293e+03  2.2563521547110477e+03  2.1069152801833920e+03  1.9571689636646233e+03  1.8071814552460519e+03  1.6570063459126893e+03  1.5066853132392332e+03  1.3562506797353099e+03  1.2057275708984889e+03  1.0551356509809129e+03  9.0449051250455000e+02  7.5380466137430437e+02  6.0308942372474814e+02  4.5234762582507989e+02  3.0164441017279478e+02  1.5043672107285428e+02  4.2655145914258190e+00  1.0385594745040084e+04  1.0357235522632271e+04  1.0331212591414829e+04  1.0299984916451684e+04  7.4815342166197306e+03  7.4566896982818207e+03  7.4331157211521913e+03  7.4095257273145198e+03  7.3846322701500030e+03  1.0106978990782423e+04  1.0082695529868957e+04  1.0056237468369607e+04  1.0029116593891806e+04  1.0001671496871344e+04  9.9740447664422845e+03  9.9462777581125738e+03  9.9183302332561871e+03  9.8900914640691626e+03  9.8614874987444127e+03  9.8326757910607139e+03  9.8039346470243818e+03  9.7752251505591739e+03  9.7463441239401363e+03  9.7172026700163005e+03  9.6878241370776559e+03  9.6582243665587212e+03  9.6284727298778635e+03  9.5986947288567571e+03  9.5687553274467555e+03  9.5384383316072253e+03  9.5077200048725244e+03  9.4768015063135899e+03  9.4459974654881389e+03  9.4155685125987802e+03  9.3856346798408194e+03  9.3562370542802164e+03  9.3274765924564927e+03  9.2996705369572264e+03  9.2737273827711524e+03  9.2486402802769662e+03  6.7100392866596267e+03  9.1795556267277298e+03  6.6646011063671331e+03  9.1185820891435142e+03  6.6206775442264998e+03  9.0586298431773139e+03  6.5771051235601999e+03  8.9988473382967932e+03  6.5335087412492085e+03  8.9388758287194742e+03  6.4896928513680323e+03  8.8785351857456790e+03  6.4456247164099559e+03  8.8179103796111140e+03  6.4006756190295328e+03  8.7531169596775799e+03  6.3512593288552262e+03  8.6842871187175351e+03  6.3026476558312588e+03  6.2767298844241786e+03  6.2524595719647723e+03  6.2280853891851839e+03  6.2034713079350413e+03  6.1785531347420774e+03  6.1530575098045128e+03  6.1269491833317607e+03  6.1002590664473955e+03  6.0716120353733577e+03  6.0417146960529553e+03  6.0117423748831661e+03  5.9827561908491143e+03  5.9530267793514067e+03  5.9201870246471726e+03  8.0840698069855298e+03  8.0466749384553032e+03  8.0048423734262151e+03  7.9643969620535991e+03  7.9249945321227942e+03  7.8839204394309718e+03  7.8409884243648203e+03  7.7954525806896991e+03  7.7491334651213074e+03  7.7012031789611101e+03  7.6533388292474265e+03  7.6044491987579067e+03  7.5561776977394802e+03  7.5074722315152230e+03  7.4600585594943341e+03  7.4128009697018506e+03  7.3672354282137403e+03  7.3220835968157289e+03  7.2786463116592749e+03  7.2356027103341876e+03  7.1940459060139510e+03  7.1519395980984018e+03  7.1097956121522748e+03  7.0683476332537857e+03  7.0274468335004130e+03  6.9870909159856601e+03  6.9470904661044451e+03  6.9074783812857013e+03  6.8680854586406695e+03  6.8289720519637649e+03  6.7899847534009577e+03  6.7512032195467382e+03  6.7124851109472093e+03  6.6739233253026132e+03  6.6353831060799694e+03  6.5969663078186013e+03  6.5585433003523049e+03  6.5202219380414399e+03  6.4818760233373441e+03  6.4436173993383336e+03  6.4053221480452548e+03  6.3671047440058601e+03  6.3288427640358905e+03  6.2906523928756851e+03  6.2524121485533979e+03  6.2142392664332338e+03  6.1760127402321223e+03  6.1378502487202059e+03  6.0996305737530174e+03  6.0614706181604715e+03  6.0232464989527853e+03  5.9850689310148400e+03  5.9467955288080766e+03  5.9084639876835845e+03  5.8696505212185057e+03  5.8300526049977616e+03  5.7897727401410557e+03  5.7488345147052114e+03  5.7071768723754330e+03  5.6647290382165829e+03  5.6213847138208412e+03  5.5770011148564818e+03  5.5314066975092146e+03  5.4843999738649327e+03  5.4358426335452386e+03  5.3863933441457102e+03  5.3374252157632136e+03  5.2877114612824753e+03  5.2370339397852558e+03  5.1872490337857944e+03  3.7233128391943469e+03  3.5852269267673823e+03  3.4338950908097395e+03  3.2869912126609474e+03  3.1413876987151302e+03  2.9956216715372511e+03  2.8491780576050851e+03  2.7019532132096942e+03  2.5540063504530494e+03  2.4054483414050032e+03  2.2563948671442008e+03  2.1069487188087010e+03  1.9571950053602391e+03  1.8072017037838677e+03  1.6570220958443931e+03  1.5066975771611717e+03  1.3562602349563883e+03  1.2057350061346951e+03  1.0551414087974624e+03  9.0449489887644086e+02  7.5380803308725046e+02  6.0309079972713437e+02  4.5235628732241327e+02  3.0158282946329643e+02  1.5099895083277295e+02  -2.3145024905220499e-01  1.0384439243980049e+04  1.0356372726324355e+04  1.0329748117008463e+04  1.0297029290396933e+04  1.0268010491662839e+04  1.0235513975118753e+04  1.0203826620465983e+04  1.0172137515306473e+04  1.0139658683453397e+04  1.0109285778069230e+04  1.0083234076533929e+04  1.0056469167554709e+04  1.0029229373906388e+04  1.0001735775740934e+04  9.9740937616889914e+03  9.9463416745916493e+03  9.9184404780636469e+03  9.8902425364313749e+03  9.8615767226384796e+03  9.8326257272939947e+03  9.8039150046358227e+03  9.7752980579366576e+03  9.7464488330276017e+03  9.7172894547053784e+03  9.6879097636071510e+03  9.6582898483177614e+03  9.6284628578617030e+03  9.5987520864931685e+03  9.5689092777650585e+03  9.5386012097090679e+03  9.5078014017008973e+03  9.4767549194898584e+03  9.4458479517728865e+03  9.4153774407662095e+03  9.3854358891922548e+03  9.3560056238263769e+03  9.3271407380744349e+03  9.2990695602708129e+03  9.2719661916887180e+03  9.2446597839508449e+03  9.2110009549453953e+03  9.1793841579440268e+03  9.1487687314867471e+03  9.1185377039779269e+03  9.0885328487298502e+03  9.0586129334652269e+03  9.0287415663971369e+03  8.9988434588465079e+03  8.9689080489764729e+03  8.9388793106640933e+03  8.9087635783807127e+03  8.8785345466331946e+03  8.8482448894916433e+03  8.8179871407443661e+03  8.7871840179244773e+03  8.7531760241811317e+03  8.7187165022397458e+03  8.6841738634772628e+03  8.6502300248895936e+03  8.6162269185133209e+03  8.5831278199818953e+03  8.5496742549254523e+03  8.5158869463799692e+03  8.4817671577432502e+03  8.4468264432483375e+03  8.4107588889422896e+03  8.3748372712809050e+03  8.3350735583962123e+03  8.2938626922726453e+03  8.2521471667300502e+03  8.2130974451579095e+03  8.1726488248449659e+03  8.1288294496018852e+03  8.0861536553148089e+03  8.0474824626806094e+03  8.0043294512688035e+03  7.9641065748006022e+03  7.9254968389475252e+03  7.8841481562778290e+03  7.8417154889883468e+03  7.7953611882323876e+03  7.7496965391700478e+03  7.7009275556400244e+03  7.6538033451096062e+03  7.6040628661534183e+03  7.5565307676088096e+03  7.5069463747190221e+03  7.4602917492795277e+03  7.4122024244271988e+03  7.3674088038273276e+03  7.3214945902155514e+03  7.2788130194995574e+03  7.2350547520086884e+03  7.1943452788969907e+03  7.1519144194535802e+03  7.1096245825192736e+03  7.0682615852490117e+03  7.0273204118149488e+03  6.9870423834595713e+03  6.9469937988616093e+03  6.9074573142689969e+03  6.8680092390941954e+03  6.8289697398552962e+03  6.7899223727407216e+03  6.7512135390001940e+03  6.7124320022514630e+03  6.6739420790356144e+03  6.6353361650491024e+03  6.5969906576517951e+03  6.5585004401062952e+03  6.5202499832268531e+03  6.4818358525275626e+03  6.4436478767535054e+03  6.4052837461861727e+03  6.3671368220095374e+03  6.3288055302375078e+03  6.2906855365141255e+03  6.2523757083009223e+03  6.2142731654511135e+03  6.1759769160010856e+03  6.1378848418113512e+03  6.0995955168274631e+03  6.0615065261344243e+03  6.0232137186851305e+03  5.9851100507727424e+03  5.9467761396898031e+03  5.9085697816194124e+03  5.8698165067521049e+03  5.8301808130570143e+03  5.7898991200409710e+03  5.7489756477244437e+03  5.7073300249690528e+03  5.6649032811554616e+03  5.6215871221000534e+03  5.5772365395106390e+03  5.5316822576209579e+03  5.4847228472744628e+03  5.4360829883600718e+03  5.3861396281634397e+03  5.3376556325700667e+03  5.2879167844151925e+03  5.2371465212006397e+03  5.1861267006062862e+03  5.1206517595942669e+03  3.5846361231360702e+03  3.4321605137374972e+03  3.2865974152942554e+03  3.1414893156475850e+03  2.9958952821844614e+03  2.8494797366331536e+03  2.7022277405809000e+03  2.5542370192835747e+03  2.4056346125024538e+03  2.2565421653865910e+03  2.1070639462922518e+03  1.9572847053421881e+03  1.8072714342173788e+03  1.6570763288709081e+03  1.5067398045920027e+03  1.3562931343551152e+03  1.2057606054573125e+03  1.0551612236910280e+03  9.0451004882027303e+02  7.5381921469100052e+02  6.0309902136404332e+02  4.5235730114803169e+02  3.0160890903912986e+02  1.5087463275048447e+02  3.0525098462878614e-02  1.0383318943301689e+04  1.0355255857823529e+04  1.0326965464677887e+04  1.0296610880301014e+04  1.0266454651174801e+04  1.0235170053863965e+04  1.0203827378553375e+04  1.0172512571396313e+04  1.0141226020062644e+04  1.0111497458990973e+04  1.0084014352264061e+04  1.0056816929439012e+04  1.0029406972364246e+04  1.0001837519804732e+04  9.9741695095036703e+03  9.9464407158390022e+03  9.9186269590318498e+03  9.8905346435657048e+03  9.8617742872690487e+03  9.8324599310470949e+03  9.8038690020414379e+03  9.7754467673225554e+03  9.7466465312804812e+03  9.7174272892367171e+03  9.6880572625492205e+03  9.6584426353148992e+03  9.6283759326526833e+03  9.5988480326280423e+03  9.5692040930740404e+03  9.5389079941158234e+03  9.5079565268831593e+03  9.4766657988252828e+03  9.4455704424995511e+03  9.4150383851984261e+03  9.3851029817213675e+03  9.3556295231336535e+03  9.3265989906198392e+03  9.2981499561087567e+03  9.2701588141935808e+03  9.2414940905219955e+03  9.2102074459648084e+03  9.1790973099018593e+03  9.1486232886896905e+03  9.1184698275089941e+03  9.0884959573825308e+03  9.0586051564309564e+03  9.0287449314474561e+03  8.9988659332225106e+03  8.9689358482162315e+03  8.9389199831178539e+03  8.9087995174435437e+03  8.8785651152122355e+03  8.8482507904134891e+03  8.8179379000031386e+03  8.7888957763960261e+03  8.7530765606200566e+03  8.7187390346608427e+03  8.6842773792797343e+03  8.6476703459063174e+03  8.6163058772551540e+03  8.5832156076530046e+03  8.5497827903222351e+03  8.5159743302492261e+03  8.4819693284903133e+03  8.4474073833349175e+03  8.4101959267323837e+03  8.3767039249396257e+03  8.3351681184812824e+03  8.2943681043750330e+03  8.2506192331688871e+03  8.2138444672611422e+03  8.1735450270844813e+03  8.1309791586333558e+03  8.0883411437367304e+03  8.0505226344932717e+03  8.0021247009545268e+03  7.9632061617916725e+03  7.9275061775295526e+03  7.8837523868138614e+03  7.8445925958678399e+03  7.7938731057502546e+03  7.7523749518199775e+03  7.6988953826919487e+03  7.6563258808104983e+03  7.6017401813365786e+03  7.5588181983865852e+03  7.5042759658799578e+03  7.4622820401850140e+03  7.4093949713973398e+03  7.3692067072774707e+03  7.3187769901661459e+03  7.2805265411204518e+03  7.2325203004033938e+03  7.1959950654917975e+03  7.1516201624023370e+03  7.1091752142206169e+03  7.0681628657714482e+03  7.0269377276735095e+03  6.9870399350230900e+03  6.9466726964617583e+03  6.9075219267304210e+03  6.8677305786716897e+03  6.8290801131883773e+03  6.7896723944223559e+03  6.7513547395538199e+03  6.7122012206173222e+03  6.6741038670081152e+03  6.6351181434342107e+03  6.5971661068045087e+03  6.5582908566295091e+03  6.5204344538945170e+03  6.4816318282330249e+03  6.4438382850677672e+03  6.4050833774709718e+03  6.3673311371531163e+03  6.3286075743447509e+03  6.2908824518384090e+03  6.2521793884183144e+03  6.2144719218502023e+03  6.1757818543686499e+03  6.1380852833615500e+03  6.0994019608514463e+03  6.0617100478969442e+03  6.0230245595988717e+03  5.9853259027692548e+03  5.9466104129096493e+03  5.9088872072954628e+03  5.8701676658679989e+03  5.8304681932366939e+03  5.7901765604349384e+03  5.7492948307247616e+03  5.7076711081819803e+03  5.6652931730237460e+03  5.6220414724092188e+03  5.5777632268837951e+03  5.5323038292779938e+03  5.4854189994782164e+03  5.4369291737111525e+03  5.3848455458763056e+03  5.3385192573087925e+03  5.2885074324679499e+03  5.2367836794782834e+03  5.1876453528442435e+03  3.7161928570660666e+03  3.5761492203380549e+03  3.4299146165716256e+03  3.2860913389914303e+03  3.1417551916039447e+03  2.9964015174683122e+03  2.8500112026905094e+03  2.7027024609024675e+03  2.5546323279644271e+03  2.4059522823351772e+03  2.2567926809530150e+03  2.1072596186399410e+03  1.9574369093300259e+03  1.8073897169580744e+03  1.6571683227559190e+03  1.5068114466931015e+03  1.3563489675398948e+03  1.2058040663891402e+03  1.0551948832972321e+03  9.0453578823325563e+02  7.5383837233197607e+02  6.0311220395836824e+02  4.5236554874190188e+02  3.0160842409823653e+02  1.5083684419407635e+02  -2.3927347464374102e-03  1.0382193304235831e+04  1.0353968580862638e+04  1.0325285470751707e+04  1.0295576618468638e+04  1.0265436008174385e+04  1.0234725685023428e+04  1.0203823649237178e+04  1.0172962624162272e+04  1.0142409793814641e+04  1.0112951872996477e+04  1.0084839444438876e+04  1.0057226327788056e+04  1.0029627332181510e+04  1.0001964947505079e+04  9.9742598707316829e+03  9.9465553701073059e+03  9.9188774044808888e+03  9.8910109020804757e+03  9.8622406359148245e+03  9.8319366222954159e+03  9.8038169616731630e+03  9.7757130067101498e+03  9.7469780172630599e+03  9.7175872767245764e+03  9.6882345085378365e+03  9.6588476280104551e+03  9.6279889024061486e+03  9.5990189704544864e+03  9.5696933864751281e+03  9.5394037825542655e+03  9.5082162435700993e+03  9.4765142485322085e+03  9.4451244830792748e+03  9.4145304237820401e+03  9.3846516992099696e+03  9.3551453073463690e+03  9.3258881962589094e+03  9.2970765590823285e+03  9.2684142642121606e+03  9.2393556992554204e+03  9.2091381539161812e+03  9.1786476806004284e+03  9.1483964940816913e+03  9.1183534492898580e+03  9.0884380608721694e+03  9.0585869614568746e+03  9.0287542592528862e+03  8.9988994528053681e+03  8.9689879647086364e+03  8.9389864119897320e+03  8.9088682711490965e+03  8.8786181316352631e+03  8.8482539930412331e+03  8.8178600207859836e+03  8.7887374688729687e+03  8.7530046295722241e+03  8.7188612660950057e+03  8.6843903795891802e+03  8.6475054946474484e+03  8.6164407358651151e+03  8.5834067058781256e+03  8.5499928415469913e+03  8.5161560792545533e+03  8.4820060342535271e+03  8.4495572969206878e+03  8.4080884518457733e+03  8.3769265927478664e+03  8.3360874828577707e+03  8.2960727950856835e+03  8.2521786686962332e+03  8.2150252623536799e+03  8.1751545608793394e+03  8.1334348102225913e+03  8.0890987980127884e+03  8.0516406545415684e+03  8.0040978826617584e+03  7.9604098277135608e+03  7.9272586238301965e+03  7.8872108606293932e+03  5.7143219575125067e+03  7.7956880704905179e+03  5.6461972589484840e+03  7.6995421901517730e+03  5.5756479255933473e+03  7.6019159922726039e+03  5.5036134101367252e+03  7.5036192534912534e+03  5.4325225739026127e+03  7.4081893597774615e+03  5.3645985218689275e+03  7.3175025677106505e+03  5.3002333708550950e+03  7.2313962394864748e+03  5.2389505028110343e+03  7.1517441161347951e+03  5.1753865733088196e+03  7.0686649361437840e+03  5.1159430142432075e+03  6.9878620905457228e+03  5.0578093845074900e+03  6.9085696111738998e+03  5.0005332717775409e+03  6.8302818915167036e+03  4.9438261181203188e+03  6.7526604079701410e+03  4.8874950749348873e+03  6.6754789557231697e+03  4.8314118598115620e+03  6.5985872780670588e+03  4.7754915851790993e+03  6.5218860633041895e+03  4.7196783123206533e+03  6.4453099282885250e+03  4.6639353035331242e+03  6.3688159594222634e+03  4.6082384989209513e+03  6.2923760410269906e+03  4.5525721700807771e+03  6.2159717103604398e+03  4.4969260589350588e+03  6.1395907072346718e+03  4.4412938795970922e+03  6.0632253663746224e+03  4.3856763922740529e+03  5.9868792966517076e+03  4.3301165907431086e+03  5.9107060913484902e+03  4.2760073794713917e+03  4.2491245502413067e+03  4.2192603632356431e+03  4.1897401299217272e+03  4.1595466122887065e+03  4.1289160637922960e+03  4.0977410484394304e+03  4.0658378632034924e+03  4.0332112323742331e+03  3.9995746208317291e+03  3.9647748526618793e+03  3.9253463788066638e+03  3.8914171736309308e+03  3.8543350513269056e+03  3.8150365470227885e+03  3.7726318006332058e+03  3.6886076922019893e+03  3.5654576914055333e+03  3.4273225156967669e+03  3.2857977208235034e+03  3.1423071881267206e+03  2.9971930132453172e+03  2.8507917230773187e+03  2.7033822695751910e+03  2.5551912820222715e+03  2.4063983342575634e+03  2.2571430