<?xml version="1.0"?>
<VTKFile type="UnstructuredGrid"  version="0.1"  >
<UnstructuredGrid>
<Piece  NumberOfPoints="21400" NumberOfCells="42336">
<Points>
<DataArray  type="Float64"  NumberOfComponents="3"  format="ascii">0 0 0  0.004583333333333333 0 0  0.009166666666666667 0 0  0.01375 0 0  0.01833333333333333 0 0  0.02291666666666667 0 0  0.0275 0 0  0.03208333333333334 0 0  0.03666666666666667 0 0  0.04125 0 0  0.04583333333333334 0 0  0.05041666666666667 0 0  0.055 0 0  0.05958333333333334 0 0  0.06416666666666668 0 0  0.06875000000000001 0 0  0.07333333333333333 0 0  0.07791666666666666 0 0  0.08249999999999999 0 0  0.08708333333333333 0 0  0.09166666666666667 0 0  0.09625000000000002 0 0  0.1008333333333333 0 0  0.1054166666666667 0 0  0.11 0 0  0.1145833333333333 0 0  0.1191666666666667 0 0  0.12375 0 0  0.1283333333333334 0 0  0.1329166666666667 0 0  0.1375 0 0  0.1420833333333333 0 0  0.1466666666666667 0 0  0.15125 0 0  0.1558333333333333 0 0  0.1604166666666667 0 0  0.165 0 0  0.1695833333333333 0 0  0.1741666666666667 0 0  0.17875 0 0  0.1833333333333333 0 0  0.1879166666666667 0 0  0.1925 0 0  0.1970833333333333 0 0  0.2016666666666667 0 0  0.20625 0 0  0.2108333333333333 0 0  0.2154166666666666 0 0  0.22 0 0  0.2245833333333334 0 0  0.2291666666666667 0 0  0.23375 0 0  0.2383333333333333 0 0  0.2429166666666667 0 0  0.2475 0 0  0.2520833333333333 0 0  0.2566666666666667 0 0  0.26125 0 0  0.2658333333333334 0 0  0.2704166666666666 0 0  0.275 0 0  0.2795833333333334 0 0  0.2841666666666667 0 0  0.28875 0 0  0.2933333333333333 0 0  0.2979166666666667 0 0  0.3025 0 0  0.3070833333333334 0 0  0.3116666666666666 0 0  0.31625 0 0  0.3208333333333333 0 0  0.3254166666666667 0 0  0.33 0 0  0.3345833333333333 0 0  0.3391666666666667 0 0  0.34375 0 0  0.3483333333333333 0 0  0.3529166666666667 0 0  0.3575 0 0  0.3620833333333333 0 0  0.3666666666666667 0 0  0.37125 0 0  0.3758333333333334 0 0  0.3804166666666667 0 0  0.3850000000000001 0 0  0.3895833333333333 0 0  0.3941666666666667 0 0  0.39875 0 0  0.4033333333333334 0 0  0.4079166666666666 0 0  0.4125 0 0  0.4170833333333334 0 0  0.4216666666666667 0 0  0.42625 0 0  0.4308333333333333 0 0  0.4354166666666667 0 0  0.44 0 0  0.4445833333333333 0 0  0.4491666666666667 0 0  0.45375 0 0  0.4583333333333333 0 0  0.4629166666666666 0 0  0.4675 0 0  0.4720833333333334 0 0  0.4766666666666667 0 0  0.4812500000000001 0 0  0.4858333333333333 0 0  0.4904166666666667 0 0  0.495 0 0  0.4995833333333334 0 0  0.5041666666666667 0 0  0.50875 0 0  0.5133333333333334 0 0  0.5179166666666667 0 0  0.5225 0 0  0.5270833333333333 0 0  0.5316666666666667 0 0  0.53625 0 0  0.5408333333333333 0 0  0.5454166666666667 0 0  0.55 0 0  0.5545833333333333 0 0  0.5591666666666667 0 0  0.5637500000000001 0 0  0.5683333333333334 0 0  0.5729166666666666 0 0  0.5775 0 0  0.5820833333333334 0 0  0.5866666666666667 0 0  0.5912499999999999 0 0  0.5958333333333334 0 0  0.6004166666666667 0 0  0.605 0 0  0.6095833333333334 0 0  0.6141666666666667 0 0  0.61875 0 0  0.6233333333333333 0 0  0.6279166666666667 0 0  0.6325000000000001 0 0  0.6370833333333333 0 0  0.6416666666666666 0 0  0.64625 0 0  0.6508333333333334 0 0  0.6554166666666666 0 0  0.6599999999999999 0 0  0.6645833333333334 0 0  0.6691666666666667 0 0  0.67375 0 0  0.6783333333333333 0 0  0.6829166666666667 0 0  0.6875 0 0  0.6920833333333333 0 0  0.6966666666666667 0 0  0.70125 0 0  0.7058333333333333 0 0  0.7104166666666667 0 0  0.7150000000000001 0 0  0.7195833333333334 0 0  0.7241666666666666 0 0  0.72875 0 0  0.7333333333333334 0 0  0.7379166666666667 0 0  0.7425 0 0  0.7470833333333333 0 0  0.7516666666666667 0 0  0.75625 0 0  0.7608333333333334 0 0  0.7654166666666666 0 0  0.7700000000000001 0 0  0 0.002380952380952381 0  0.004583333333333333 0.002380952380952381 0  0.009166666666666667 0.002380952380952381 0  0.01375 0.002380952380952381 0  0.01833333333333333 0.002380952380952381 0  0.02291666666666667 0.002380952380952381 0  0.0275 0.002380952380952381 0  0.03208333333333334 0.002380952380952381 0  0.03666666666666667 0.002380952380952381 0  0.04125 0.002380952380952381 0  0.04583333333333334 0.002380952380952381 0  0.05041666666666667 0.002380952380952381 0  0.055 0.002380952380952381 0  0.05958333333333334 0.002380952380952381 0  0.06416666666666668 0.002380952380952381 0  0.06875000000000001 0.002380952380952381 0  0.07333333333333333 0.002380952380952381 0  0.07791666666666666 0.002380952380952381 0  0.08249999999999999 0.002380952380952381 0  0.08708333333333333 0.002380952380952381 0  0.09166666666666667 0.002380952380952381 0  0.09625000000000002 0.002380952380952381 0  0.1008333333333333 0.002380952380952381 0  0.1054166666666667 0.002380952380952381 0  0.11 0.002380952380952381 0  0.1145833333333333 0.002380952380952381 0  0.1191666666666667 0.002380952380952381 0  0.12375 0.002380952380952381 0  0.1283333333333334 0.002380952380952381 0  0.1329166666666667 0.002380952380952381 0  0.1375 0.002380952380952381 0  0.1420833333333333 0.002380952380952381 0  0.1466666666666667 0.002380952380952381 0  0.15125 0.002380952380952381 0  0.1558333333333333 0.002380952380952381 0  0.1604166666666667 0.002380952380952381 0  0.165 0.002380952380952381 0  0.1695833333333333 0.002380952380952381 0  0.1741666666666667 0.002380952380952381 0  0.17875 0.002380952380952381 0  0.1833333333333333 0.002380952380952381 0  0.1879166666666667 0.002380952380952381 0  0.1925 0.002380952380952381 0  0.1970833333333333 0.002380952380952381 0  0.2016666666666667 0.002380952380952381 0  0.20625 0.002380952380952381 0  0.2108333333333333 0.002380952380952381 0  0.2154166666666666 0.002380952380952381 0  0.22 0.002380952380952381 0  0.2245833333333334 0.002380952380952381 0  0.2291666666666667 0.002380952380952381 0  0.23375 0.002380952380952381 0  0.2383333333333333 0.002380952380952381 0  0.2429166666666667 0.002380952380952381 0  0.2475 0.002380952380952381 0  0.2520833333333333 0.002380952380952381 0  0.2566666666666667 0.002380952380952381 0  0.26125 0.002380952380952381 0  0.2658333333333334 0.002380952380952381 0  0.2704166666666666 0.002380952380952381 0  0.275 0.002380952380952381 0  0.2795833333333334 0.002380952380952381 0  0.2841666666666667 0.002380952380952381 0  0.28875 0.002380952380952381 0  0.2933333333333333 0.002380952380952381 0  0.2979166666666667 0.002380952380952381 0  0.3025 0.002380952380952381 0  0.3070833333333334 0.002380952380952381 0  0.3116666666666666 0.002380952380952381 0  0.31625 0.002380952380952381 0  0.3208333333333333 0.002380952380952381 0  0.3254166666666667 0.002380952380952381 0  0.33 0.002380952380952381 0  0.3345833333333333 0.002380952380952381 0  0.3391666666666667 0.002380952380952381 0  0.34375 0.002380952380952381 0  0.3483333333333333 0.002380952380952381 0  0.3529166666666667 0.002380952380952381 0  0.3575 0.002380952380952381 0  0.3620833333333333 0.002380952380952381 0  0.3666666666666667 0.002380952380952381 0  0.37125 0.002380952380952381 0  0.3758333333333334 0.002380952380952381 0  0.3804166666666667 0.002380952380952381 0  0.3850000000000001 0.002380952380952381 0  0.3895833333333333 0.002380952380952381 0  0.3941666666666667 0.002380952380952381 0  0.39875 0.002380952380952381 0  0.4033333333333334 0.002380952380952381 0  0.4079166666666666 0.002380952380952381 0  0.4125 0.002380952380952381 0  0.4170833333333334 0.002380952380952381 0  0.4216666666666667 0.002380952380952381 0  0.42625 0.002380952380952381 0  0.4308333333333333 0.002380952380952381 0  0.4354166666666667 0.002380952380952381 0  0.44 0.002380952380952381 0  0.4445833333333333 0.002380952380952381 0  0.4491666666666667 0.002380952380952381 0  0.45375 0.002380952380952381 0  0.4583333333333333 0.002380952380952381 0  0.4629166666666666 0.002380952380952381 0  0.4675 0.002380952380952381 0  0.4720833333333334 0.002380952380952381 0  0.4766666666666667 0.002380952380952381 0  0.4812500000000001 0.002380952380952381 0  0.4858333333333333 0.002380952380952381 0  0.4904166666666667 0.002380952380952381 0  0.495 0.002380952380952381 0  0.4995833333333334 0.002380952380952381 0  0.5041666666666667 0.002380952380952381 0  0.50875 0.002380952380952381 0  0.5133333333333334 0.002380952380952381 0  0.5179166666666667 0.002380952380952381 0  0.5225 0.002380952380952381 0  0.5270833333333333 0.002380952380952381 0  0.5316666666666667 0.002380952380952381 0  0.53625 0.002380952380952381 0  0.5408333333333333 0.002380952380952381 0  0.5454166666666667 0.002380952380952381 0  0.55 0.002380952380952381 0  0.5545833333333333 0.002380952380952381 0  0.5591666666666667 0.002380952380952381 0  0.5637500000000001 0.002380952380952381 0  0.5683333333333334 0.002380952380952381 0  0.5729166666666666 0.002380952380952381 0  0.5775 0.002380952380952381 0  0.5820833333333334 0.002380952380952381 0  0.5866666666666667 0.002380952380952381 0  0.5912499999999999 0.002380952380952381 0  0.5958333333333334 0.002380952380952381 0  0.6004166666666667 0.002380952380952381 0  0.605 0.002380952380952381 0  0.6095833333333334 0.002380952380952381 0  0.6141666666666667 0.002380952380952381 0  0.61875 0.002380952380952381 0  0.6233333333333333 0.002380952380952381 0  0.6279166666666667 0.002380952380952381 0  0.6325000000000001 0.002380952380952381 0  0.6370833333333333 0.002380952380952381 0  0.6416666666666666 0.002380952380952381 0  0.64625 0.002380952380952381 0  0.6508333333333334 0.002380952380952381 0  0.6554166666666666 0.002380952380952381 0  0.6599999999999999 0.002380952380952381 0  0.6645833333333334 0.002380952380952381 0  0.6691666666666667 0.002380952380952381 0  0.67375 0.002380952380952381 0  0.6783333333333333 0.002380952380952381 0  0.6829166666666667 0.002380952380952381 0  0.6875 0.002380952380952381 0  0.6920833333333333 0.002380952380952381 0  0.6966666666666667 0.002380952380952381 0  0.70125 0.002380952380952381 0  0.7058333333333333 0.002380952380952381 0  0.7104166666666667 0.002380952380952381 0  0.7150000000000001 0.002380952380952381 
[...]
<PointData  Scalars="pressure"> 
<DataArray  type="Float64"  Name="pressure"  format="ascii">2.2804417778894102e+04  2.2774722585891916e+04  2.2747512541566772e+04  2.2718923334965239e+04  2.2689049510202120e+04  2.2653673266531288e+04  2.2620977243865986e+04  2.2588254368061105e+04  2.2552678921928757e+04  2.2523453843849718e+04  2.2499659531099045e+04  2.2473326380913320e+04  2.2446239401703078e+04  2.2418812818390656e+04  2.2391198945708624e+04  2.2363444485176991e+04  2.2335515382596161e+04  2.2307321726735183e+04  2.2278829206426766e+04  2.2250214461137919e+04  2.2221762947716572e+04  2.2193624757726135e+04  2.2165865505854159e+04  2.2142851194369257e+04  1.6102381285432730e+04  1.6078069247691306e+04  1.6054090015684766e+04  1.6030204064382466e+04  1.6006157199884716e+04  1.5981672664214148e+04  1.5956655955358039e+04  1.5931210138120377e+04  1.5905511344160253e+04  1.5879647102198705e+04  1.5853551277640800e+04  1.5827095209075058e+04  1.5800238368838744e+04  1.5773089030958216e+04  1.5745960396172479e+04  1.5720331196213037e+04  1.5687531263999923e+04  1.5656055896492458e+04  1.5624201794345630e+04  1.5591882374848947e+04  1.5558780628022443e+04  1.5525313363032090e+04  1.5491413180063208e+04  1.5457415627676975e+04  1.5423534200231103e+04  1.5389893359651980e+04  1.5356999567622875e+04  1.5324710874575056e+04  1.5293783989263746e+04  1.5263672488881442e+04  1.5233697979597426e+04  1.5202601316097413e+04  1.5169264302814339e+04  1.5134629422624615e+04  1.5102143941452843e+04  1.5065987444517647e+04  1.5034418021468860e+04  1.5001428245490695e+04  1.4964834212575499e+04  1.4924657408018078e+04  1.4881542080635048e+04  1.4837755938933131e+04  1.4793304603572094e+04  1.4748228408038811e+04  1.4704232629067561e+04  1.4661867601892456e+04  1.4619191909385376e+04  1.4564342097983012e+04  1.4459486860317205e+04  1.4315159065714517e+04  1.4164518652447658e+04  1.4015699943794487e+04  1.3867650701783565e+04  1.3719578669741957e+04  1.3571173101308157e+04  1.3422350993162130e+04  1.3273131102966856e+04  1.3123568326072254e+04  1.2973724408831673e+04  1.2823655989224320e+04  1.2673410766210414e+04  1.2523027208444417e+04  1.2372535624830305e+04  1.2221959603291129e+04  1.2071317398480589e+04  1.1920623119017424e+04  1.1769887685367612e+04  1.1619119578253976e+04  1.1468325412916372e+04  1.1317510375496744e+04  1.1166678553253854e+04  1.1015833184319066e+04  1.0864976847004804e+04  1.0714111603870824e+04  1.0563239111938288e+04  1.0412360707517149e+04  1.0261477471916891e+04  1.0110590282683695e+04  9.9596998538097887e+03  9.8088067674824870e+03  9.6579114992965406e+03  9.5070144383802599e+03  9.3561159035368873e+03  9.2052161562440760e+03  9.0543154111610838e+03  8.9034138446483666e+03  8.7525116016943321e+03  8.6016088015600235e+03  8.4507055423881920e+03  8.2998019049728882e+03  8.1488979558468836e+03  7.9979937498132922e+03  7.8470893320235091e+03  7.6961847396841567e+03  7.5452800034603079e+03  7.3943751486295914e+03  7.2434701960320826e+03  7.0925651628522401e+03  6.9416600632630189e+03  6.7907549089565864e+03  6.6398497095818266e+03  6.4889444731051299e+03  6.3380392061081129e+03  6.1871339140335413e+03  6.0362286013885578e+03  5.8853232719129783e+03  5.7344179287188872e+03  5.5835125744068300e+03  5.4326072111628582e+03  5.2817018408401836e+03  5.1307964650284221e+03  4.9798910851130586e+03  4.8289857023273526e+03  4.6780803177987400e+03  4.5271749325914279e+03  4.3762695477469242e+03  4.2253641643240853e+03  4.0744587834404520e+03  3.9235534063166156e+03  3.7726480343257463e+03  3.6217426690507582e+03  3.4708373123521969e+03  3.3199319664508839e+03  3.1690266340304661e+03  3.0181213183672066e+03  2.8672160234969074e+03  2.7163107544331524e+03  2.5654055174574842e+03  2.4145003205120820e+03  2.2635951737412634e+03  2.1126900902537436e+03  1.9617850872203519e+03  1.8108801874953265e+03  1.6599754220788041e+03  1.5090708339823109e+03  1.3581664844822303e+03  1.2072624639682808e+03  1.0563589091071085e+03  9.0545605235702135e+02  7.5455417505514129e+02  6.0365472252979544e+02  4.5275236514907391e+02  3.0190539300824634e+02  1.5056425476243774e+02  4.2690987399428684e+00  2.2802765302182346e+04  2.2774405974138175e+04  2.2748382694038130e+04  2.2717154304209278e+04  1.6526987873810689e+04  1.6502142238540251e+04  1.6478566949189208e+04  1.6454975417983926e+04  1.6430080187266751e+04  2.2524137366400802e+04  2.2499852453820222e+04  2.2473393510110436e+04  2.2446273198960960e+04  2.2418831404009707e+04  2.2391212807132400e+04  2.2363462165664030e+04  2.2335544754476399e+04  2.2307358813872845e+04  2.2278845624631562e+04  2.2250191076731444e+04  2.2221734066256409e+04  2.2193560421359925e+04  2.2165914329427902e+04  2.2139836903050833e+04  2.2104562266359491e+04  2.2071181402351547e+04  2.2038278576632969e+04  2.2005519640972467e+04  2.1972546178548433e+04  2.1938945878555711e+04  2.1904589890746476e+04  2.1869635434879874e+04  2.1834345842269435e+04  2.1798850143107498e+04  2.1763045011841423e+04  2.1726733336675854e+04  2.1689851322221180e+04  2.1652559493484743e+04  2.1615183187750154e+04  2.1579769045043689e+04  1.5687352041901846e+04  2.1491954625924955e+04  1.5624286353907703e+04  2.1403851847124886e+04  1.5558848659428506e+04  2.1312446805358970e+04  1.5491427950457579e+04  2.1219206937233550e+04  1.5423482137417803e+04  2.1126477264230038e+04  1.5356875992330888e+04  2.1036956854532931e+04  1.5293611200864316e+04  2.0953213314502791e+04  1.5233943804072382e+04  2.0869536560322656e+04  1.5169537056111971e+04  2.0776120574697150e+04  1.5100912290133067e+04  1.5065514102777037e+04  1.5034647619003474e+04  1.5001867264748706e+04  1.4965221141920094e+04  1.4925057480647632e+04  1.4881533878167926e+04  1.4837847479199721e+04  1.4793426908380550e+04  1.4748087170847541e+04  1.4703992064494749e+04  1.4661834844142362e+04  1.4619423224323376e+04  1.4571518874428184e+04  1.4464151932962566e+04  1.4315115661468204e+04  1.4164252019797228e+04  1.4015635152225110e+04  1.3867659720439975e+04  1.3719618879338066e+04  1.3571220086255189e+04  1.3422394924555283e+04  1.3273168586775770e+04  1.3123598892676602e+04  1.2973748742384676e+04  1.2823675119698177e+04  1.2673425721021851e+04  1.2523038882708397e+04  1.2372544750249610e+04  1.2221966757967597e+04  1.2071323030663390e+04  1.1920627572868976e+04  1.1769891224038171e+04  1.1619122402877687e+04  1.1468327677566638e+04  1.1317512198663348e+04  1.1166680026522357e+04  1.1015834378883132e+04  1.0864977818536890e+04  1.0714112396165503e+04  1.0563239759644426e+04  1.0412361238195665e+04  1.0261477907599250e+04  1.0110590641059911e+04  9.9597001491402643e+03  9.8088070113029335e+03  9.6579117009667716e+03  9.5070146055143523e+03  9.3561160423425481e+03  9.2052162717919418e+03  9.0543155075995983e+03  8.9034139253760441e+03  8.7525116694984354e+03  8.6016088587286540e+03  8.4507055908011298e+03  8.2998019461754720e+03  8.1488979911101778e+03  7.9979937801832248e+03  7.8470893583610523e+03  7.6961847626982499e+03  7.5452800237347974e+03  7.3943751666454200e+03  7.2434702121854352e+03  7.0925651774695034e+03  6.9416600766130614e+03  6.7907549212608701e+03  6.6398497210227060e+03  6.4889444838326863e+03  6.3380392162457902e+03  6.1871339236827480e+03  6.0362286106324709e+03  5.8853232808196390e+03  5.7344179373437491e+03  5.5835125827948305e+03  5.4326072193500886e+03  5.2817018488552330e+03  5.1307964728934439e+03  4.9798910928445739e+03  4.8289857099368728e+03  4.6780803252931619e+03  4.5271749399732716e+03  4.3762695550143790e+03  4.2253641714708847e+03  4.0744587904555410e+03  3.9235534131836021e+03  3.7726480410220911e+03  3.6217426755466167e+03  3.4708373186088556e+03  3.3199319724186171e+03  3.1690266396456409e+03  3.0181213235483278e+03  2.8672160281391571e+03  2.7163107584007553e+03  2.5654055205728591e+03  2.4145003225401347e+03  2.2635951743661544e+03  2.1126900890437269e+03  1.9617850835731626e+03  1.8108801805507669e+03  1.6599754105750287e+03  1.5090708160039133e+03  1.3581664570566115e+03  1.2072624219301601e+03  1.0563588459871585e+03  9.0545593639780498e+02  7.5455411082484682e+02  6.0365354165068663e+02  4.5275922171998189e+02  3.0184260127386358e+02  1.5112639406230184e+02  -2.3169241576580366e-01  2.2801609896736474e+04  2.2773543268462483e+04  2.2746918329669537e+04  2.2714198740234100e+04  2.2685178938343932e+04  2.2652680952810300e+04  2.2620991806566311e+04  2.2589300597701782e+04  2.2556819384335133e+04  2.2526444221875918e+04  2.2500390779131616e+04  2.2473624685914951e+04  2.2446384983418360e+04  2.2418893922654461e+04  2.2391258797769478e+04  2.2363521060963896e+04  2.2335646715373310e+04  2.2307496174987366e+04  2.2278911132442368e+04  2.2250096817188711e+04  2.2221624074743559e+04  2.2193436540749080e+04  2.2165416434437422e+04  2.2136703289246350e+04  2.2104207282757150e+04  2.2071137549937062e+04  2.2038237683181367e+04  2.2005560523020577e+04  2.1972679236701100e+04  2.1939102502956492e+04  2.1904710401190510e+04  2.1869696301827702e+04  2.1834378265917985e+04  2.1798907637333956e+04  2.1763148942406304e+04  2.1726851912552771e+04  2.1689936991779319e+04  2.1652574746262133e+04  2.1615099099333002e+04  2.1578096519754203e+04  2.1534918151854985e+04  2.1492029093642788e+04  2.1448466726358976e+04  2.1403959583625870e+04  2.1358594893833029e+04  2.1312491851433741e+04  2.1265938870820912e+04  2.1219160304283676e+04  2.1172535771490271e+04  2.1126327442144400e+04  2.1080961419696687e+04  2.1036704516586273e+04  2.0993984949496109e+04  2.0953056747234867e+04  2.0913109690743466e+04  2.0869789951063736e+04  2.0824669872398023e+04  2.0776205493186138e+04  2.0726817219398366e+04  2.0680101130758962e+04  2.0639565033211526e+04  2.0594940575530854e+04  2.0544270630051371e+04  2.0489600401217940e+04  2.0428295390368279e+04  2.0368957920384844e+04  2.0308068507112188e+04  2.0245046888610261e+04  2.0184241159943878e+04  2.0127154263219229e+04  2.0069483581744342e+04  2.0011292507646845e+04  1.4480331243025357e+04  1.4313432014047581e+04  1.4163526110912988e+04  1.4015414587915922e+04  1.3867706404550290e+04  1.3719763606231078e+04  1.3571385094639962e+04  1.3422547681077423e+04  1.3273298319632135e+04  1.3123704413297535e+04  1.2973832620182870e+04  1.2823741003483088e+04  1.2673477196183219e+04  1.2523079052454377e+04  1.2372576142497212e+04  1.2221991366016575e+04  1.2071342398292254e+04  1.1920642884602430e+04  1.1769903385277990e+04  1.1619132105575600e+04  1.1468335451795145e+04  1.1317518452131329e+04  1.1166685074429945e+04  1.1015838466310086e+04  1.0864981137182778e+04  1.0714115096870486e+04  1.0563241961779338e+04  1.0412363036735376e+04  1.0261479378481165e+04  1.0110591845269719e+04  9.9597011358490527e+03  9.8088078202930665e+03  9.6579123645211421e+03  9.5070151498977248e+03  9.3561164889705542e+03  9.2052166381589850e+03  9.0543158080194007e+03  8.9034141715754813e+03  8.7525118710957140e+03  8.6016090236197906e+03  8.4507057254733263e+03  8.2998020559618781e+03  8.1488980803975110e+03  7.9979938525812804e+03  7.8470894168413543e+03  7.6961848097075826e+03  7.5452800612883148e+03  7.3943751964030389e+03  7.2434702355145901e+03  7.0925651954967179e+03  6.9416600902663422e+03  6.7907549313045820e+03  6.6398497280862475e+03  6.4889444884340819e+03  6.3380392188110882e+03  6.1871339245619611e+03  6.0362286101126620e+03  5.8853232791356459e+03  5.7344179346869532e+03  5.5835125793203006e+03  5.4326072151823610e+03  5.2817018440929442e+03  5.1307964676129859e+03  4.9798910871029284e+03  4.8289857037736792e+03  4.6780803187321326e+03  4.5271749330229859e+03  4.3762695476684476e+03  4.2253641637075043e+03  4.0744587822363555e+03  3.9235534044518072e+03  3.7726480316996008e+03  3.6217426655301015e+03  3.4708373077643041e+03  3.3199319605739756e+03  3.1690266265808104e+03  3.0181213089815265e+03  2.8672160117081189e+03  2.7163107396364694e+03  2.5654054988622775e+03  2.4145002970722476e+03  2.2635951440523572e+03  2.1126900523974837e+03  1.9617850385234190e+03  1.8108801241443005e+03  1.6599753384856631e+03  1.5090707216976607e+03  1.3581663302787058e+03  1.2072622461096234e+03  1.0563585913411903e+03  9.0545556020917923e+02  7.5455344127820274e+02  6.0365294599345884e+02  4.5275398450876554e+02  3.0186470221352778e+02  1.5100001885942652e+02  3.0504525938041899e-02  2.2800489760612487e+04  2.2772426564145495e+04  2.2744135784904254e+04  2.2713780471058406e+04  2.2683623187525198e+04  2.2652337149990930e+04  2.2620992684162058e+04  2.2589675764151056e+04  2.2558386850393053e+04  2.2528655923410439e+04  2.2501170696758687e+04  2.2473971597952546e+04  2.2446560955956669e+04  2.2418992781022374e+04  2.2391329606508276e+04  2.2363611831120128e+04  2.2335819556727354e+04  2.2307765898767797e+04  2.2279070841687961e+04  2.2249861093419200e+04  2.2221440034496551e+04  2.2193292398184785e+04  2.2164808161966921e+04  2.2135198829483757e+04  2.2103634869189355e+04  2.2071107100790610e+04  2.2038089235768915e+04  2.2005660452117863e+04  2.1973018711185581e+04  2.1939492391297757e+04  2.1905005360524039e+04  2.1869830571087674e+04  2.1834437489466516e+04  2.1799037075851818e+04  2.1763407028677750e+04  2.1727150179694549e+04  2.1690145338271999e+04  2.1652640873540644e+04  2.1614863366015084e+04  2.1576401110226547e+04  2.1534925318061472e+04  2.1492315267813843e+04  2.1448804505243999e+04  2.1404290282027665e+04  2.1358852328576995e+04  2.1312675132217173e+04  2.1266006228918061e+04  2.1219127231616007e+04  2.1172367034081672e+04  2.1126046997316709e+04  2.1080539094459084e+04  2.1036169898781158e+04  2.0993337243062491e+04  2.0952370026129494e+04  2.0914981430996020e+04  2.0870059446813008e+04  2.0825960694259458e+04  2.0776966931054638e+04  2.0722413966128883e+04  2.0678130342468816e+04  2.0641144653624626e+04  2.0596921407470913e+04  2.0544906996359259e+04  2.0492791559243546e+04  2.0426442992892069e+04  2.0369850221959623e+04  2.0308859573567577e+04  2.0244342328217335e+04  2.0182889045814947e+04  2.0127400332808145e+04  2.0070921516197785e+04  2.0011878345554611e+04  1.4477330217542001e+04  1.4310647046156737e+04  1.4162324682670987e+04  1.4015128355528765e+04  1.3867831625055933e+04  1.3720032653832599e+04  1.3571676458608163e+04  1.3422812240945381e+04  1.3273520875826258e+04  1.3123884491576637e+04  1.2973975337046575e+04  1.2823852914096711e+04  1.2673564553599967e+04  1.2523147196868977e+04  1.2372629393026835e+04  1.2222033114243102e+04  1.2071375264495955e+04  1.1920668876452986e+04  1.1769924036227381e+04  1.1619148587239080e+04  1.1468348661728674e+04  1.1317529080870259e+04  1.1166693656036181e+04  1.1015845416232738e+04  1.0864986780549601e+04  1.0714119689643878e+04  1.0563245706623806e+04  1.0412366094973811e+04  1.0261481879156496e+04  1.0110593892058150e+04  9.9597028123713353e+03  9.8088091942243555e+03  9.6579134907937241e+03  9.5070160732138138e+03  9.3561172457863813e+03  9.2052172582605799e+03  9.0543163157808049e+03  8.9034145869680851e+03  8.7525122105013743e+03  8.6016093004882368e+03  8.4507059508553266e+03  8.2998022389428315e+03  8.1488982284508511e+03  7.9979939718570913e+03  7.8470895124024346e+03  7.6961848857228188e+03  7.5452801211912401e+03  7.3943752430219683e+03  7.2434702711795171e+03  7.0925652221271685e+03  6.9416601094435982e+03  6.7907549443310918e+03  6.6398497360344945e+03  6.4889444921867735e+03  6.3380392190942084e+03  6.1871339219719302e+03  6.0362286051386336e+03  5.8853232721777831e+03  5.7344179260713690e+03  5.5835125693112304e+03  5.4326072039920091e+03  5.2817018318893788e+03  5.1307964545263840e+03  4.9798910732303748e+03  4.8289856891827139e+03  4.6780803034631699e+03  4.5271749170906405e+03  4.3762695310618565e+03  4.2253641463895465e+03  4.0744587641417452e+03  3.9235533854838600e+03  3.7726480117254532e+03  3.6217426443739951e+03  3.4708372851983991e+03  3.3199319363058953e+03  3.1690266002367766e+03  3.0181212800833878e+03  2.8672159796417341e+03  2.7163107036076385e+03  2.5654054578343316e+03  2.4145002496760303e+03  2.2635950884537347e+03  2.1126899860978897e+03  1.9617849580519701e+03  1.8108800245691273e+03  1.6599752126141223e+03  1.5090705587189482e+03  1.3581661133841858e+03  1.2072619480056701e+03  1.0563581663440093e+03  9.0545492221151085e+02  7.5455245887831575e+02  6.0365113963120780e+02  4.5275160935313124e+02  3.0185741362622650e+02  1.5095887915597345e+02  -2.4393847249585933e-03  2.2799364359309799e+04  2.2771139519310404e+04  2.2742456003702766e+04  2.2712746423107845e+04  2.2682604746620447e+04  2.2651892991715318e+04  2.2620989163018676e+04  2.2590126003917932e+04  2.2559570759303304e+04  2.2530110286616888e+04  2.2501995329487607e+04  2.2474379894538171e+04  2.2446779185082014e+04  2.2419116403721877e+04  2.2391413428736996e+04  2.2363715489920189e+04  2.2336051870303225e+04  2.2308212608331982e+04  2.2279489344366379e+04  2.2249250972476228e+04  2.2221221524642180e+04  2.2193228192481078e+04  2.2164462331746268e+04  2.2134378630744573e+04  2.2103215755768604e+04  2.2071324793816533e+04  2.2037614110814466e+04  2.2005865097483202e+04  2.1973618001040497e+04  2.1940155063626738e+04  2.1905498365730818e+04  2.1870009699850259e+04  2.1834477579510247e+04  2.1799219554357645e+04  2.1763848161037873e+04  2.1727672366112452e+04  2.1690479800493347e+04  2.1652785906981466e+04  2.1614637976149603e+04  2.1575776091876658e+04  2.1535075989117231e+04  2.1492855027290334e+04  2.1449423404158362e+04  2.1404865415095526e+04  2.1359315428867911e+04  2.1312984684781764e+04  2.1266133472049583e+04  2.1219056473726352e+04  2.1172079711216065e+04  2.1125543244892229e+04  2.1079806690763806e+04  2.1035221286855794e+04  2.0992171263250089e+04  2.0951099625338324e+04  2.0914013191099748e+04  2.0871498955125247e+04  2.0830404470265465e+04  1.5137027278613119e+04  1.5093485729987973e+04  2.0675035890929121e+04  2.0642828344205900e+04  1.5009119156866131e+04  1.4967634737232614e+04  1.4932470500398302e+04  1.4882453562579305e+04  1.4841274806009116e+04  1.4797122155266266e+04  1.4748913110453796e+04  2.0182207430327184e+04  2.0127872850790776e+04  2.0072314547823949e+04  1.4568454867768678e+04  1.4452129416573842e+04  1.4306917312184025e+04  1.4160838642904722e+04  1.4014915469206333e+04  1.3868102042382165e+04  1.3720456000805856e+04  1.3572105975473434e+04  1.3423192025851118e+04  1.3273836089299319e+04  1.3124137639885237e+04  1.2974175104467551e+04  1.2824009183086977e+04  1.2673686386339861e+04  1.2523242188978431e+04  1.2372703624940223e+04  1.2222091331931857e+04  1.2071421121508174e+04  1.1920705166399481e+04  1.1769952890616445e+04  1.1619171634024078e+04  1.1468367148184398e+04  1.1317543966988886e+04  1.1166705684739856e+04  1.1015855165872492e+04  1.0864994704100303e+04  1.0714126144005591e+04  1.0563250974602148e+04  1.0412370401850472e+04  1.0261485405257146e+04  1.0110596782348939e+04  9.9597051838388124e+03  9.8088111415917137e+03  9.6579150909797590e+03  9.5070173888347108e+03  9.3561183279231282e+03  9.2052181486587833e+03  9.0543170486083873e+03  8.9034151902263147e+03  8.7525127071622119e+03  8.6016097094143388e+03  8.4507062875465399e+03  8.2998025161434816e+03  8.1488984566448780e+03  7.9979941596725102e+03  7.8470896669422582e+03  7.6961850128361539e+03  7.5452802256956293e+03  7.3943753288858934e+03  7.2434703416723260e+03  7.0925652799423069e+03  6.9416601567999323e+03  6.7907549830562484e+03  6.6398497676334273e+03  6.4889445178981423e+03  6.3380392399367565e+03  6.1871339387825947e+03  6.0362286186038291e+03  5.8853232828590526e+03  5.7344179344263493e+03  5.5835125757107162e+03  5.4326072087337861e+03  5.2817018352093064e+03  5.1307964566071432e+03  4.9798910742082226e+03  4.8289856891524596e+03  4.6780803024815596e+03  4.5271749151782597e+03  4.3762695282035575e+03  4.2253641425334063e+03  4.0744587591963909e+03  3.9235533793139966e+03  3.7726480041452082e+03  3.6217426351376039e+03  3.4708372739874653e+03  3.3199319227121596e+03  3.1690265837388288e+03  3.0181212600150047e+03  2.8672159551484619e+03  2.7163106735864430e+03  2.5654054208484563e+03  2.4145002038327384e+03  2.2635950