<?xml version="1.0"?>
<VTKFile type="UnstructuredGrid"  version="0.1"  >
<UnstructuredGrid>
<Piece  NumberOfPoints="21400" NumberOfCells="42336">
<Points>
<DataArray  type="Float64"  NumberOfComponents="3"  format="ascii">0 0 0  0.004583333333333333 0 0  0.009166666666666667 0 0  0.01375 0 0  0.01833333333333333 0 0  0.02291666666666667 0 0  0.0275 0 0  0.03208333333333334 0 0  0.03666666666666667 0 0  0.04125 0 0  0.04583333333333334 0 0  0.05041666666666667 0 0  0.055 0 0  0.05958333333333334 0 0  0.06416666666666668 0 0  0.06875000000000001 0 0  0.07333333333333333 0 0  0.07791666666666666 0 0  0.08249999999999999 0 0  0.08708333333333333 0 0  0.09166666666666667 0 0  0.09625000000000002 0 0  0.1008333333333333 0 0  0.1054166666666667 0 0  0.11 0 0  0.1145833333333333 0 0  0.1191666666666667 0 0  0.12375 0 0  0.1283333333333334 0 0  0.1329166666666667 0 0  0.1375 0 0  0.1420833333333333 0 0  0.1466666666666667 0 0  0.15125 0 0  0.1558333333333333 0 0  0.1604166666666667 0 0  0.165 0 0  0.1695833333333333 0 0  0.1741666666666667 0 0  0.17875 0 0  0.1833333333333333 0 0  0.1879166666666667 0 0  0.1925 0 0  0.1970833333333333 0 0  0.2016666666666667 0 0  0.20625 0 0  0.2108333333333333 0 0  0.2154166666666666 0 0  0.22 0 0  0.2245833333333334 0 0  0.2291666666666667 0 0  0.23375 0 0  0.2383333333333333 0 0  0.2429166666666667 0 0  0.2475 0 0  0.2520833333333333 0 0  0.2566666666666667 0 0  0.26125 0 0  0.2658333333333334 0 0  0.2704166666666666 0 0  0.275 0 0  0.2795833333333334 0 0  0.2841666666666667 0 0  0.28875 0 0  0.2933333333333333 0 0  0.2979166666666667 0 0  0.3025 0 0  0.3070833333333334 0 0  0.3116666666666666 0 0  0.31625 0 0  0.3208333333333333 0 0  0.3254166666666667 0 0  0.33 0 0  0.3345833333333333 0 0  0.3391666666666667 0 0  0.34375 0 0  0.3483333333333333 0 0  0.3529166666666667 0 0  0.3575 0 0  0.3620833333333333 0 0  0.3666666666666667 0 0  0.37125 0 0  0.3758333333333334 0 0  0.3804166666666667 0 0  0.3850000000000001 0 0  0.3895833333333333 0 0  0.3941666666666667 0 0  0.39875 0 0  0.4033333333333334 0 0  0.4079166666666666 0 0  0.4125 0 0  0.4170833333333334 0 0  0.4216666666666667 0 0  0.42625 0 0  0.4308333333333333 0 0  0.4354166666666667 0 0  0.44 0 0  0.4445833333333333 0 0  0.4491666666666667 0 0  0.45375 0 0  0.4583333333333333 0 0  0.4629166666666666 0 0  0.4675 0 0  0.4720833333333334 0 0  0.4766666666666667 0 0  0.4812500000000001 0 0  0.4858333333333333 0 0  0.4904166666666667 0 0  0.495 0 0  0.4995833333333334 0 0  0.5041666666666667 0 0  0.50875 0 0  0.5133333333333334 0 0  0.5179166666666667 0 0  0.5225 0 0  0.5270833333333333 0 0  0.5316666666666667 0 0  0.53625 0 0  0.5408333333333333 0 0  0.5454166666666667 0 0  0.55 0 0  0.5545833333333333 0 0  0.5591666666666667 0 0  0.5637500000000001 0 0  0.5683333333333334 0 0  0.5729166666666666 0 0  0.5775 0 0  0.5820833333333334 0 0  0.5866666666666667 0 0  0.5912499999999999 0 0  0.5958333333333334 0 0  0.6004166666666667 0 0  0.605 0 0  0.6095833333333334 0 0  0.6141666666666667 0 0  0.61875 0 0  0.6233333333333333 0 0  0.6279166666666667 0 0  0.6325000000000001 0 0  0.6370833333333333 0 0  0.6416666666666666 0 0  0.64625 0 0  0.6508333333333334 0 0  0.6554166666666666 0 0  0.6599999999999999 0 0  0.6645833333333334 0 0  0.6691666666666667 0 0  0.67375 0 0  0.6783333333333333 0 0  0.6829166666666667 0 0  0.6875 0 0  0.6920833333333333 0 0  0.6966666666666667 0 0  0.70125 0 0  0.7058333333333333 0 0  0.7104166666666667 0 0  0.7150000000000001 0 0  0.7195833333333334 0 0  0.7241666666666666 0 0  0.72875 0 0  0.7333333333333334 0 0  0.7379166666666667 0 0  0.7425 0 0  0.7470833333333333 0 0  0.7516666666666667 0 0  0.75625 0 0  0.7608333333333334 0 0  0.7654166666666666 0 0  0.7700000000000001 0 0  0 0.002380952380952381 0  0.004583333333333333 0.002380952380952381 0  0.009166666666666667 0.002380952380952381 0  0.01375 0.002380952380952381 0  0.01833333333333333 0.002380952380952381 0  0.02291666666666667 0.002380952380952381 0  0.0275 0.002380952380952381 0  0.03208333333333334 0.002380952380952381 0  0.03666666666666667 0.002380952380952381 0  0.04125 0.002380952380952381 0  0.04583333333333334 0.002380952380952381 0  0.05041666666666667 0.002380952380952381 0  0.055 0.002380952380952381 0  0.05958333333333334 0.002380952380952381 0  0.06416666666666668 0.002380952380952381 0  0.06875000000000001 0.002380952380952381 0  0.07333333333333333 0.002380952380952381 0  0.07791666666666666 0.002380952380952381 0  0.08249999999999999 0.002380952380952381 0  0.08708333333333333 0.002380952380952381 0  0.09166666666666667 0.002380952380952381 0  0.09625000000000002 0.002380952380952381 0  0.1008333333333333 0.002380952380952381 0  0.1054166666666667 0.002380952380952381 0  0.11 0.002380952380952381 0  0.1145833333333333 0.002380952380952381 0  0.1191666666666667 0.002380952380952381 0  0.12375 0.002380952380952381 0  0.1283333333333334 0.002380952380952381 0  0.1329166666666667 0.002380952380952381 0  0.1375 0.002380952380952381 0  0.1420833333333333 0.002380952380952381 0  0.1466666666666667 0.002380952380952381 0  0.15125 0.002380952380952381 0  0.1558333333333333 0.002380952380952381 0  0.1604166666666667 0.002380952380952381 0  0.165 0.002380952380952381 0  0.1695833333333333 0.002380952380952381 0  0.1741666666666667 0.002380952380952381 0  0.17875 0.002380952380952381 0  0.1833333333333333 0.002380952380952381 0  0.1879166666666667 0.002380952380952381 0  0.1925 0.002380952380952381 0  0.1970833333333333 0.002380952380952381 0  0.2016666666666667 0.002380952380952381 0  0.20625 0.002380952380952381 0  0.2108333333333333 0.002380952380952381 0  0.2154166666666666 0.002380952380952381 0  0.22 0.002380952380952381 0  0.2245833333333334 0.002380952380952381 0  0.2291666666666667 0.002380952380952381 0  0.23375 0.002380952380952381 0  0.2383333333333333 0.002380952380952381 0  0.2429166666666667 0.002380952380952381 0  0.2475 0.002380952380952381 0  0.2520833333333333 0.002380952380952381 0  0.2566666666666667 0.002380952380952381 0  0.26125 0.002380952380952381 0  0.2658333333333334 0.002380952380952381 0  0.2704166666666666 0.002380952380952381 0  0.275 0.002380952380952381 0  0.2795833333333334 0.002380952380952381 0  0.2841666666666667 0.002380952380952381 0  0.28875 0.002380952380952381 0  0.2933333333333333 0.002380952380952381 0  0.2979166666666667 0.002380952380952381 0  0.3025 0.002380952380952381 0  0.3070833333333334 0.002380952380952381 0  0.3116666666666666 0.002380952380952381 0  0.31625 0.002380952380952381 0  0.3208333333333333 0.002380952380952381 0  0.3254166666666667 0.002380952380952381 0  0.33 0.002380952380952381 0  0.3345833333333333 0.002380952380952381 0  0.3391666666666667 0.002380952380952381 0  0.34375 0.002380952380952381 0  0.3483333333333333 0.002380952380952381 0  0.3529166666666667 0.002380952380952381 0  0.3575 0.002380952380952381 0  0.3620833333333333 0.002380952380952381 0  0.3666666666666667 0.002380952380952381 0  0.37125 0.002380952380952381 0  0.3758333333333334 0.002380952380952381 0  0.3804166666666667 0.002380952380952381 0  0.3850000000000001 0.002380952380952381 0  0.3895833333333333 0.002380952380952381 0  0.3941666666666667 0.002380952380952381 0  0.39875 0.002380952380952381 0  0.4033333333333334 0.002380952380952381 0  0.4079166666666666 0.002380952380952381 0  0.4125 0.002380952380952381 0  0.4170833333333334 0.002380952380952381 0  0.4216666666666667 0.002380952380952381 0  0.42625 0.002380952380952381 0  0.4308333333333333 0.002380952380952381 0  0.4354166666666667 0.002380952380952381 0  0.44 0.002380952380952381 0  0.4445833333333333 0.002380952380952381 0  0.4491666666666667 0.002380952380952381 0  0.45375 0.002380952380952381 0  0.4583333333333333 0.002380952380952381 0  0.4629166666666666 0.002380952380952381 0  0.4675 0.002380952380952381 0  0.4720833333333334 0.002380952380952381 0  0.4766666666666667 0.002380952380952381 0  0.4812500000000001 0.002380952380952381 0  0.4858333333333333 0.002380952380952381 0  0.4904166666666667 0.002380952380952381 0  0.495 0.002380952380952381 0  0.4995833333333334 0.002380952380952381 0  0.5041666666666667 0.002380952380952381 0  0.50875 0.002380952380952381 0  0.5133333333333334 0.002380952380952381 0  0.5179166666666667 0.002380952380952381 0  0.5225 0.002380952380952381 0  0.5270833333333333 0.002380952380952381 0  0.5316666666666667 0.002380952380952381 0  0.53625 0.002380952380952381 0  0.5408333333333333 0.002380952380952381 0  0.5454166666666667 0.002380952380952381 0  0.55 0.002380952380952381 0  0.5545833333333333 0.002380952380952381 0  0.5591666666666667 0.002380952380952381 0  0.5637500000000001 0.002380952380952381 0  0.5683333333333334 0.002380952380952381 0  0.5729166666666666 0.002380952380952381 0  0.5775 0.002380952380952381 0  0.5820833333333334 0.002380952380952381 0  0.5866666666666667 0.002380952380952381 0  0.5912499999999999 0.002380952380952381 0  0.5958333333333334 0.002380952380952381 0  0.6004166666666667 0.002380952380952381 0  0.605 0.002380952380952381 0  0.6095833333333334 0.002380952380952381 0  0.6141666666666667 0.002380952380952381 0  0.61875 0.002380952380952381 0  0.6233333333333333 0.002380952380952381 0  0.6279166666666667 0.002380952380952381 0  0.6325000000000001 0.002380952380952381 0  0.6370833333333333 0.002380952380952381 0  0.6416666666666666 0.002380952380952381 0  0.64625 0.002380952380952381 0  0.6508333333333334 0.002380952380952381 0  0.6554166666666666 0.002380952380952381 0  0.6599999999999999 0.002380952380952381 0  0.6645833333333334 0.002380952380952381 0  0.6691666666666667 0.002380952380952381 0  0.67375 0.002380952380952381 0  0.6783333333333333 0.002380952380952381 0  0.6829166666666667 0.002380952380952381 0  0.6875 0.002380952380952381 0  0.6920833333333333 0.002380952380952381 0  0.6966666666666667 0.002380952380952381 0  0.70125 0.002380952380952381 0  0.7058333333333333 0.002380952380952381 0  0.7104166666666667 0.002380952380952381 0  0.7150000000000001 0.002380952380952381 
[...]
<PointData  Scalars="pressure"> 
<DataArray  type="Float64"  Name="pressure"  format="ascii">1.8696830348393825e+04  1.8667135324524610e+04  1.8639925888394431e+04  1.8611337756632369e+04  1.8581465656570967e+04  1.8546092127718715e+04  1.8513399359405001e+04  1.8480680515492098e+04  1.8445110268522800e+04  1.8415889953138376e+04  1.8392099886950666e+04  1.8365771466565704e+04  1.8338688839674105e+04  1.8311265168551919e+04  1.8283651022994989e+04  1.8255890183982399e+04  1.8227943727306607e+04  1.8199713530921257e+04  1.8171150716018768e+04  1.8142403173479601e+04  1.8113697587622195e+04  1.8085020125568102e+04  1.8056206860361224e+04  1.8027177625217057e+04  1.7997958100970798e+04  1.7968605613178850e+04  1.7939258657098180e+04  1.7910183298783093e+04  1.7881525657456383e+04  1.7857732157930233e+04  1.2979787832397327e+04  1.2954627464060737e+04  1.2930061318546688e+04  1.2905919199415928e+04  1.2882117331821832e+04  1.2858555736026694e+04  1.2835176537643847e+04  1.2812010469571160e+04  1.2789253797842526e+04  1.2768071203929965e+04  1.2741390978685971e+04  1.2716017432562703e+04  1.2690565110718053e+04  1.2664751968285425e+04  1.2638080178997398e+04  1.2610826254497972e+04  1.2582404424748927e+04  1.2553269094374638e+04  1.2522804711433029e+04  1.2491586975802295e+04  1.2459099882521485e+04  1.2425988299896084e+04  1.2392036779254471e+04  1.2357731250384082e+04  1.2321839063011723e+04  1.2284320305355974e+04  1.2245557323288554e+04  1.2206721010021591e+04  1.2170878335542089e+04  1.2129295078290133e+04  1.2091886153360352e+04  1.2056444724967643e+04  1.2023229328912341e+04  1.1991823992687163e+04  1.1961045198866072e+04  1.1930637704431629e+04  1.1899845602066385e+04  1.1868793046764544e+04  1.1837318739528915e+04  1.1805418217639564e+04  1.1773573562622716e+04  1.1742220562434846e+04  1.1710126346736102e+04  1.1683183281624064e+04  1.1660197959181707e+04  1.1633776254654680e+04  1.1605788147017938e+04  1.1577637754282665e+04  1.1549699085381842e+04  1.1521411778353553e+04  1.1492463659144931e+04  1.1462936848438216e+04  1.1432896411749784e+04  1.1402331262730469e+04  1.1371202318084803e+04  1.1339438858579908e+04  1.1306939198651777e+04  1.1273576799848655e+04  1.1239206534055755e+04  1.1203778859542494e+04  1.1167780997833052e+04  1.1131945662975768e+04  1.1095698802302868e+04  1.1058831069279633e+04  1.1022761080535520e+04  1.0959198024964204e+04  1.0827780985043217e+04  1.0678115441797925e+04  1.0530710680541688e+04  1.0384927847523961e+04  1.0239084355936837e+04  1.0092612087776373e+04  9.9453789820677739e+03  9.7974315599577749e+03  9.6488750245001538e+03  9.4998226264403311e+03  9.3503761860289087e+03  9.2006204593768107e+03  9.0506232925968652e+03  8.9004378735715436e+03  8.7501054544475828e+03  8.5996578857100794e+03  8.4491197452884753e+03  8.2985100378000425e+03  8.1478435128327819e+03  7.9971316716185693e+03  7.8463835294692044e+03  7.6956061913878411e+03  7.5448052867469960e+03  7.3939852984251020e+03  7.2431498131267626e+03  7.0923017128198680e+03  6.9414433220593965e+03  6.7905765221139927e+03  6.6397028399665232e+03  6.4888235181725959e+03  6.3379395700332288e+03  6.1870518234190931e+03  6.0361609557626753e+03  5.8852675221293885e+03  5.7343719778302166e+03  5.5834746967035226e+03  5.4325759859423242e+03  5.2816760981526813e+03  5.1307752411835208e+03  4.9798735861560390e+03  4.8289712740342966e+03  4.6780684210106083e+03  4.5271651229261088e+03  4.3762614589046298e+03  4.2253574943445255e+03  4.0744532833863809e+03  3.9235488709530086e+03  3.7726442944410601e+03  3.6217395851299025e+03  3.4708347693625747e+03  3.3199298695451857e+03  3.1690249050047610e+03  3.0181198927413830e+03  2.8672148481080253e+03  2.7163097854515800e+03  2.5654047187515957e+03  2.4144996623003367e+03  2.2635946314813054e+03  2.1126896437270188e+03  1.9617847197780422e+03  1.8108798854374641e+03  1.6599751741433749e+03  1.5090706309253023e+03  1.3581663187329266e+03  1.2072623293469712e+03  1.0563588005946617e+03  9.0545596590773891e+02  7.5455410744590381e+02  6.0365467123980648e+02  4.5275232826638666e+02  3.0190536915361730e+02  1.5056424308462056e+02  4.2690984113514494e+00  1.8695177826534975e+04  1.8666818671447672e+04  1.8640795964691013e+04  1.8609568756970035e+04  1.3534763035030755e+04  1.3509919323009028e+04  1.3486346378221342e+04  1.3462757752219110e+04  1.3437866153961677e+04  1.8416573320597239e+04  1.8392292768306997e+04  1.8365838632262698e+04  1.8338722781843517e+04  1.8311284079999783e+04  1.8283665513632375e+04  1.8255908999035521e+04  1.8227975075652132e+04  1.8199754059809020e+04  1.8171173341642352e+04  1.8142392166799418e+04  1.8113691642573893e+04  1.8085037332681004e+04  1.8056232548191045e+04  1.8027198145592229e+04  1.7997974125062326e+04  1.7968607409153701e+04  1.7939232315911111e+04  1.7910110133752391e+04  1.7881582877139394e+04  1.7854622086918505e+04  1.7818006084377394e+04  1.7783435837313606e+04  1.7749725215232560e+04  1.7716591685645948e+04  1.7683930863231377e+04  1.7651594299880366e+04  1.7619496155893692e+04  1.7587683869714678e+04  1.7556338033818996e+04  1.7527076963548265e+04  1.2741201805290071e+04  1.7455981414880622e+04  1.2690630728371163e+04  1.7385626709048785e+04  1.2638192320109121e+04  1.7311618286464687e+04  1.2582542272755416e+04  1.7232617480528334e+04  1.2522950158924172e+04  1.7147941486609456e+04  1.2459219946591620e+04  1.7057864198003710e+04  1.2392094341309252e+04  1.6964189994513508e+04  1.2322197241662107e+04  1.6863389757950699e+04  1.2245564484918523e+04  1.6756768402502443e+04  1.2169760371846463e+04  1.2128969407190110e+04  1.2091701995265979e+04  1.2056181660448910e+04  1.2023002347718784e+04  1.1991799183339941e+04  1.1960966415521654e+04  1.1930721132086812e+04  1.1899853954002214e+04  1.1868846363577255e+04  1.1837377484069233e+04  1.1805412873407849e+04  1.1773507723621904e+04  1.1742181801787958e+04  1.1710756547248357e+04  1.6038526585542280e+04  1.6006967914699342e+04  1.5970472445773843e+04  1.5931874553656011e+04  1.5893184759073245e+04  1.5854927469533674e+04  1.5816131353085950e+04  1.5776373647477420e+04  1.5735833286976169e+04  1.5694597639125803e+04  1.5652643410972907e+04  1.5609919378488774e+04  1.5566327942856182e+04  1.5521728469094138e+04  1.5475948525449052e+04  1.5428784456077237e+04  1.5380095017183243e+04  1.5330537101080719e+04  1.5281484123428452e+04  1.5231704282036197e+04  1.5180975266914733e+04  1.5131152142887078e+04  1.0967052946181240e+04  1.0828908706670700e+04  1.0677524775527932e+04  1.0530582000759667e+04  1.0384948882000141e+04  1.0239159759963059e+04  1.0092697677495893e+04  9.9454576774964353e+03  9.7974980184539254e+03  9.6489288491826592e+03  9.4998652757706404e+03  9.3504096079099709e+03  9.2006465279372333e+03  9.0506436115281667e+03  8.9004537398249413e+03  8.7501178856136576e+03  8.5996676671022105e+03  8.4491274779105133e+03  8.2985161801590184e+03  8.1478484148488715e+03  7.9971356010721483e+03  7.8463866921698454e+03  7.6956087463605090e+03  7.5448073575917042e+03  7.3939869817948511e+03  7.2431511850597144e+03  7.0923028334832534e+03  6.9414442393202380e+03  6.7905772742426125e+03  6.6397034576970591e+03  6.4888240262846148e+03  6.3379399885745515e+03  6.1870521686579614e+03  6.0361612409342606e+03  5.8852677580248546e+03  5.7343721732642616e+03  5.5834748588875036e+03  5.4325761207833930e+03  5.2816762104946638e+03  5.1307753350015337e+03  4.9798736647142487e+03  4.8289713400140990e+03  4.6780684766149998e+03  4.5271651699647991e+03  4.3762614988635041e+03  4.2253575284423823e+03  4.0744533126212150e+03  3.9235488961397227e+03  3.7726443162420765e+03  3.6217396040798512e+03  3.4708347858879642e+03  3.3199298839797511e+03  3.1690249176009534e+03  3.0181199036782614e+03  2.8672148574955513e+03  2.7163097933310287e+03  2.5654047250913154e+03  2.4144996669855050e+03  2.2635946342951897e+03  2.1126896443195124e+03  1.9617847176141024e+03  1.8108798797122035e+03  1.6599751636404183e+03  1.5090706137665595e+03  1.3581662919763623e+03  1.2072622878522523e+03  1.0563587379127234e+03  9.0545585029747599e+02  7.5455404348850880e+02  6.0365349056780531e+02  4.5275918498563487e+02  3.0184257752029981e+02  1.5112638238826682e+02  -2.3169239394609933e-01  1.8694022264890500e+04  1.8665955816943184e+04  1.8639331414975186e+04  1.8606613079901021e+04  1.8577594951222400e+04  1.8545099470473466e+04  1.8513413481619933e+04  1.8481726162716375e+04  1.8449249701648689e+04  1.8418879642087606e+04  1.8392830963268101e+04  1.8366069922326205e+04  1.8338835050904479e+04  1.8311347699660542e+04  1.8283713641085465e+04  1.8255971757053798e+04  1.8228083769419103e+04  1.8199903079571937e+04  1.8171259866647863e+04  1.8142338388428190e+04  1.8113666599488824e+04  1.8085102447402387e+04  1.8056325955412023e+04  1.8027267709253363e+04  1.7998031482101309e+04  1.7968622816976105e+04  1.7939122334391574e+04  1.7909951516540837e+04  1.7881094413715149e+04  1.7851423361832716e+04  1.7817622065686937e+04  1.7783306296467777e+04  1.7749611233935178e+04  1.7716496968330393e+04  1.7683869568947415e+04  1.7651551507846991e+04  1.7619444702545698e+04  1.7587592443761943e+04  1.7556175714750869e+04  1.7525625261410602e+04  1.7490486340193875e+04  1.7456006037154839e+04  1.7421238837581019e+04  1.7385753613532579e+04  1.7349336890050086e+04  1.7311792382052932e+04  1.7272994143351629e+04  1.7232816158101861e+04  1.7191206219710049e+04  1.7148129233046628e+04  1.7103673645694344e+04  1.7057978367262494e+04  1.7011375388507800e+04  1.6964320268533353e+04  1.6916294297226377e+04  1.6863427198056972e+04  1.6810157236607534e+04  1.6756688854192096e+04  1.6703397488901792e+04  1.6649543005663654e+04  1.6598501347410165e+04  1.6549506203820954e+04  1.6503951329855001e+04  1.6461895978910004e+04  1.6419056783936376e+04  1.6378294567297351e+04  1.6335447477247611e+04  1.6293142790414659e+04  1.6249925913542118e+04  1.6205880090004461e+04  1.6161927643244489e+04  1.6118937439532787e+04  1.6076864732124457e+04  1.6040126401429388e+04  1.6007818933366754e+04  1.5970883885422580e+04  1.5931844335575619e+04  1.5893040755789563e+04  1.5855069152556871e+04  1.5816334163873687e+04  1.5776520676186714e+04  1.5735966086757815e+04  1.5694738068103845e+04  1.5652792263286896e+04  1.5610087721212387e+04  1.5566524150325427e+04  1.5521957914987388e+04  1.5476218534118372e+04  1.5429102401740351e+04  1.5380330935332962e+04  1.5330278400940511e+04  1.5281710965796796e+04  1.5231906801320600e+04  1.5181085417244223e+04  1.5130026982283020e+04  1.5064515517856684e+04  1.0828312623345202e+04  1.0675785172481976e+04  1.0530184760908032e+04  1.0385048082963411e+04  1.0239431650497831e+04  1.0092998122494937e+04  9.9457313248816336e+03  9.7977280765188807e+03  9.6491147240064984e+03  9.5000123576430851e+03  9.3505247786476793e+03  9.2007363214553443e+03  9.0507135855876932e+03  8.9005083748880352e+03  8.7501606906995821e+03  8.5997013474311389e+03  8.4491541026194773e+03  8.2985373273848145e+03  8.1478652889200021e+03  7.9971491236976517e+03  7.8463975718844003e+03  7.6956175307691528e+03  7.5448144724320264e+03  7.3939927600836927e+03  7.2431558888623740e+03  7.0923066702242222e+03  6.9414473740628764e+03  6.7905798389889715e+03  6.6397055584782620e+03  6.4888257486051925e+03  6.3379414016231840e+03  6.1870533285874244e+03  6.0361621934338191e+03  5.8852685403507103e+03  5.7343728158516624e+03  5.5834753866375495e+03  5.4325765540950260e+03  5.2816765660957408e+03  5.1307756266204869e+03  4.9798739036245679e+03  4.8289715354768168e+03  4.6780686362390197e+03  4.5271653000007473e+03  4.3762616044436199e+03  4.2253576137763866e+03  4.0744533811561746e+03  3.9235489506902795e+03  3.7726443590961712e+03  3.6217396370839820e+03  3.4708348105151344e+03  3.3199299013824839e+03  3.1690249286509952e+03  3.0181199089938627e+03  2.8672148574563744e+03  2.7163097880796390e+03  2.5654047145187651e+03  2.4144996506962475e+03  2.2635946115429629e+03  2.1126896138997909e+03  1.9617846776880365e+03  1.8108798275176398e+03  1.6599750950082407e+03  1.5090705222916943e+03  1.3581661675096200e+03  1.2072621139088296e+03  1.0563584847798124e+03  9.0545547531426871e+02  7.5455337488460032e+02  6.0365289562575163e+02  4.5275394828905627e+02  3.0186467879077207e+02  1.5100000735843233e+02  3.0504527480451980e-02  1.8692901860748072e+04  1.8664838843607999e+04  1.8636548689443709e+04  1.8606194566978247e+04  1.8576039028915562e+04  1.8544755425233689e+04  1.8513414075170043e+04  1.8482100991840980e+04  1.8450816645554805e+04  1.8421090721314798e+04  1.8393610653164822e+04  1.8366416994982959e+04  1.8339011785571529e+04  1.8311448329966584e+04  1.8283787923956126e+04  1.8256068841117878e+04  1.8228267621289087e+04  1.8200191697368227e+04  1.8171452897785395e+04  1.8142166437765572e+04  1.8113611511819159e+04  1.8085238072044012e+04  1.8056504895101039e+04  1.8027377374317366e+04  1.7998133236892641e+04  1.7968696236612672e+04  1.7938882490784392e+04  1.7909723467139040e+04  1.7880522208765218e+04  1.7849990614154140e+04  1.7817001665828764e+04  1.7783027264391323e+04  1.7749333541009455e+04  1.7716266186184665e+04  1.7683728997130096e+04  1.7651458917936408e+04  1.7619326537316356e+04  1.7587402623196918e+04  1.7555759850886247e+04  1.7524037884138525e+04  1.7490337371315341e+04  1.7456140312988857e+04  1.7421495734213066e+04  1.7386101361695524e+04  1.7349741562478448e+04  1.7312255842542309e+04  1.7273490078971830e+04  1.7233346170141755e+04  1.7191733710580531e+04  1.7148644383954404e+04  1.7104117940919241e+04  1.7058325695437074e+04  1.7011564378711446e+04  1.6964295078082629e+04  1.6918896365846802e+04  1.6863156441706800e+04  1.6810183448486729e+04  1.6757162877898001e+04  1.6699594811168638e+04  1.6649181826168489e+04  1.6597860499536378e+04  1.6548492140426391e+04  1.6502437282311472e+04  1.6463032438701404e+04  1.6417428596593079e+04  1.6379799469463043e+04  1.6334857413121397e+04  1.6293532765400529e+04  1.6250180938366220e+04  1.6205854868155655e+04  1.6161612956013636e+04  1.6118645165676811e+04  1.6077184262140838e+04  1.6041797207499249e+04  1.6010233585916723e+04  1.5971669516537559e+04  1.5931715294228703e+04  1.5892575523701582e+04  1.5855533966386780e+04  1.5816761391719006e+04  1.5776850333039996e+04  1.5736256143600778e+04  1.5695054818799106e+04  1.5653123204634439e+04  1.5610463986348144e+04  1.5566964466910187e+04  1.5522471129470636e+04  1.5476827587417149e+04  1.5429787381668319e+04  1.5381167845165652e+04  1.5328971470281624e+04  1.5282566767130915e+04  1.5232491029040510e+04  1.5180716512628713e+04  1.5131541710949479e+04  1.0959920822087855e+04  1.0819812731962928e+04  1.0673530995168903e+04  1.0529672919227269e+04  1.0385309912610121e+04  1.0239934995046444e+04  1.0093527509845404e+04  9.9462045603334354e+03  9.7981223535056506e+03  9.6494317242522538e+03  9.5002625080578982e+03  9.3507203564579104e+03  9.2008886860110233e+03  9.0508322838613549e+03  8.9006010534462803e+03  8.7502333157168850e+03  8.5997585082897858e+03  8.4491993052263260e+03  8.2985732440654247e+03  8.1478939586349197e+03  7.9971721070897593e+03  7.8464160690104154e+03  7.6956324695128533e+03  7.5448265745406079e+03  7.3940025904165886e+03  7.2431638921696876e+03  7.0923131987074048e+03  6.9414527081311917e+03  6.7905842029869164e+03  6.6397091326834125e+03  6.4888286784466391e+03  6.3379438048159382e+03  6.1870553006933405e+03  6.0361638122256782e+03  5.8852698692588901e+03  5.7343739067021925e+03  5.5834762818386953e+03  5.4325772883916643e+03  5.2816771679827198e+03  5.1307761194852510e+03  4.9798743066736915e+03  4.8289718644891645e+03  4.6780689041791875e+03  4.5271655175194328e+03  4.3762617802861469e+03  4.2253577551163307e+03  4.0744534938676779e+03  3.9235490395699258e+03  3.7726444280431319e+03  3.6217396892453116e+03  3.4708348484016255e+03  3.3199299269590920e+03  3.1690249434046682e+03  3.0181199139802970e+03  2.8672148533258351e+03  2.7163097750801953e+03  2.5654046924728518e+03  2.4144996189427511e+03  2.2635945688311876e+03  2.1126895582117836e+03  1.9617846059486499e+03  1.8108797351206319e+03  1.6599749750286387e+03  1.5090703641383966e+03  1.3581659545539178e+03  1.2072618190039643e+03  1.0563580623612734e+03  9.0545483937094730e+02  7.5455239409137016e+02  6.0365109048240629e+02  4.5275157400999956e+02  3.0185739077074294e+02  1.5095886793635535e+02  -2.4393807514002134e-03  1.8691776073492550e+04  1.8663551420058044e+04  1.8634868554533012e+04  1.8605160150655051e+04  1.8575020217636560e+04  1.8544310845678774e+04  1.8513410074817923e+04  1.8482550681415265e+04  1.8451999899774859e+04  1.8422544447546803e+04  1.8394434953618136e+04  1.8366825440948651e+04  1.8339230948275825e+04  1.8311574215771758e+04  1.8283876260849815e+04  1.8256180788737733e+04  1.8228514413328270e+04  1.8200663066644764e+04  1.8171912986174477e+04  1.8141634981248702e+04  1.8113546922648358e+04  1.8085486345672682e+04  1.8056811035727373e+04  1.8027500423331679e+04  1.7998250908206366e+04  1.7969002160006610e+04  1.7938312651225035e+04  1.7909522848082626e+04  1.7880262841592896e+04  1.7849415134124640e+04  1.7816590251964128e+04  1.7782634405985456e+04  1.7748870597689322e+04  1.7715884242219174e+04  1.7683523600970071e+04  1.7651341553430477e+04  1.7619146403980223e+04  1.7587146279126500e+04  1.7555223327494881e+04  1.7523193535458311e+04  1.7490183912530407e+04  1.7456402774767965e+04  1.7421960585453766e+04  1.7386704292366601e+04  1.7350455797272407e+04  1.7313057592109573e+04  1.7274364891216828e+04  1.7234265045363631e+04  1.7192668777509709e+04  1.7149541726333471e+04  1.7104914580501620e+04  1.7058934499087616e+04  1.7011890256301383e+04  1.6964264666431380e+04  1.6918439629915454e+04  1.6862513402604607e+04  1.6810214230222755e+04  1.6758744855717585e+04  1.6700533219767658e+04  1.6648058284365707e+04  1.6596851734715758e+04  1.6546565012408006e+04  1.6499570846253806e+04  1.6459838405478189e+04  1.6418208922373837e+04  1.1927662912824988e+04  1.6333121720698273e+04  1.1869921054139577e+04  1.1839739346645289e+04  1.1805162192593958e+04  1.1771031383811665e+04  1.1740208785251360e+04  1.1710019384395344e+04  1.6044941167990401e+04  1.6019448639607128e+04  1.1636884291986387e+04  1.1604731172658470e+04  1.1575487906231750e+04  1.5857913195828332e+04  1.1522145541773021e+04  1.1494909161381036e+04  1.1464671801884162e+04  1.1434845599133650e+04  1.1404391912274059e+04  1.1373538652188392e+04  1.1342182890256428e+04  1.1310126059330350e+04  1.1277369891314267e+04  1.1243627596162127e+04  1.1208740554021442e+04  1.1169245676724449e+04  1.1135272040916238e+04  1.1098145656071283e+04  1.1058812747729487e+04  1.1016376674196797e+04  1.0932301225834579e+04  1.0809102995115942e+04  1.0670927486451346e+04  1.0529371467577394e+04  1.0385856373956249e+04  1.0240722518679791e+04  1.0094305163409172e+04  9.9468823158662199e+03  9.7986798787013486e+03  9.6498768483463482e+03  9.5006123737142589e+03  9.3509932986419954e+03  9.2011010915545539e+03  9.0509976950771852e+03  8.9007302162946999e+03  8.7503345690320766e+03  8.5998382460072316e+03  8.4492624029794461e+03  8.2986234149968805e+03  8.1479340351682395e+03  7.9972042576201302e+03  7.8464419617395160e+03  7.6956533951623960e+03  7.5448435378700087e+03  7.3940163784261122e+03  7.2431751250260222e+03  7.0923223679157745e+03  6.9414602052997870e+03  6.7905903416388792e+03  6.6397141649116511e+03  6.4888328077230408e+03  6.3379471959148486e+03  6.1870580874342513e+03  6.0361661035553425e+03  5.8852717540592103e+03  5.7343754576127740e+03  5.5834775583118189e+03  5.4325783391449777e+03  5.2816780329763315e+03  5.1307768315209332e+03  4.9798748926921917e+03  4.8289723466251589e+03  4.6780693006207975e+03  4.5271658432095146e+03  4.3762620474949745e+03  4.2253579739094002e+03  4.0744536724875902e+03  3.9235491847476192e+03  3.7726445452506109e+03  3.6217397828995818e+03  3.4708349220273572e+03  3.3199299833157429e+03  3.1690249845820058e+03  3.0181199414645926e+03  2.8672148680370178e+03  2.7163097773778932e+03  2.5654046821259362e+03  2.4144995950521238e+03  2.2635945