<?xml version="1.0"?>
<VTKFile type="UnstructuredGrid"  version="0.1"  >
<UnstructuredGrid>
<Piece  NumberOfPoints="21400" NumberOfCells="42336">
<Points>
<DataArray  type="Float64"  NumberOfComponents="3"  format="ascii">0 0 0  0.004583333333333333 0 0  0.009166666666666667 0 0  0.01375 0 0  0.01833333333333333 0 0  0.02291666666666667 0 0  0.0275 0 0  0.03208333333333334 0 0  0.03666666666666667 0 0  0.04125 0 0  0.04583333333333334 0 0  0.05041666666666667 0 0  0.055 0 0  0.05958333333333334 0 0  0.06416666666666668 0 0  0.06875000000000001 0 0  0.07333333333333333 0 0  0.07791666666666666 0 0  0.08249999999999999 0 0  0.08708333333333333 0 0  0.09166666666666667 0 0  0.09625000000000002 0 0  0.1008333333333333 0 0  0.1054166666666667 0 0  0.11 0 0  0.1145833333333333 0 0  0.1191666666666667 0 0  0.12375 0 0  0.1283333333333334 0 0  0.1329166666666667 0 0  0.1375 0 0  0.1420833333333333 0 0  0.1466666666666667 0 0  0.15125 0 0  0.1558333333333333 0 0  0.1604166666666667 0 0  0.165 0 0  0.1695833333333333 0 0  0.1741666666666667 0 0  0.17875 0 0  0.1833333333333333 0 0  0.1879166666666667 0 0  0.1925 0 0  0.1970833333333333 0 0  0.2016666666666667 0 0  0.20625 0 0  0.2108333333333333 0 0  0.2154166666666666 0 0  0.22 0 0  0.2245833333333334 0 0  0.2291666666666667 0 0  0.23375 0 0  0.2383333333333333 0 0  0.2429166666666667 0 0  0.2475 0 0  0.2520833333333333 0 0  0.2566666666666667 0 0  0.26125 0 0  0.2658333333333334 0 0  0.2704166666666666 0 0  0.275 0 0  0.2795833333333334 0 0  0.2841666666666667 0 0  0.28875 0 0  0.2933333333333333 0 0  0.2979166666666667 0 0  0.3025 0 0  0.3070833333333334 0 0  0.3116666666666666 0 0  0.31625 0 0  0.3208333333333333 0 0  0.3254166666666667 0 0  0.33 0 0  0.3345833333333333 0 0  0.3391666666666667 0 0  0.34375 0 0  0.3483333333333333 0 0  0.3529166666666667 0 0  0.3575 0 0  0.3620833333333333 0 0  0.3666666666666667 0 0  0.37125 0 0  0.3758333333333334 0 0  0.3804166666666667 0 0  0.3850000000000001 0 0  0.3895833333333333 0 0  0.3941666666666667 0 0  0.39875 0 0  0.4033333333333334 0 0  0.4079166666666666 0 0  0.4125 0 0  0.4170833333333334 0 0  0.4216666666666667 0 0  0.42625 0 0  0.4308333333333333 0 0  0.4354166666666667 0 0  0.44 0 0  0.4445833333333333 0 0  0.4491666666666667 0 0  0.45375 0 0  0.4583333333333333 0 0  0.4629166666666666 0 0  0.4675 0 0  0.4720833333333334 0 0  0.4766666666666667 0 0  0.4812500000000001 0 0  0.4858333333333333 0 0  0.4904166666666667 0 0  0.495 0 0  0.4995833333333334 0 0  0.5041666666666667 0 0  0.50875 0 0  0.5133333333333334 0 0  0.5179166666666667 0 0  0.5225 0 0  0.5270833333333333 0 0  0.5316666666666667 0 0  0.53625 0 0  0.5408333333333333 0 0  0.5454166666666667 0 0  0.55 0 0  0.5545833333333333 0 0  0.5591666666666667 0 0  0.5637500000000001 0 0  0.5683333333333334 0 0  0.5729166666666666 0 0  0.5775 0 0  0.5820833333333334 0 0  0.5866666666666667 0 0  0.5912499999999999 0 0  0.5958333333333334 0 0  0.6004166666666667 0 0  0.605 0 0  0.6095833333333334 0 0  0.6141666666666667 0 0  0.61875 0 0  0.6233333333333333 0 0  0.6279166666666667 0 0  0.6325000000000001 0 0  0.6370833333333333 0 0  0.6416666666666666 0 0  0.64625 0 0  0.6508333333333334 0 0  0.6554166666666666 0 0  0.6599999999999999 0 0  0.6645833333333334 0 0  0.6691666666666667 0 0  0.67375 0 0  0.6783333333333333 0 0  0.6829166666666667 0 0  0.6875 0 0  0.6920833333333333 0 0  0.6966666666666667 0 0  0.70125 0 0  0.7058333333333333 0 0  0.7104166666666667 0 0  0.7150000000000001 0 0  0.7195833333333334 0 0  0.7241666666666666 0 0  0.72875 0 0  0.7333333333333334 0 0  0.7379166666666667 0 0  0.7425 0 0  0.7470833333333333 0 0  0.7516666666666667 0 0  0.75625 0 0  0.7608333333333334 0 0  0.7654166666666666 0 0  0.7700000000000001 0 0  0 0.002380952380952381 0  0.004583333333333333 0.002380952380952381 0  0.009166666666666667 0.002380952380952381 0  0.01375 0.002380952380952381 0  0.01833333333333333 0.002380952380952381 0  0.02291666666666667 0.002380952380952381 0  0.0275 0.002380952380952381 0  0.03208333333333334 0.002380952380952381 0  0.03666666666666667 0.002380952380952381 0  0.04125 0.002380952380952381 0  0.04583333333333334 0.002380952380952381 0  0.05041666666666667 0.002380952380952381 0  0.055 0.002380952380952381 0  0.05958333333333334 0.002380952380952381 0  0.06416666666666668 0.002380952380952381 0  0.06875000000000001 0.002380952380952381 0  0.07333333333333333 0.002380952380952381 0  0.07791666666666666 0.002380952380952381 0  0.08249999999999999 0.002380952380952381 0  0.08708333333333333 0.002380952380952381 0  0.09166666666666667 0.002380952380952381 0  0.09625000000000002 0.002380952380952381 0  0.1008333333333333 0.002380952380952381 0  0.1054166666666667 0.002380952380952381 0  0.11 0.002380952380952381 0  0.1145833333333333 0.002380952380952381 0  0.1191666666666667 0.002380952380952381 0  0.12375 0.002380952380952381 0  0.1283333333333334 0.002380952380952381 0  0.1329166666666667 0.002380952380952381 0  0.1375 0.002380952380952381 0  0.1420833333333333 0.002380952380952381 0  0.1466666666666667 0.002380952380952381 0  0.15125 0.002380952380952381 0  0.1558333333333333 0.002380952380952381 0  0.1604166666666667 0.002380952380952381 0  0.165 0.002380952380952381 0  0.1695833333333333 0.002380952380952381 0  0.1741666666666667 0.002380952380952381 0  0.17875 0.002380952380952381 0  0.1833333333333333 0.002380952380952381 0  0.1879166666666667 0.002380952380952381 0  0.1925 0.002380952380952381 0  0.1970833333333333 0.002380952380952381 0  0.2016666666666667 0.002380952380952381 0  0.20625 0.002380952380952381 0  0.2108333333333333 0.002380952380952381 0  0.2154166666666666 0.002380952380952381 0  0.22 0.002380952380952381 0  0.2245833333333334 0.002380952380952381 0  0.2291666666666667 0.002380952380952381 0  0.23375 0.002380952380952381 0  0.2383333333333333 0.002380952380952381 0  0.2429166666666667 0.002380952380952381 0  0.2475 0.002380952380952381 0  0.2520833333333333 0.002380952380952381 0  0.2566666666666667 0.002380952380952381 0  0.26125 0.002380952380952381 0  0.2658333333333334 0.002380952380952381 0  0.2704166666666666 0.002380952380952381 0  0.275 0.002380952380952381 0  0.2795833333333334 0.002380952380952381 0  0.2841666666666667 0.002380952380952381 0  0.28875 0.002380952380952381 0  0.2933333333333333 0.002380952380952381 0  0.2979166666666667 0.002380952380952381 0  0.3025 0.002380952380952381 0  0.3070833333333334 0.002380952380952381 0  0.3116666666666666 0.002380952380952381 0  0.31625 0.002380952380952381 0  0.3208333333333333 0.002380952380952381 0  0.3254166666666667 0.002380952380952381 0  0.33 0.002380952380952381 0  0.3345833333333333 0.002380952380952381 0  0.3391666666666667 0.002380952380952381 0  0.34375 0.002380952380952381 0  0.3483333333333333 0.002380952380952381 0  0.3529166666666667 0.002380952380952381 0  0.3575 0.002380952380952381 0  0.3620833333333333 0.002380952380952381 0  0.3666666666666667 0.002380952380952381 0  0.37125 0.002380952380952381 0  0.3758333333333334 0.002380952380952381 0  0.3804166666666667 0.002380952380952381 0  0.3850000000000001 0.002380952380952381 0  0.3895833333333333 0.002380952380952381 0  0.3941666666666667 0.002380952380952381 0  0.39875 0.002380952380952381 0  0.4033333333333334 0.002380952380952381 0  0.4079166666666666 0.002380952380952381 0  0.4125 0.002380952380952381 0  0.4170833333333334 0.002380952380952381 0  0.4216666666666667 0.002380952380952381 0  0.42625 0.002380952380952381 0  0.4308333333333333 0.002380952380952381 0  0.4354166666666667 0.002380952380952381 0  0.44 0.002380952380952381 0  0.4445833333333333 0.002380952380952381 0  0.4491666666666667 0.002380952380952381 0  0.45375 0.002380952380952381 0  0.4583333333333333 0.002380952380952381 0  0.4629166666666666 0.002380952380952381 0  0.4675 0.002380952380952381 0  0.4720833333333334 0.002380952380952381 0  0.4766666666666667 0.002380952380952381 0  0.4812500000000001 0.002380952380952381 0  0.4858333333333333 0.002380952380952381 0  0.4904166666666667 0.002380952380952381 0  0.495 0.002380952380952381 0  0.4995833333333334 0.002380952380952381 0  0.5041666666666667 0.002380952380952381 0  0.50875 0.002380952380952381 0  0.5133333333333334 0.002380952380952381 0  0.5179166666666667 0.002380952380952381 0  0.5225 0.002380952380952381 0  0.5270833333333333 0.002380952380952381 0  0.5316666666666667 0.002380952380952381 0  0.53625 0.002380952380952381 0  0.5408333333333333 0.002380952380952381 0  0.5454166666666667 0.002380952380952381 0  0.55 0.002380952380952381 0  0.5545833333333333 0.002380952380952381 0  0.5591666666666667 0.002380952380952381 0  0.5637500000000001 0.002380952380952381 0  0.5683333333333334 0.002380952380952381 0  0.5729166666666666 0.002380952380952381 0  0.5775 0.002380952380952381 0  0.5820833333333334 0.002380952380952381 0  0.5866666666666667 0.002380952380952381 0  0.5912499999999999 0.002380952380952381 0  0.5958333333333334 0.002380952380952381 0  0.6004166666666667 0.002380952380952381 0  0.605 0.002380952380952381 0  0.6095833333333334 0.002380952380952381 0  0.6141666666666667 0.002380952380952381 0  0.61875 0.002380952380952381 0  0.6233333333333333 0.002380952380952381 0  0.6279166666666667 0.002380952380952381 0  0.6325000000000001 0.002380952380952381 0  0.6370833333333333 0.002380952380952381 0  0.6416666666666666 0.002380952380952381 0  0.64625 0.002380952380952381 0  0.6508333333333334 0.002380952380952381 0  0.6554166666666666 0.002380952380952381 0  0.6599999999999999 0.002380952380952381 0  0.6645833333333334 0.002380952380952381 0  0.6691666666666667 0.002380952380952381 0  0.67375 0.002380952380952381 0  0.6783333333333333 0.002380952380952381 0  0.6829166666666667 0.002380952380952381 0  0.6875 0.002380952380952381 0  0.6920833333333333 0.002380952380952381 0  0.6966666666666667 0.002380952380952381 0  0.70125 0.002380952380952381 0  0.7058333333333333 0.002380952380952381 0  0.7104166666666667 0.002380952380952381 0  0.7150000000000001 0.002380952380952381 
[...]
<PointData  Scalars="pressure"> 
<DataArray  type="Float64"  Name="pressure"  format="ascii">1.7019060197205232e+04  1.6989365164632156e+04  1.6962155697297647e+04  1.6933567509454962e+04  1.6903695314499109e+04  1.6868321628335994e+04  1.6835628654211941e+04  1.6802909525749255e+04  1.6767338859988609e+04  1.6738118104377718e+04  1.6714327539627135e+04  1.6687998396526742e+04  1.6660914776943668e+04  1.6633489743236805e+04  1.6605873712201093e+04  1.6578110237431363e+04  1.6550160061914870e+04  1.6521924587117432e+04  1.6493354254377282e+04  1.6464595924980589e+04  1.6435874603641230e+04  1.6407173746194589e+04  1.6378325164620397e+04  1.6349241599495614e+04  1.6319935763275687e+04  1.6290438855537092e+04  1.6260835071659669e+04  1.6231231892773045e+04  1.6201561859086483e+04  1.6171740841070157e+04  1.6141958928547094e+04  1.6113847832707073e+04  1.1717368369066600e+04  1.1689301659121871e+04  1.1665267347116431e+04  1.1641793677955968e+04  1.1618757864564483e+04  1.1596121199558846e+04  1.1574057165000520e+04  1.1553679141666384e+04  1.1528279825753043e+04  1.1504308838852965e+04  1.1480591154185517e+04  1.1456723733930545e+04  1.1432392870141310e+04  1.1407704597543287e+04  1.1382224688872438e+04  1.1356215915751063e+04  1.1329119447349174e+04  1.1301337869421111e+04  1.1272233227606401e+04  1.1242350757568507e+04  1.1211082334927436e+04  1.1178985519691812e+04  1.1144230822371246e+04  1.1107206499451700e+04  1.1067955985588855e+04  1.1028309290886054e+04  1.0991549390993994e+04  1.0948454669586214e+04  1.0908485474014806e+04  1.0869125417310093e+04  1.0830661748031842e+04  1.0792743534072202e+04  1.0755232065652988e+04  1.0720403655947875e+04  1.0687596914984702e+04  1.0654086989704771e+04  1.0619798750308930e+04  1.0585604344635723e+04  1.0551766309168039e+04  1.0518201889067668e+04  1.0483712694330550e+04  1.0455197611029504e+04  1.0432562240754663e+04  1.0408093618240717e+04  1.0381368464458248e+04  1.0353035469234161e+04  1.0324110972342414e+04  1.0295013287533222e+04  1.0266440869614913e+04  1.0238627003179081e+04  1.0210746016397723e+04  1.0183087832898134e+04  1.0154802160150890e+04  1.0126124904463650e+04  1.0097550095524182e+04  1.0069069404556722e+04  1.0040628996925907e+04  1.0011946169602141e+04  9.9827942966167120e+03  9.9531959622585618e+03  9.9231600829908039e+03  9.8926384527685932e+03  9.8615698739315103e+03  9.8298715367242658e+03  9.7974353557521281e+03  9.7641315186441134e+03  9.7298134263294523e+03  9.6944311013693241e+03  9.6584714260789387e+03  9.6226667113383446e+03  9.5864440969759398e+03  9.5495954556177057e+03  9.5135397700592239e+03  9.4499938847095927e+03  9.3186054646848188e+03  9.1689666422747741e+03  9.0215823045823945e+03  8.8758148710418409e+03  8.7299832053182945e+03  8.5835201481392978e+03  8.4362942984598576e+03  8.2883526434832984e+03  8.1398007242275708e+03  7.9907520419701159e+03  7.8413086061157983e+03  7.6915553177764059e+03  7.5415601356287179e+03  7.3913763358569586e+03  7.2410452404803500e+03  7.0905987556729879e+03  6.9400615040151606e+03  6.7894525261033286e+03  6.6387866006379390e+03  6.4880752524895579e+03  6.3373275162213140e+03  6.1865505125552027e+03  6.0357498837280946e+03  5.8849301231697327e+03  5.7340948262579877e+03  5.5832468821074744e+03  5.4323886211787749e+03  5.2815219296381074e+03  5.1306483385492265e+03  4.9797690938901769e+03  4.8288852118577297e+03  4.6779975228026797e+03  4.5271067063168484e+03  4.3762133193867840e+03  4.2253178190800290e+03  4.0744205808948122e+03  3.9235219136522396e+03  3.7726220716196076e+03  3.6217212644081342e+03  3.4708196650769187e+03  3.3199174167888777e+03  3.1690146382975363e+03  3.0181114284922783e+03  2.8672078701898308e+03  2.7163040333303497e+03  2.5653999777158756e+03  2.4144957554171865e+03  2.2635914129732842e+03  2.1126869935192271e+03  1.9617825390091891e+03  1.8108780927657542e+03  1.6599737027082335e+03  1.5090694258507965e+03  1.3581653350792453e+03  1.2072615304331698e+03  1.0563581566298858e+03  9.0545545287969264e+02  7.5455370622504142e+02  6.0365436686525072e+02  4.5275210939095700e+02  3.0190522759176207e+02  1.5056417378437973e+02  4.2690964612963027e+00  1.7017407677679039e+04  1.6989048513761561e+04  1.6963025777643241e+04  1.6931798508620552e+04  1.2312568622413315e+04  1.2287724800052694e+04  1.2264151709216892e+04  1.2240562881763683e+04  1.2215670997652780e+04  1.6738801497207067e+04  1.6714520444014932e+04  1.6688065591068851e+04  1.6660948758784009e+04  1.6633508710636634e+04  1.6605888283009081e+04  1.6578129168227508e+04  1.6550191576975001e+04  1.6521965354337051e+04  1.6493377224407111e+04  1.6464585438052465e+04  1.6435869465500291e+04  1.6407192202425736e+04  1.6378352819189709e+04  1.6349265389454598e+04  1.6319957562460200e+04  1.6290452107558958e+04  1.6260830064264150e+04  1.6231238476024846e+04  1.6201584938444485e+04  1.6171741060254726e+04  1.6141907239366934e+04  1.6113076839082541e+04  1.6082934213597748e+04  1.6046473702624373e+04  1.6013448093585355e+04  1.5981254115983593e+04  1.5949633350978678e+04  1.5918549593635295e+04  1.5888158616552650e+04  1.5860011412510856e+04  1.1528064463119626e+04  1.5792583956829070e+04  1.1480615496101420e+04  1.5727278262245394e+04  1.1432460961549821e+04  1.5660005953876047e+04  1.1382326504753602e+04  1.5589343198973247e+04  1.1329251924835631e+04  1.5514024669652961e+04  1.1272384118562260e+04  1.5433053334772529e+04  1.1211234269783294e+04  1.5346130721452497e+04  1.1144716682215234e+04  1.5247568398056044e+04  1.1068029277227957e+04  1.5139096306075928e+04  1.0990443774321548e+04  1.0948261265399326e+04  1.0908457791586876e+04  1.0869007248379130e+04  1.0830589373845030e+04  1.0792791407067602e+04  1.0754843236502795e+04  1.0720125621882871e+04  1.0687761243549261e+04  1.0654182538544072e+04  1.0619774604274273e+04  1.0585559164232351e+04  1.0551739677428743e+04  1.0518184146764481e+04  1.0484327461854653e+04  1.4352627866632114e+04  1.4321468710533334e+04  1.4288042410079088e+04  1.4251239611022382e+04  1.4212206546977319e+04  1.4172480804786786e+04  1.4132438718638810e+04  1.4093156849121326e+04  1.4055156200322985e+04  1.4016752160311851e+04  1.3978970478751313e+04  1.3940075439722365e+04  1.3900638315868729e+04  1.3861429180166553e+04  1.3822327327290121e+04  1.3783328353375200e+04  1.3743984490108005e+04  1.3703956354454825e+04  1.3663324265514615e+04  1.3622099160992448e+04  1.3580207162066961e+04  1.3537567332169181e+04  1.3494065997907534e+04  1.3449554025193273e+04  1.3403854632328266e+04  1.3356762216365791e+04  1.3308135056729900e+04  1.3258629666544077e+04  1.3209618529511750e+04  1.3159871825303158e+04  1.3109168972171568e+04  1.3059365450996816e+04  9.4578475846276378e+03  9.3197336242300062e+03  9.1683767607005029e+03  9.0214541596823692e+03  8.8758362893241483e+03  8.7300588906227968e+03  8.5836059486754166e+03  8.4363731547450370e+03  8.2884192265002439e+03  8.1398546464318506e+03  7.9907947684001383e+03  7.8413420894189094e+03  7.6915814355743914e+03  7.5415804942306795e+03  7.3913922342052874e+03  7.2410576976998982e+03  7.0906085582723317e+03  6.9400692539378560e+03  6.7894586826010182e+03  6.6387915142246611e+03  6.4880791914219062e+03  6.3373306866924286e+03  6.1865530739000869e+03  6.0357519597980663e+03  5.8849318108218740e+03  5.7340962016963776e+03  5.5832480056342611e+03  5.4323895407705932e+03  5.2815226836540851e+03  5.1306489577951315e+03  4.9797696032028789e+03  4.8288856313302986e+03  4.6779978687383000e+03  4.5271069919766815e+03  4.3762135555799832e+03  4.2253180146319373e+03  4.0744207430203887e+03  3.9235220482552395e+03  3.7726221835331139e+03  3.6217213575884939e+03  3.4708197427603486e+03  3.3199174816179270e+03  3.1690146924229871e+03  3.0181114736547538e+03  2.8672079077843150e+03  2.7163040644558600e+03  2.5654000032115928e+03  2.4144957758852961e+03  2.2635914287874007e+03  2.1126870048152277e+03  1.9617825456519724e+03  1.8108780942793730e+03  1.6599736981466031e+03  1.5090694135576150e+03  1.3581653122940672e+03  1.2072614921638551e+03  1.0563580965477101e+03  9.0545533934054902e+02  7.5455364388733130e+02  6.0365318742243528e+02  4.5275896699059444e+02  3.0184243655825315e+02  1.5112631311049077e+02  -2.3169226446054272e-01  1.7016252123920895e+04  1.6988185666890706e+04  1.6961561238092600e+04  1.6928842839062152e+04  1.6899824621600121e+04  1.6867329000462207e+04  1.6835642820637629e+04  1.6803955242478023e+04  1.6771478421111970e+04  1.6741107905129025e+04  1.6715058715046518e+04  1.6688296979580889e+04  1.6661061163172530e+04  1.6633572521384594e+04  1.6605936684515669e+04  1.6578192322495841e+04  1.6550300842583976e+04  1.6522115191755121e+04  1.6493464925907942e+04  1.6464533433106564e+04  1.6435847186344628e+04  1.6407261590969494e+04  1.6378452925526641e+04  1.6349346017556467e+04  1.6320034505632009e+04  1.6290504745722083e+04  1.6260799730853385e+04  1.6231260407373538e+04  1.6201673041434786e+04  1.6171767830614861e+04  1.6141656073457281e+04  1.6111562215954202e+04  1.6080124016334159e+04  1.6046256493797990e+04  1.6013276842251393e+04  1.5981151730962965e+04  1.5949533605578939e+04  1.5918414359260865e+04  1.5887954506780256e+04  1.5858572043257009e+04  1.5825084153643496e+04  1.5792554771393818e+04  1.5760105700473821e+04  1.5727342095492764e+04  1.5694078553618127e+04  1.5660120540414084e+04  1.5625322196469604e+04  1.5589505010350424e+04  1.5552525107862522e+04  1.5514223935720718e+04  1.5474497693695543e+04  1.5433260556514617e+04  1.5390528326465506e+04  1.5346450947224468e+04  1.5300154261153568e+04  1.5247781532581843e+04  1.5193831035901519e+04  1.5138997315148101e+04  1.5084487186319589e+04  1.5029072970242969e+04  1.4974560918524590e+04  1.4920128335398234e+04  1.4867412477487878e+04  1.4816262944688768e+04  1.4762541726475578e+04  1.4715302215220367e+04  1.4672267491206470e+04  1.4625704781486324e+04  1.4578229094281118e+04  1.4531213555387891e+04  1.4484884121106168e+04  1.4438714320004516e+04  1.4393311697591509e+04  1.4353845210099260e+04  1.4321537639693668e+04  1.4288904570936533e+04  1.4251654625638290e+04  1.4212286566555895e+04  1.4172584542829807e+04  1.4132296640289509e+04  1.4092743836928854e+04  1.4055458829880721e+04  1.4016401377297097e+04  1.3979360335369365e+04  1.3940154032203684e+04  1.3900556724506947e+04  1.3861430593975449e+04  1.3822277496236140e+04  1.3783406248736999e+04  1.3744131714257051e+04  1.3704069532010044e+04  1.3663437764994133e+04  1.3622230141839633e+04  1.3580352116000066e+04  1.3537734746383174e+04  1.3494262843041515e+04  1.3449784910153483e+04  1.3404126437534687e+04  1.3357082015645821e+04  1.3308372826457957e+04  1.3258373232407181e+04  1.3209847033995549e+04  1.3160075692574217e+04  1.3109280323556619e+04  1.3058241721033542e+04  1.2992749154507550e+04  9.3191402726786764e+03  9.1666397858553137e+03  9.0210587475841476e+03  8.8759368009249938e+03  8.7303317434052751e+03  8.5839071157871949e+03  8.4366473536683225e+03  8.2886497118554125e+03  8.1400408561096510e+03  7.9909421151374827e+03  7.8414574712481126e+03  7.6916713983640757e+03  7.5416506047079811e+03  7.3914469796586027e+03  7.2411005924120554e+03  7.0906423115662374e+03  6.9400959381778421e+03  6.7894798784821942e+03  6.6388084281166475e+03  6.4880927466709554e+03  6.3373415931522204e+03  6.1865618802420322e+03  6.0357590926242146e+03  5.8849376038511864e+03  5.7341009175650333e+03  5.5832518522310056e+03  5.4323926835359280e+03  5.2815252548956687e+03  5.1306510637905394e+03  4.9797713296537931e+03  4.8288870475810218e+03  4.6779990310617613e+03  4.5271079461514182e+03  4.3762143389239227e+03  4.2253186576167009e+03  4.0744212705592022e+03  3.9235224807349509e+03  3.7726225376441598e+03  3.6217216469941495e+03  3.4708199786372461e+03  3.3199176730926056e+03  3.1690148469237001e+03  3.0181115971932618e+03  2.8672080051787138e+03  2.7163041395022042e+03  2.5654000588088525e+03  2.4144958141145580e+03  2.2635914509415552e+03  2.1126870113684317e+03  1.9617825361468506e+03  1.8108780670900003e+03  1.6599736500375211e+03  1.5090693388898549e+03  1.3581652015456987e+03  1.2072613293619756e+03  1.0563578523952062e+03  9.0545497151164238e+02  7.5455298087855692e+02  6.0365259672486957e+02  4.5275373334830499e+02  3.0186453979200161e+02  1.5099993910761089e+02  3.0504536633786040e-02  1.7015131733160008e+04  1.6987068707221450e+04  1.6958778522477867e+04  1.6928424340354930e+04  1.6898268711591627e+04  1.6866984974482944e+04  1.6835643441231608e+04  1.6804330110993345e+04  1.6773045435342316e+04  1.6743319098775260e+04  1.6715838531128527e+04  1.6688644216803830e+04  1.6661238124483396e+04  1.6633673471500224e+04  1.6606011425924586e+04  1.6578290070493462e+04  1.6550485655252465e+04  1.6522405183584251e+04  1.6493659908662492e+04  1.6464364405137272e+04  1.6435796702782773e+04  1.6407404309570589e+04  1.6378642845573306e+04  1.6349473571272791e+04  1.6320167522035737e+04  1.6290636377299425e+04  1.6260679720021049e+04  1.6231299335087402e+04  1.6201864496839471e+04  1.6171870096881004e+04  1.6141328958943433e+04  1.6110299586319559e+04  1.6078368677612772e+04  1.6045487819429663e+04  1.6012927771050014e+04  1.5980919835984079e+04  1.5949303072107141e+04  1.5918120214057581e+04  1.5887440233990830e+04  1.5856934810791588e+04  1.5824822432094026e+04  1.5792555582856912e+04  1.5760215373187755e+04  1.5727532937169502e+04  1.5694325104868125e+04  1.5660432447307794e+04  1.5625686873933446e+04  1.5589933959510392e+04  1.5553000272591038e+04  1.5514749665945761e+04  1.5475042529159517e+04  1.5433813540656507e+04  1.5391043907472769e+04  1.5346886995430781e+04  1.5303194866311027e+04  1.5247932395357819e+04  1.5194125918345471e+04  1.5139375264058517e+04  1.5080625438712927e+04  1.5029422484312967e+04  1.4974504335446934e+04  1.4919637766153193e+04  1.4866421275034445e+04  1.4818316075842067e+04  1.4759513981299740e+04  1.4713778858589249e+04  1.4674129063899758e+04  1.4625642710171380e+04  1.4578150582859129e+04  1.4530929980032584e+04  1.4484946796454688e+04  1.4438399223061910e+04  1.4393654831091377e+04  1.4354737698570030e+04  1.4321225086182170e+04  1.4291656660466504e+04  1.4252462359089746e+04  1.4212326476719354e+04  1.4172941227237839e+04  1.4132128077395329e+04  1.4090980746384590e+04  1.4057273604463138e+04  1.4014482959656531e+04  1.3981116072865974e+04  1.3940135329792083e+04  1.3900292821222445e+04  1.3861544889762366e+04  1.3822049354346615e+04  1.3783655048500474e+04  1.3744443283989300e+04  1.3704323304493690e+04  1.3663685829736933e+04  1.3622526863415747e+04  1.3580674908614950e+04  1.3538109265890007e+04  1.3494704767160596e+04  1.3450301457941032e+04  1.3404739592831733e+04  1.3357771227429846e+04  1.3309213575124826e+04  1.3257072206800194e+04  1.3210706459669040e+04  1.3160663010486578e+04  1.3108914423094993e+04  1.3059758408714797e+04  9.4507216962507555e+03  9.3106471043470938e+03  9.1643899406772252e+03  9.0205499691310197e+03  8.8762008278795438e+03  8.7308367069665892e+03  8.5844377212207473e+03  8.4371215213476135e+03  8.2890447121859906e+03  8.1403584239068387e+03  7.9911927149077792e+03  7.8416534074570245e+03  7.6918240504895712e+03  7.5417695348502175e+03  7.3915398459202952e+03  7.2411733698749904e+03  7.0906995965633832e+03  6.9401412420887164e+03  6.7895158779739268e+03  6.6388371656158652e+03  6.4881157856022101e+03  6.3373601358142314e+03  6.1865768563318215e+03  6.0357712253593327e+03  5.8849474592855868e+03  5.7341089414202697e+03  5.5832583974986419e+03  5.4323980312671929e+03  5.2815296299552883e+03  5.1306546468756724e+03  4.9797742665291980e+03  4.8288894562266814e+03  4.6780010072441128e+03  4.5271095677952508e+03  4.3762156695647263e+03  4.2253197491424453e+03  4.0744221653988293e+03  3.9235232136128134e+03  3.7726231369915063e+03  3.6217221360876911e+03  3.4708203765189974e+03  3.3199179953130542e+03  3.1690151061408765e+03  3.0181118036528155e+03  2.8672081670938028e+03  2.7163042633464697e+03  2.5654001495303705e+03  2.4144958752726175e+03  2.2635914847604076e+03  2.1126870186908345e+03  1.9617825162519086e+03  1.8108780173078064e+03  1.6599735650342307e+03  1.5090692093799630e+03  1.3581650119694802e+03  1.2072610534450612e+03  1.0563574452815176e+03  9.0545434776104594e+02  7.5455200962078243e+02  6.0365079881557710e+02  4.5275136427156571e+02  3.0185725513859586e+02  1.5095880135542657e+02  -2.4393571713793591e-03  1.7014005964956043e+04  1.6985781302649564e+04  1.6957098406270514e+04  1.6927389945300150e+04  1.6897249924727246e+04  1.6866540427181550e+04  1.6835639484840885e+04  1.6804779863058742e+04  1.6774228784002844e+04  1.6744772958895577e+04  1.6716663001215085e+04  1.6689052887554895e+04  1.6661457597062010e+04  1.6633799793921971e+04  1.6606100388077706e+04  1.6578402925232000e+04  1.6550733765335564e+04  1.6522878447098337e+04  1.6494122629230358e+04  1.6463836804722341e+04  1.6435738368436967e+04  1.6407662155357724e+04  1.6378963526959324e+04  1.6349619646560768e+04  1.6320325094138085e+04  1.6291013037010725e+04  1.6260250315356345e+04  1.6231396729853923e+04  1.6202226004355964e+04  1.6172125856002338e+04  1.6141103190952941e+04  1.6109279544410487e+04  1.6076977919466592e+04  1.6044540657874435e+04  1.6012424905068416e+04  1.5980597511452801e+04  1.5948950478731982e+04  1.5917700049870369e+04  1.5886743677746983e+04  1.5855932136121948e+04  1.5824468240209120e+04  1.5792584617534951e+04  1.5760421110151285e+04  1.5727861326516540e+04  1.5694759500136281e+04  1.5660968137906748e+04  1.5626327594692049e+04  1.5590674395426478e+04  1.5553837097227097e+04  1.5515661133626350e+04  1.5476006771362288e+04  1.5434779306799866e+04  1.5391944766484683e+04  1.5347612726950789e+04  1.5304003750947857e+04  1.5249094460343362e+04  1.5195328002429585e+04  1.5140415257143692e+04  1.5081071187947557e+04  1.5030153369532869e+04  1.4974453955387609e+04  1.4918672182908351e+04  1.4864641272008666e+04  1.4815846030353379e+04  1.4760516417636647e+04  1.4709360792368945e+04  1.4673220853448196e+04  1.0652376247846363e+04  1.0619840571539631e+04  1.0582728024648059e+04  1.0552859772963589e+04  1.0515896812353794e+04  1.0482165489034720e+04  1.0457294828374625e+04  1.4323292159298599e+04  1.0413901442940041e+04  1.4256444390102826e+04  1.0352229053219949e+04  1.4175085717516353e+04  1.0292827973843108e+04  1.4090991281301967e+04  1.0238283157023952e+04  1.4014286953482686e+04  1.0182702132641645e+04  1.3941191675463991e+04  1.0123483790198494e+04  1.3862758377928401e+04  1.0066748858654923e+04  1.3785241384154471e+04  1.0011900443688437e+04  9.9847786048117632e+03  9.9546696886425780e+03  9.9249912262347516e+03  9.8946505376560472e+03  9.8638969370839404e+03  9.8326263733823562e+03  9.8006434783953700e+03  9.7679505972339157e+03  9.7342609374493186e+03  9.6994180025476908e+03  9.6599575483165499e+03  9.6260070564082616e+03  9.5889034114537026e+03  9.5495883531347008e+03  9.5071685588336968e+03  9.4231197914180611e+03  9.2999467975981715e+03  9.1617924064159033e+03  9.0202526867227025e+03  8.8767503010370947e+03  8.7316264603134950e+03  8.5852170589928464e+03  8.4378005697449316e+03  8.2896032429090810e+03  8.1408043384052207e+03  7.9915432072650847e+03  7.8419268500600128e+03  7.6920368579234373e+03  7.5419352703495879e+03  7.3916692714398578e+03  7.2412748366240021e+03  7.0907795081504701e+03  6.9402044817742399e+03  6.7895661649582162e+03  6.6388773371632387e+03  6.4881480139958958e+03  6.3373860923916973e+03  6.1865978343522802e+03  6.0357882316407704e+03  5.8849612825012937e+03  5.7341202030979321e+03  5.5832675902507235e+03  5.4324055476016792e+03  5.2815357841246414e+03  5.1306596915610889e+03  4.9797784056732526e+03  4.8288928549753255e+03  4.6780037997037844e+03  4.5271118631259524e+03  4.3762175567958684e+03  4.2253213010006557e+03  4.0744234413655877e+03  3.9235242623773006e+03  3.7726239984251260e+03  3.6217228428376670e+03  3.4708209552964558e+03  3.3199184679341765e+03  3.1690154903666371e+03  3.0181121138623653e+03  2.8672084148178860e+03  2.7163044576796601e+03  2.5654002974334730e+03  2.4144959817684899e+03  2.2635915