<?xml version="1.0"?>
<VTKFile type="UnstructuredGrid"  version="0.1"  >
<UnstructuredGrid>
<Piece  NumberOfPoints="21400" NumberOfCells="42336">
<Points>
<DataArray  type="Float64"  NumberOfComponents="3"  format="ascii">0 0 0  0.004583333333333333 0 0  0.009166666666666667 0 0  0.01375 0 0  0.01833333333333333 0 0  0.02291666666666667 0 0  0.0275 0 0  0.03208333333333334 0 0  0.03666666666666667 0 0  0.04125 0 0  0.04583333333333334 0 0  0.05041666666666667 0 0  0.055 0 0  0.05958333333333334 0 0  0.06416666666666668 0 0  0.06875000000000001 0 0  0.07333333333333333 0 0  0.07791666666666666 0 0  0.08249999999999999 0 0  0.08708333333333333 0 0  0.09166666666666667 0 0  0.09625000000000002 0 0  0.1008333333333333 0 0  0.1054166666666667 0 0  0.11 0 0  0.1145833333333333 0 0  0.1191666666666667 0 0  0.12375 0 0  0.1283333333333334 0 0  0.1329166666666667 0 0  0.1375 0 0  0.1420833333333333 0 0  0.1466666666666667 0 0  0.15125 0 0  0.1558333333333333 0 0  0.1604166666666667 0 0  0.165 0 0  0.1695833333333333 0 0  0.1741666666666667 0 0  0.17875 0 0  0.1833333333333333 0 0  0.1879166666666667 0 0  0.1925 0 0  0.1970833333333333 0 0  0.2016666666666667 0 0  0.20625 0 0  0.2108333333333333 0 0  0.2154166666666666 0 0  0.22 0 0  0.2245833333333334 0 0  0.2291666666666667 0 0  0.23375 0 0  0.2383333333333333 0 0  0.2429166666666667 0 0  0.2475 0 0  0.2520833333333333 0 0  0.2566666666666667 0 0  0.26125 0 0  0.2658333333333334 0 0  0.2704166666666666 0 0  0.275 0 0  0.2795833333333334 0 0  0.2841666666666667 0 0  0.28875 0 0  0.2933333333333333 0 0  0.2979166666666667 0 0  0.3025 0 0  0.3070833333333334 0 0  0.3116666666666666 0 0  0.31625 0 0  0.3208333333333333 0 0  0.3254166666666667 0 0  0.33 0 0  0.3345833333333333 0 0  0.3391666666666667 0 0  0.34375 0 0  0.3483333333333333 0 0  0.3529166666666667 0 0  0.3575 0 0  0.3620833333333333 0 0  0.3666666666666667 0 0  0.37125 0 0  0.3758333333333334 0 0  0.3804166666666667 0 0  0.3850000000000001 0 0  0.3895833333333333 0 0  0.3941666666666667 0 0  0.39875 0 0  0.4033333333333334 0 0  0.4079166666666666 0 0  0.4125 0 0  0.4170833333333334 0 0  0.4216666666666667 0 0  0.42625 0 0  0.4308333333333333 0 0  0.4354166666666667 0 0  0.44 0 0  0.4445833333333333 0 0  0.4491666666666667 0 0  0.45375 0 0  0.4583333333333333 0 0  0.4629166666666666 0 0  0.4675 0 0  0.4720833333333334 0 0  0.4766666666666667 0 0  0.4812500000000001 0 0  0.4858333333333333 0 0  0.4904166666666667 0 0  0.495 0 0  0.4995833333333334 0 0  0.5041666666666667 0 0  0.50875 0 0  0.5133333333333334 0 0  0.5179166666666667 0 0  0.5225 0 0  0.5270833333333333 0 0  0.5316666666666667 0 0  0.53625 0 0  0.5408333333333333 0 0  0.5454166666666667 0 0  0.55 0 0  0.5545833333333333 0 0  0.5591666666666667 0 0  0.5637500000000001 0 0  0.5683333333333334 0 0  0.5729166666666666 0 0  0.5775 0 0  0.5820833333333334 0 0  0.5866666666666667 0 0  0.5912499999999999 0 0  0.5958333333333334 0 0  0.6004166666666667 0 0  0.605 0 0  0.6095833333333334 0 0  0.6141666666666667 0 0  0.61875 0 0  0.6233333333333333 0 0  0.6279166666666667 0 0  0.6325000000000001 0 0  0.6370833333333333 0 0  0.6416666666666666 0 0  0.64625 0 0  0.6508333333333334 0 0  0.6554166666666666 0 0  0.6599999999999999 0 0  0.6645833333333334 0 0  0.6691666666666667 0 0  0.67375 0 0  0.6783333333333333 0 0  0.6829166666666667 0 0  0.6875 0 0  0.6920833333333333 0 0  0.6966666666666667 0 0  0.70125 0 0  0.7058333333333333 0 0  0.7104166666666667 0 0  0.7150000000000001 0 0  0.7195833333333334 0 0  0.7241666666666666 0 0  0.72875 0 0  0.7333333333333334 0 0  0.7379166666666667 0 0  0.7425 0 0  0.7470833333333333 0 0  0.7516666666666667 0 0  0.75625 0 0  0.7608333333333334 0 0  0.7654166666666666 0 0  0.7700000000000001 0 0  0 0.002380952380952381 0  0.004583333333333333 0.002380952380952381 0  0.009166666666666667 0.002380952380952381 0  0.01375 0.002380952380952381 0  0.01833333333333333 0.002380952380952381 0  0.02291666666666667 0.002380952380952381 0  0.0275 0.002380952380952381 0  0.03208333333333334 0.002380952380952381 0  0.03666666666666667 0.002380952380952381 0  0.04125 0.002380952380952381 0  0.04583333333333334 0.002380952380952381 0  0.05041666666666667 0.002380952380952381 0  0.055 0.002380952380952381 0  0.05958333333333334 0.002380952380952381 0  0.06416666666666668 0.002380952380952381 0  0.06875000000000001 0.002380952380952381 0  0.07333333333333333 0.002380952380952381 0  0.07791666666666666 0.002380952380952381 0  0.08249999999999999 0.002380952380952381 0  0.08708333333333333 0.002380952380952381 0  0.09166666666666667 0.002380952380952381 0  0.09625000000000002 0.002380952380952381 0  0.1008333333333333 0.002380952380952381 0  0.1054166666666667 0.002380952380952381 0  0.11 0.002380952380952381 0  0.1145833333333333 0.002380952380952381 0  0.1191666666666667 0.002380952380952381 0  0.12375 0.002380952380952381 0  0.1283333333333334 0.002380952380952381 0  0.1329166666666667 0.002380952380952381 0  0.1375 0.002380952380952381 0  0.1420833333333333 0.002380952380952381 0  0.1466666666666667 0.002380952380952381 0  0.15125 0.002380952380952381 0  0.1558333333333333 0.002380952380952381 0  0.1604166666666667 0.002380952380952381 0  0.165 0.002380952380952381 0  0.1695833333333333 0.002380952380952381 0  0.1741666666666667 0.002380952380952381 0  0.17875 0.002380952380952381 0  0.1833333333333333 0.002380952380952381 0  0.1879166666666667 0.002380952380952381 0  0.1925 0.002380952380952381 0  0.1970833333333333 0.002380952380952381 0  0.2016666666666667 0.002380952380952381 0  0.20625 0.002380952380952381 0  0.2108333333333333 0.002380952380952381 0  0.2154166666666666 0.002380952380952381 0  0.22 0.002380952380952381 0  0.2245833333333334 0.002380952380952381 0  0.2291666666666667 0.002380952380952381 0  0.23375 0.002380952380952381 0  0.2383333333333333 0.002380952380952381 0  0.2429166666666667 0.002380952380952381 0  0.2475 0.002380952380952381 0  0.2520833333333333 0.002380952380952381 0  0.2566666666666667 0.002380952380952381 0  0.26125 0.002380952380952381 0  0.2658333333333334 0.002380952380952381 0  0.2704166666666666 0.002380952380952381 0  0.275 0.002380952380952381 0  0.2795833333333334 0.002380952380952381 0  0.2841666666666667 0.002380952380952381 0  0.28875 0.002380952380952381 0  0.2933333333333333 0.002380952380952381 0  0.2979166666666667 0.002380952380952381 0  0.3025 0.002380952380952381 0  0.3070833333333334 0.002380952380952381 0  0.3116666666666666 0.002380952380952381 0  0.31625 0.002380952380952381 0  0.3208333333333333 0.002380952380952381 0  0.3254166666666667 0.002380952380952381 0  0.33 0.002380952380952381 0  0.3345833333333333 0.002380952380952381 0  0.3391666666666667 0.002380952380952381 0  0.34375 0.002380952380952381 0  0.3483333333333333 0.002380952380952381 0  0.3529166666666667 0.002380952380952381 0  0.3575 0.002380952380952381 0  0.3620833333333333 0.002380952380952381 0  0.3666666666666667 0.002380952380952381 0  0.37125 0.002380952380952381 0  0.3758333333333334 0.002380952380952381 0  0.3804166666666667 0.002380952380952381 0  0.3850000000000001 0.002380952380952381 0  0.3895833333333333 0.002380952380952381 0  0.3941666666666667 0.002380952380952381 0  0.39875 0.002380952380952381 0  0.4033333333333334 0.002380952380952381 0  0.4079166666666666 0.002380952380952381 0  0.4125 0.002380952380952381 0  0.4170833333333334 0.002380952380952381 0  0.4216666666666667 0.002380952380952381 0  0.42625 0.002380952380952381 0  0.4308333333333333 0.002380952380952381 0  0.4354166666666667 0.002380952380952381 0  0.44 0.002380952380952381 0  0.4445833333333333 0.002380952380952381 0  0.4491666666666667 0.002380952380952381 0  0.45375 0.002380952380952381 0  0.4583333333333333 0.002380952380952381 0  0.4629166666666666 0.002380952380952381 0  0.4675 0.002380952380952381 0  0.4720833333333334 0.002380952380952381 0  0.4766666666666667 0.002380952380952381 0  0.4812500000000001 0.002380952380952381 0  0.4858333333333333 0.002380952380952381 0  0.4904166666666667 0.002380952380952381 0  0.495 0.002380952380952381 0  0.4995833333333334 0.002380952380952381 0  0.5041666666666667 0.002380952380952381 0  0.50875 0.002380952380952381 0  0.5133333333333334 0.002380952380952381 0  0.5179166666666667 0.002380952380952381 0  0.5225 0.002380952380952381 0  0.5270833333333333 0.002380952380952381 0  0.5316666666666667 0.002380952380952381 0  0.53625 0.002380952380952381 0  0.5408333333333333 0.002380952380952381 0  0.5454166666666667 0.002380952380952381 0  0.55 0.002380952380952381 0  0.5545833333333333 0.002380952380952381 0  0.5591666666666667 0.002380952380952381 0  0.5637500000000001 0.002380952380952381 0  0.5683333333333334 0.002380952380952381 0  0.5729166666666666 0.002380952380952381 0  0.5775 0.002380952380952381 0  0.5820833333333334 0.002380952380952381 0  0.5866666666666667 0.002380952380952381 0  0.5912499999999999 0.002380952380952381 0  0.5958333333333334 0.002380952380952381 0  0.6004166666666667 0.002380952380952381 0  0.605 0.002380952380952381 0  0.6095833333333334 0.002380952380952381 0  0.6141666666666667 0.002380952380952381 0  0.61875 0.002380952380952381 0  0.6233333333333333 0.002380952380952381 0  0.6279166666666667 0.002380952380952381 0  0.6325000000000001 0.002380952380952381 0  0.6370833333333333 0.002380952380952381 0  0.6416666666666666 0.002380952380952381 0  0.64625 0.002380952380952381 0  0.6508333333333334 0.002380952380952381 0  0.6554166666666666 0.002380952380952381 0  0.6599999999999999 0.002380952380952381 0  0.6645833333333334 0.002380952380952381 0  0.6691666666666667 0.002380952380952381 0  0.67375 0.002380952380952381 0  0.6783333333333333 0.002380952380952381 0  0.6829166666666667 0.002380952380952381 0  0.6875 0.002380952380952381 0  0.6920833333333333 0.002380952380952381 0  0.6966666666666667 0.002380952380952381 0  0.70125 0.002380952380952381 0  0.7058333333333333 0.002380952380952381 0  0.7104166666666667 0.002380952380952381 0  0.7150000000000001 0.002380952380952381 
[...]
<PointData  Scalars="pressure"> 
<DataArray  type="Float64"  Name="pressure"  format="ascii">1.2605280907000784e+04  1.2575585816925564e+04  1.2548376141828263e+04  1.2519787583401490e+04  1.2489914777735255e+04  1.2454540102129893e+04  1.2421845885794863e+04  1.2389125120021215e+04  1.2353552166505087e+04  1.2324329129567068e+04  1.2300536181867648e+04  1.2274203819964190e+04  1.2247116135961429e+04  1.2219686024023127e+04  1.2192063652585393e+04  1.2164292237112324e+04  1.2136332071878987e+04  1.2108083990917001e+04  1.2079497763066460e+04  1.2050719430699211e+04  1.2021972810101053e+04  1.1993239575711166e+04  1.1964349203246524e+04  1.1935211411208822e+04  1.1905834508982420e+04  1.1876242611255779e+04  1.1846507801507083e+04  1.1816714961166346e+04  1.1786752290518940e+04  1.1756435661919650e+04  1.1725744747282104e+04  1.1694869499854904e+04  1.1664107917199417e+04  1.1633715290457978e+04  1.1603827908561138e+04  1.1574520102046095e+04  1.1545979020907749e+04  1.1518528396262267e+04  1.1496534168561911e+04  8.3504479499672216e+03  8.3250386766559914e+03  8.3017308550623620e+03  8.2794108681206490e+03  8.2572798989041548e+03  8.2353193408609477e+03  8.2133920839219263e+03  8.1914619124007086e+03  8.1695040557648772e+03  8.1474589221888591e+03  8.1253479370104260e+03  8.1030979173035103e+03  8.0807668419590891e+03  8.0583004395480866e+03  8.0357169155277115e+03  8.0120545460963513e+03  7.9871844585110084e+03  7.9611942976609171e+03  7.9350556279509474e+03  7.9109097762613846e+03  7.8825680077346615e+03  7.8559571451644324e+03  7.8288369387734037e+03  7.8008070742586697e+03  7.7716466244727790e+03  7.7410096046899089e+03  7.7088337851745073e+03  7.6749128454192860e+03  7.6382042519824226e+03  7.5991812870683334e+03  7.5581491684299426e+03  7.5156650156894520e+03  7.4727527345810913e+03  7.4254293199209778e+03  7.3818362885315091e+03  7.3431125167519240e+03  7.3021313226452658e+03  7.2624016874796589e+03  7.2247261763815332e+03  7.1878267087914865e+03  7.1518047200531864e+03  7.1159882739144841e+03  7.0809491369696216e+03  7.0462452061235599e+03  7.0124945921733351e+03  6.9792395433761776e+03  6.9470091724796139e+03  6.9152913529876478e+03  6.8845211129849267e+03  6.8541695663927785e+03  6.8245317421269783e+03  6.7946142351766048e+03  6.7645852963998577e+03  6.7349103270297528e+03  6.7055671075519140e+03  6.6765321204972379e+03  6.6477116966840495e+03  6.6191030957574412e+03  6.5906281463624100e+03  6.5623002980957899e+03  6.5340524887731408e+03  6.5059090607297567e+03  6.4778103501865253e+03  6.4497879091956011e+03  6.4217869571532428e+03  6.3938437842389612e+03  6.3659067967276387e+03  6.3380153464671657e+03  6.3101198308945304e+03  6.2822614233727818e+03  6.2543914338404629e+03  6.2265513867513073e+03  6.1986912935918690e+03  6.1708485229528651e+03  6.1429578346793805e+03  6.1149918790084066e+03  6.0866874589533863e+03  6.0578418984647869e+03  6.0284939978185212e+03  5.9986622885982979e+03  5.9683074074978967e+03  5.9373753624691499e+03  5.9057886932373085e+03  5.8734437991722534e+03  5.8402145789965780e+03  5.8059573814839996e+03  5.7706246047334826e+03  5.7347046213334770e+03  5.6989304873599176e+03  5.6627312456968866e+03  5.6259004738915728e+03  5.5898578770246913e+03  5.5263272724210383e+03  5.3949639439091161e+03  5.2453482799905805e+03  5.0979813994515434e+03  4.9522269410771951e+03  4.8064051105779972e+03  4.6599496286640879e+03  4.5127296927839052e+03  4.3647927070960586e+03  4.2162445108241318e+03  4.0671988235094409e+03  3.9177578176507968e+03  3.7680065185578569e+03  3.6180129811992392e+03  3.4678305577646224e+03  3.3175006314151287e+03  3.1670551585696489e+03  3.0165188041473161e+03  2.8659106455160049e+03  2.7152454944917772e+03  2.5645349070571779e+03  2.4137879484117771e+03  2.2630117709665833e+03  2.1122120513601221e+03  1.9613933220920098e+03  1.8105592247596921e+03  1.6597127052110545e+03  1.5088561660004348e+03  1.3579915881026254e+03  1.2071206322173975e+03  1.0562447274263698e+03  9.0536517775647701e+02  7.5448316129191744e+02  6.0360088279056879e+02  4.5271366653440015e+02  3.0188037173806316e+02  1.5055200808589132e+02  4.2687541776588285e+00  1.2603628402788225e+04  1.2575269180237225e+04  1.2549246248597839e+04  1.2518018572836050e+04  9.0972907231639965e+03  9.0724462035623765e+03  9.0488722248785198e+03  9.0252822291379853e+03  9.0003887697109694e+03  1.2325012633144812e+04  1.2300729169104576e+04  1.2274271104217398e+04  1.2247150226426353e+04  1.2219705126667657e+04  1.2192078394870410e+04  1.2164311387792603e+04  1.2136363868717101e+04  1.2108125112637030e+04  1.2079521171728436e+04  1.2050709505635052e+04  1.2021968429566081e+04  1.1993259041156858e+04  1.1964378181256279e+04  1.1935236977839862e+04  1.1905858815778538e+04  1.1876259592336761e+04  1.1846508765705332e+04  1.1816731981899402e+04  1.1786794449637571e+04  1.1756480387801656e+04  1.1725766783456962e+04  1.1694856092319726e+04  1.1664065271771062e+04  1.1633659229376221e+04  1.1603766180337905e+04  1.1574446187281927e+04  1.1545837085860483e+04  1.1518468713548447e+04  1.1493538813330497e+04  1.1462709395309628e+04  8.3246925912681654e+03  1.1396201791575049e+04  8.2793682140478431e+03  1.1335196408474032e+04  8.2353107844634578e+03  1.1274957904535648e+04  8.1914654200881014e+03  1.1214715365584170e+04  8.1474699648850519e+03  1.1154103230930739e+04  8.1031122224146329e+03  1.1092903058302561e+04  8.0583160830056968e+03  1.1031105926800581e+04  8.0123189784591150e+03  1.0964485430474017e+04  7.9612216858841184e+03  1.0892831115921625e+04  7.9101833276190300e+03  7.8824694980483591e+03  7.8560367508117524e+03  7.8289381503373697e+03  7.8009279022189730e+03  7.7718168773027874e+03  7.7411867860098700e+03  7.7089890911232269e+03  7.6752798884874837e+03  7.6384423717279924e+03  7.5994083231010045e+03  7.5583476115707617e+03  7.5156168007091528e+03  7.4730501595201322e+03  7.4270902054146027e+03  1.0134299308198790e+04  1.0080430034629291e+04  1.0023850447108080e+04  9.9691779865163426e+03  9.9177307878696520e+03  9.8669576179183605e+03  9.8176896407081695e+03  9.7683492258358892e+03  9.7204034733568096e+03  9.6725883509145187e+03  9.6264111720581277e+03  9.5805996411261331e+03  9.5365116576621167e+03  9.4928267351576051e+03  9.4507387979151408e+03  9.4089404215184204e+03  9.3684692346268348e+03  9.3273372222665694e+03  9.2860475207344643e+03  9.2453300528925211e+03  9.2050442686494916e+03  9.1652053362500556e+03  9.1256341293894111e+03  9.0863790580391997e+03  9.0472799318420930e+03  9.0084091977110329e+03  8.9696204341402354e+03  8.9310021514238670e+03  8.8924171085461912e+03  8.8539644410058136e+03  8.8155129686362015e+03  8.7771688100785996e+03  8.7388047381729557e+03  8.7005313922407531e+03  8.6622240032015816e+03  8.6239959334280284e+03  8.5857235053112745e+03  8.5475208017165733e+03  8.5092623381520389e+03  8.4710569942312068e+03  8.4327613554733125e+03  8.3944119399155497e+03  8.3555842757962000e+03  8.3159748452622844e+03  8.2756855506253814e+03  8.2347396380821174e+03  8.1930757057539431e+03  8.1506227046191934e+03  8.1072741367542776e+03  8.0628870458921037e+03  8.0172897459382411e+03  7.9702806365581810e+03  7.9217213141308930e+03  7.8722703891835345e+03  7.8233009572031688e+03  7.7735861449832173e+03  7.7229077451912126e+03  7.6731221227043316e+03  5.5341799266592825e+03  5.3960925115098244e+03  5.2447591021622229e+03  5.0978537280631199e+03  4.9522486938307902e+03  4.8064810369258230e+03  4.6600356068381543e+03  4.5128086823753065e+03  4.3648593916261425e+03  4.2162985112181568e+03  4.0672416106687297e+03  3.9177913483665070e+03  3.7680326734308624e+03  3.6180333687079383e+03  3.4678464784430066e+03  3.3175131055562174e+03  3.1670649735302882e+03  3.0165265624688541e+03  2.8659168068428844e+03  2.7152504095535660e+03  2.5645388441620398e+03  2.4137911136406424e+03  2.2630143233646868e+03  2.1122141142805017e+03  1.9613949916300221e+03  1.8105605760023006e+03  1.6597137968355130e+03  1.5088570435858037e+03  1.3579922864164682e+03  1.2071211761214383e+03  1.0562451343202838e+03  9.0536543478418923e+02  7.5448338785132194e+02  6.0359992206507866e+02  4.5272068051501498e+02  3.0181768705788335e+02  1.5111415183892373e+02  -2.3166949499298589e-01  1.2602472901848072e+04  1.2574406384045875e+04  1.2547781774335821e+04  1.2515062946900705e+04  1.2486044147037959e+04  1.2453547628843306e+04  1.2421860272108685e+04  1.2390171164408224e+04  1.2357692329488336e+04  1.2327319420774105e+04  1.2301267715939421e+04  1.2274502803450752e+04  1.2247263006318290e+04  1.2219769405140696e+04  1.2192127389282663e+04  1.2164375302759930e+04  1.2136474111010764e+04  1.2108276181056228e+04  1.2079610389587107e+04  1.2050659432478655e+04  1.2021948772709617e+04  1.1993331927252519e+04  1.1964482859939500e+04  1.1935323718851019e+04  1.1905944378194597e+04  1.1876324978729517e+04  1.1846498746329540e+04  1.1816789103106314e+04  1.1786948015211421e+04  1.1756642621624293e+04  1.1725847069686477e+04  1.1694807558166704e+04  1.1663912297951480e+04  1.1633461792781824e+04  1.1603555060529032e+04  1.1574186901712757e+04  1.1545438033059881e+04  1.1517609155017597e+04  1.1490195589431260e+04  1.1460792428676457e+04  1.1427448335453373e+04  1.1396067586603436e+04  1.1365458089453727e+04  1.1335160453679724e+04  1.1305033551481565e+04  1.1274947308434765e+04  1.1244867132223293e+04  1.1214718084739185e+04  1.1184486944667644e+04  1.1154114626174756e+04  1.1123601422747564e+04  1.1092913444431317e+04  1.1062089999246253e+04  1.1031205235273639e+04  1.0999623629257969e+04  1.0964578220495014e+04  1.0928853086745730e+04  1.0892761866293524e+04  1.0856965820721400e+04  1.0820619144747307e+04  1.0784585043733052e+04  1.0747418005933250e+04  1.0708997773979578e+04  1.0669166585430950e+04  1.0627187232661197e+04  1.0582701739033113e+04  1.0537306798366371e+04  1.0486107626530620e+04  1.0432594121242255e+04  1.0376346383396689e+04  1.0316658916908233e+04  1.0259292063464853e+04  1.0198456847909363e+04  1.0137685771352235e+04  1.0080326935228308e+04  1.0023567656161045e+04  9.9682651478237240e+03  9.9178945903042386e+03  9.8663980953527371e+03  9.8179835820013068e+03  9.7678047726133755e+03  9.7206459659681259e+03  9.6719997171348568e+03  9.6265974867417935e+03  9.5800046582474824e+03  9.5366790351440395e+03  9.4922708170559745e+03  9.4509172407258138e+03  9.4084298579597598e+03  9.3687873358849356e+03  9.3273382924904163e+03  9.2859001341380008e+03  9.2452672198880027e+03  9.2049363650557880e+03  9.1651744740882132e+03  9.1255510529912062e+03  9.0863707194273684e+03  9.0472133138223089e+03  9.0084157704914851e+03  8.9695646720997993e+03  8.9310185458802771e+03  8.8923684882534490e+03  8.8539872932896578e+03  8.8154690443444724e+03  8.7771959150771763e+03  8.7387639202489863e+03  8.7005613405782078e+03  8.6621853152815420e+03  8.6240279415682344e+03  8.5856865740069115e+03  8.5475550159331306e+03  8.5092283276923536e+03  8.4710969978913108e+03  8.4327411491358198e+03  8.3945169844817592e+03  8.3557497586219761e+03  8.3161026513656998e+03  8.2758115868280111e+03  8.2348805008925719e+03  8.1932286408656710e+03  8.1507967671989645e+03  8.1074763989435532e+03  8.0631223522754808e+03  8.0175652092557139e+03  7.9706034318477105e+03  7.9219616038961167e+03  7.8720166035971579e+03  7.8235313276812985e+03  7.7737914338897745e+03  7.7230202985243486e+03  7.6719997520479756e+03  7.6065240217769360e+03  5.3955016682461664e+03  5.2430244948269064e+03  5.0974599408845270e+03  4.9523503523826948e+03  4.8067547178544874e+03  4.6603373851018150e+03  4.5130833404505529e+03  4.3650902269478984e+03  4.2164849906555773e+03  4.0673891670527528e+03  3.9179068939522190e+03  3.7681227643246239e+03  3.6181035790995934e+03  3.4679013011011461e+03  3.3175560587889036e+03  3.1670987695852300e+03  3.0165532757726887e+03  2.8659380194465725e+03  2.7152673285712876e+03  2.5645523931191101e+03  2.4138020020049839e+03  2.2630230988100175e+03  2.1122212016933931e+03  1.9614007221084044e+03  1.8105652083424588e+03  1.6597175333467026e+03  1.5088600415097362e+03  1.3579946656686511e+03  1.2071230237190557e+03  1.0562465028402619e+03  9.0536634673279241e+02  7.5448372263912063e+02  6.0360008649878239e+02  4.5271598929140691e+02  3.0184013855008294e+02  1.5098795976283608e+02  3.0506180181500076e-02  1.2601352601366416e+04  1.2573289515743509e+04  1.2544999122161493e+04  1.2514644536985053e+04  1.2484488306699370e+04  1.2453203707784967e+04  1.2421861030428850e+04  1.2390546220768740e+04  1.2359259666475706e+04  1.2329531102116447e+04  1.2302047991911248e+04  1.2274850565383122e+04  1.2247440604535879e+04  1.2219871148498238e+04  1.2192203135644511e+04  1.2164474341394516e+04  1.2136660587646242e+04  1.2108568281427570e+04  1.2079807944028456e+04  1.2050493620405889e+04  1.2021902745451420e+04  1.1993480600356475e+04  1.1964680506684337e+04  1.1935461479999507e+04  1.1906091769275732e+04  1.1876477606893486e+04  1.1846411578079234e+04  1.1816884657880666e+04  1.1787242199009903e+04  1.1756948355203393e+04  1.1726000387164770e+04  1.1694715272230749e+04  1.1663629195149013e+04  1.1633112626332717e+04  1.1603202816596653e+04  1.1573770340390565e+04  1.1544801927221673e+04  1.1516374756278516e+04  1.1487950096506882e+04  1.1458305975926312e+04  1.1426857425476514e+04  1.1395827015905181e+04  1.1365340999207676e+04  1.1335111478769579e+04  1.1305012719936258e+04  1.1274954694367789e+04  1.1244885802880914e+04  1.1214756657151167e+04  1.1184532099116939e+04  1.1154174661735558e+04  1.1123659588975665e+04  1.1092970779473893e+04  1.1062129642809372e+04  1.1031203773295632e+04  1.1001443894237338e+04  1.0964548967648205e+04  1.0928975088734433e+04  1.0892986558443696e+04  1.0854410977273137e+04  1.0820900549753398e+04  1.0784907478714671e+04  1.0747807970894448e+04  1.0709410481762550e+04  1.0669770995921712e+04  1.0628244172654171e+04  1.0582331518397097e+04  1.0539969647214577e+04  1.0486380939547069e+04  1.0433334752141698e+04  1.0377957436820145e+04  1.0314817513114689e+04  1.0260704171274770e+04  1.0201491885785746e+04  1.0143256907457717e+04  1.0079361327608020e+04  1.0023551962037736e+04  9.9647607648264911e+03  9.9198033967670799e+03  9.8636415848719371e+03  9.8201725281890085e+03  9.7650809518564038e+03  9.7226746065112784e+03  9.6692053161871554e+03  9.6284438407015805e+03  9.5772519036831527e+03  9.5384165217598656e+03  9.4896788606667396e+03  9.4526158348381978e+03  9.4060307898353458e+03  9.3704472992436295e+03  9.3271140965365848e+03  9.2855000908572420e+03  9.2452252621238877e+03  9.2045926131135366e+03  9.1652151076981918e+03  9.1252583655539729e+03  9.0864663872105557e+03  9.0469546528655028e+03  9.0085478321188766e+03  8.9693284466663463e+03  8.9311745794293802e+03  8.8921470182665398e+03  8.8541590887285365e+03  8.8152572741428703e+03  8.7773780897706201e+03  8.7385585624291707e+03  8.7007504528139361e+03  8.6619843420179677e+03  8.6242220725516199e+03  8.5854891492366696e+03  8.5477544023443643e+03  8.5090366302321891e+03  8.4713101245247217e+03  8.4325737383598498e+03  8.3948325691950395e+03  8.3560998574056121e+03  8.3163891331498071e+03  8.2760882436916309e+03  8.2351990863137125e+03  8.1935692390859931e+03  8.1511862532149808e+03  8.1079304230702774e+03  8.0636487755975240e+03  8.0181865640580918e+03  7.9712994077449312e+03  7.9228076538754731e+03  7.8707223407748979e+03  7.8243948524568532e+03  7.7743820042587113e+03  7.7226573833843513e+03  7.6735183702607319e+03  5.5270597847969457e+03  5.3870146088156134e+03  5.2407785535070216e+03  5.0969538839272336e+03  4.9526163005238232e+03  4.8072610735497574e+03  4.6608690206139681e+03  4.5135582836856129e+03  4.3654858194216185e+03  4.2168030155119413e+03  4.0676401224227884e+03  3.9181031081685655e+03  3.7682756340857204e+03  3.6182226790830873e+03  3.4679942986611472e+03  3.3176289358116264e+03  3.1671561273534148e+03  3.0165986291592867e+03  2.8659740474175828e+03  2.7152960748175669e+03  2.5645754213721380e+03  2.4138205139149404e+03  2.2630380223920920e+03  2.1122332572747237e+03  1.9614104713337410e+03  1.8105730904897916e+03  1.6597238920787122e+03  1.5088651442295618e+03  1.3579987167898844e+03  1.2071261720621162e+03  1.0562488427908384e+03  9.0536790314271514e+02  7.5448445126035369e+02  6.0359957518712122e+02  4.5271454385464369e+02  3.0183345089856255e+02  1.5094711789358979e+02  -2.4351857472756371e-03  1.2600226962575967e+04  1.2572002239054980e+04  1.2543319128496281e+04  1.2513610275424466e+04  1.2483469663975246e+04  1.2452759339256541e+04  1.2421857301467146e+04  1.2390996273937106e+04  1.2360443440688976e+04  1.2330985516581364e+04  1.2302873084400804e+04  1.2275259963807432e+04  1.2247660964043003e+04  1.2219998575257659e+04  1.2192293494913180e+04  1.2164588992099874e+04  1.2136911027137125e+04  1.2109044530587231e+04  1.2080274278892373e+04  1.2049970290371801e+04  1.2021850670891197e+04  1.1993746789394052e+04  1.1965011921604913e+04  1.1935621368063345e+04  1.1906268867625175e+04  1.1876882384886669e+04  1.1846024227857532e+04  1.1817055070800867e+04  1.1787730659944820e+04  1.1757442773022722e+04  1.1726257753867176e+04  1.1694559607120811e+04  1.1663176021152347e+04  1.1632591897881772e+04  1.1602728045160447e+04  1.1573240016988060e+04  1.1543990217180546e+04  1.1515093567717648e+04  1.1486064627992617e+04  1.1456444644298628e+04  1.1425985324831621e+04  1.1395454877638827e+04  1.1365158055668846e+04  1.1335026869178862e+04  1.1304982276545912e+04  1.1274962605217515e+04  1.1244921728590791e+04  1.1214818003713697e+04  1.1184614392823154e+04  1.1154274435885654e+04  1.1123766790403317e+04  1.1093069499136207e+04  1.1062190655544913e+04  1.1031199446747798e+04  1.1001434909232610e+04  1.0964770325081523e+04  1.0929491492574210e+04  1.0893586409873049e+04  1.0854636390101579e+04  1.0821392975013960e+04  1.0785541921346079e+04  1.0748549226885127e+04  1.0710203145953483e+04  1.0670512230694510e+04  1.0631534288124187e+04  1.0580301565317142e+04  1.0540962991772312e+04  1.0488120724425207e+04  1.0436183613334315e+04  1.0384706435534526e+04  1.0317529869423477e+04  1.0263851383370347e+04  1.0201479562414223e+04  7.3909693180999147e+03  1.0075134517756356e+04  7.3023689274321232e+03  9.9614477269182917e+03  7.2225352207791375e+03  9.8628550642403843e+03  7.1506899967063528e+03  9.7643160968882876e+03  7.0792328638566532e+03  9.6681033531298453e+03  7.0103812236798503e+03  9.5759763563188408e+03  6.9449539301017830e+03  9.4885141662188671e+03  6.8827767074771891e+03  9.4050688470578007e+03  6.8232128859724289e+03  9.3274583664465626e+03  6.7610392128065587e+03  9.2459161791161259e+03  6.7024997052857652e+03  9.1661814693462129e+03  6.6449850273572438e+03  9.0876183375276596e+03  6.5881274463523159e+03  9.0098225611165290e+03  6.5317007179248776e+03  8.9325301936847845e+03  6.4755565079667977e+03  8.8555678902583149e+03  6.4195974779166627e+03  8.7788219142012895e+03  6.3637598468378092e+03  8.7022176795899231e+03  6.3080018891415875e+03  8.6257061874327792e+03  6.2522967372745261e+03  8.5492557538709189e+03  6.1966317067949885e+03  8.4728543094802626e+03  6.1410410154300425e+03  8.3966452146118263e+03  6.0869120535591846e+03  6.0600228353963794e+03  6.0301521069502051e+03  6.0006276366400925e+03  5.9704301728906157e+03  5.9397963168417091e+03  5.9086187187109945e+03  5.8767133648328800e+03  5.8440849144258946e+03  5.8104468217198782e+03  5.7756458212815051e+03  5.7362163776114467e+03  5.7022864913972317e+03  5.6652036635627601e+03  5.6259045621854393e+03  5.5834992408283324e+03  5.4994741089563413e+03  5.3763228687663468e+03  5.2381863961058307e+03  5.0966602979891031e+03  4.9531684008205884e+03  4.8080527396137422e+03  4.6616497794858733e+03  4.5142384055119837e+03  4.3660451718367049e+03  4.2172495655635230e+03  4.0679911100714912e+03  3.9183769385058113e+03  3.7684887453786564e+03  3.6183886519151824e+03  3.4681239077799282e+03  3.3177305418549336e+03  3.1672361408001902e+03  3.0166619381257619e+03  2.8660243743039268e+03  2.7153362586516228e+03  2.5646076348712922e+03  2.4138464275255401e+03  2.2630589