<?xml version="1.0"?>
<VTKFile type="UnstructuredGrid"  version="0.1"  >
<UnstructuredGrid>
<Piece  NumberOfPoints="21400" NumberOfCells="42336">
<Points>
<DataArray  type="Float64"  NumberOfComponents="3"  format="ascii">0 0 0  0.004583333333333333 0 0  0.009166666666666667 0 0  0.01375 0 0  0.01833333333333333 0 0  0.02291666666666667 0 0  0.0275 0 0  0.03208333333333334 0 0  0.03666666666666667 0 0  0.04125 0 0  0.04583333333333334 0 0  0.05041666666666667 0 0  0.055 0 0  0.05958333333333334 0 0  0.06416666666666668 0 0  0.06875000000000001 0 0  0.07333333333333333 0 0  0.07791666666666666 0 0  0.08249999999999999 0 0  0.08708333333333333 0 0  0.09166666666666667 0 0  0.09625000000000002 0 0  0.1008333333333333 0 0  0.1054166666666667 0 0  0.11 0 0  0.1145833333333333 0 0  0.1191666666666667 0 0  0.12375 0 0  0.1283333333333334 0 0  0.1329166666666667 0 0  0.1375 0 0  0.1420833333333333 0 0  0.1466666666666667 0 0  0.15125 0 0  0.1558333333333333 0 0  0.1604166666666667 0 0  0.165 0 0  0.1695833333333333 0 0  0.1741666666666667 0 0  0.17875 0 0  0.1833333333333333 0 0  0.1879166666666667 0 0  0.1925 0 0  0.1970833333333333 0 0  0.2016666666666667 0 0  0.20625 0 0  0.2108333333333333 0 0  0.2154166666666666 0 0  0.22 0 0  0.2245833333333334 0 0  0.2291666666666667 0 0  0.23375 0 0  0.2383333333333333 0 0  0.2429166666666667 0 0  0.2475 0 0  0.2520833333333333 0 0  0.2566666666666667 0 0  0.26125 0 0  0.2658333333333334 0 0  0.2704166666666666 0 0  0.275 0 0  0.2795833333333334 0 0  0.2841666666666667 0 0  0.28875 0 0  0.2933333333333333 0 0  0.2979166666666667 0 0  0.3025 0 0  0.3070833333333334 0 0  0.3116666666666666 0 0  0.31625 0 0  0.3208333333333333 0 0  0.3254166666666667 0 0  0.33 0 0  0.3345833333333333 0 0  0.3391666666666667 0 0  0.34375 0 0  0.3483333333333333 0 0  0.3529166666666667 0 0  0.3575 0 0  0.3620833333333333 0 0  0.3666666666666667 0 0  0.37125 0 0  0.3758333333333334 0 0  0.3804166666666667 0 0  0.3850000000000001 0 0  0.3895833333333333 0 0  0.3941666666666667 0 0  0.39875 0 0  0.4033333333333334 0 0  0.4079166666666666 0 0  0.4125 0 0  0.4170833333333334 0 0  0.4216666666666667 0 0  0.42625 0 0  0.4308333333333333 0 0  0.4354166666666667 0 0  0.44 0 0  0.4445833333333333 0 0  0.4491666666666667 0 0  0.45375 0 0  0.4583333333333333 0 0  0.4629166666666666 0 0  0.4675 0 0  0.4720833333333334 0 0  0.4766666666666667 0 0  0.4812500000000001 0 0  0.4858333333333333 0 0  0.4904166666666667 0 0  0.495 0 0  0.4995833333333334 0 0  0.5041666666666667 0 0  0.50875 0 0  0.5133333333333334 0 0  0.5179166666666667 0 0  0.5225 0 0  0.5270833333333333 0 0  0.5316666666666667 0 0  0.53625 0 0  0.5408333333333333 0 0  0.5454166666666667 0 0  0.55 0 0  0.5545833333333333 0 0  0.5591666666666667 0 0  0.5637500000000001 0 0  0.5683333333333334 0 0  0.5729166666666666 0 0  0.5775 0 0  0.5820833333333334 0 0  0.5866666666666667 0 0  0.5912499999999999 0 0  0.5958333333333334 0 0  0.6004166666666667 0 0  0.605 0 0  0.6095833333333334 0 0  0.6141666666666667 0 0  0.61875 0 0  0.6233333333333333 0 0  0.6279166666666667 0 0  0.6325000000000001 0 0  0.6370833333333333 0 0  0.6416666666666666 0 0  0.64625 0 0  0.6508333333333334 0 0  0.6554166666666666 0 0  0.6599999999999999 0 0  0.6645833333333334 0 0  0.6691666666666667 0 0  0.67375 0 0  0.6783333333333333 0 0  0.6829166666666667 0 0  0.6875 0 0  0.6920833333333333 0 0  0.6966666666666667 0 0  0.70125 0 0  0.7058333333333333 0 0  0.7104166666666667 0 0  0.7150000000000001 0 0  0.7195833333333334 0 0  0.7241666666666666 0 0  0.72875 0 0  0.7333333333333334 0 0  0.7379166666666667 0 0  0.7425 0 0  0.7470833333333333 0 0  0.7516666666666667 0 0  0.75625 0 0  0.7608333333333334 0 0  0.7654166666666666 0 0  0.7700000000000001 0 0  0 0.002380952380952381 0  0.004583333333333333 0.002380952380952381 0  0.009166666666666667 0.002380952380952381 0  0.01375 0.002380952380952381 0  0.01833333333333333 0.002380952380952381 0  0.02291666666666667 0.002380952380952381 0  0.0275 0.002380952380952381 0  0.03208333333333334 0.002380952380952381 0  0.03666666666666667 0.002380952380952381 0  0.04125 0.002380952380952381 0  0.04583333333333334 0.002380952380952381 0  0.05041666666666667 0.002380952380952381 0  0.055 0.002380952380952381 0  0.05958333333333334 0.002380952380952381 0  0.06416666666666668 0.002380952380952381 0  0.06875000000000001 0.002380952380952381 0  0.07333333333333333 0.002380952380952381 0  0.07791666666666666 0.002380952380952381 0  0.08249999999999999 0.002380952380952381 0  0.08708333333333333 0.002380952380952381 0  0.09166666666666667 0.002380952380952381 0  0.09625000000000002 0.002380952380952381 0  0.1008333333333333 0.002380952380952381 0  0.1054166666666667 0.002380952380952381 0  0.11 0.002380952380952381 0  0.1145833333333333 0.002380952380952381 0  0.1191666666666667 0.002380952380952381 0  0.12375 0.002380952380952381 0  0.1283333333333334 0.002380952380952381 0  0.1329166666666667 0.002380952380952381 0  0.1375 0.002380952380952381 0  0.1420833333333333 0.002380952380952381 0  0.1466666666666667 0.002380952380952381 0  0.15125 0.002380952380952381 0  0.1558333333333333 0.002380952380952381 0  0.1604166666666667 0.002380952380952381 0  0.165 0.002380952380952381 0  0.1695833333333333 0.002380952380952381 0  0.1741666666666667 0.002380952380952381 0  0.17875 0.002380952380952381 0  0.1833333333333333 0.002380952380952381 0  0.1879166666666667 0.002380952380952381 0  0.1925 0.002380952380952381 0  0.1970833333333333 0.002380952380952381 0  0.2016666666666667 0.002380952380952381 0  0.20625 0.002380952380952381 0  0.2108333333333333 0.002380952380952381 0  0.2154166666666666 0.002380952380952381 0  0.22 0.002380952380952381 0  0.2245833333333334 0.002380952380952381 0  0.2291666666666667 0.002380952380952381 0  0.23375 0.002380952380952381 0  0.2383333333333333 0.002380952380952381 0  0.2429166666666667 0.002380952380952381 0  0.2475 0.002380952380952381 0  0.2520833333333333 0.002380952380952381 0  0.2566666666666667 0.002380952380952381 0  0.26125 0.002380952380952381 0  0.2658333333333334 0.002380952380952381 0  0.2704166666666666 0.002380952380952381 0  0.275 0.002380952380952381 0  0.2795833333333334 0.002380952380952381 0  0.2841666666666667 0.002380952380952381 0  0.28875 0.002380952380952381 0  0.2933333333333333 0.002380952380952381 0  0.2979166666666667 0.002380952380952381 0  0.3025 0.002380952380952381 0  0.3070833333333334 0.002380952380952381 0  0.3116666666666666 0.002380952380952381 0  0.31625 0.002380952380952381 0  0.3208333333333333 0.002380952380952381 0  0.3254166666666667 0.002380952380952381 0  0.33 0.002380952380952381 0  0.3345833333333333 0.002380952380952381 0  0.3391666666666667 0.002380952380952381 0  0.34375 0.002380952380952381 0  0.3483333333333333 0.002380952380952381 0  0.3529166666666667 0.002380952380952381 0  0.3575 0.002380952380952381 0  0.3620833333333333 0.002380952380952381 0  0.3666666666666667 0.002380952380952381 0  0.37125 0.002380952380952381 0  0.3758333333333334 0.002380952380952381 0  0.3804166666666667 0.002380952380952381 0  0.3850000000000001 0.002380952380952381 0  0.3895833333333333 0.002380952380952381 0  0.3941666666666667 0.002380952380952381 0  0.39875 0.002380952380952381 0  0.4033333333333334 0.002380952380952381 0  0.4079166666666666 0.002380952380952381 0  0.4125 0.002380952380952381 0  0.4170833333333334 0.002380952380952381 0  0.4216666666666667 0.002380952380952381 0  0.42625 0.002380952380952381 0  0.4308333333333333 0.002380952380952381 0  0.4354166666666667 0.002380952380952381 0  0.44 0.002380952380952381 0  0.4445833333333333 0.002380952380952381 0  0.4491666666666667 0.002380952380952381 0  0.45375 0.002380952380952381 0  0.4583333333333333 0.002380952380952381 0  0.4629166666666666 0.002380952380952381 0  0.4675 0.002380952380952381 0  0.4720833333333334 0.002380952380952381 0  0.4766666666666667 0.002380952380952381 0  0.4812500000000001 0.002380952380952381 0  0.4858333333333333 0.002380952380952381 0  0.4904166666666667 0.002380952380952381 0  0.495 0.002380952380952381 0  0.4995833333333334 0.002380952380952381 0  0.5041666666666667 0.002380952380952381 0  0.50875 0.002380952380952381 0  0.5133333333333334 0.002380952380952381 0  0.5179166666666667 0.002380952380952381 0  0.5225 0.002380952380952381 0  0.5270833333333333 0.002380952380952381 0  0.5316666666666667 0.002380952380952381 0  0.53625 0.002380952380952381 0  0.5408333333333333 0.002380952380952381 0  0.5454166666666667 0.002380952380952381 0  0.55 0.002380952380952381 0  0.5545833333333333 0.002380952380952381 0  0.5591666666666667 0.002380952380952381 0  0.5637500000000001 0.002380952380952381 0  0.5683333333333334 0.002380952380952381 0  0.5729166666666666 0.002380952380952381 0  0.5775 0.002380952380952381 0  0.5820833333333334 0.002380952380952381 0  0.5866666666666667 0.002380952380952381 0  0.5912499999999999 0.002380952380952381 0  0.5958333333333334 0.002380952380952381 0  0.6004166666666667 0.002380952380952381 0  0.605 0.002380952380952381 0  0.6095833333333334 0.002380952380952381 0  0.6141666666666667 0.002380952380952381 0  0.61875 0.002380952380952381 0  0.6233333333333333 0.002380952380952381 0  0.6279166666666667 0.002380952380952381 0  0.6325000000000001 0.002380952380952381 0  0.6370833333333333 0.002380952380952381 0  0.6416666666666666 0.002380952380952381 0  0.64625 0.002380952380952381 0  0.6508333333333334 0.002380952380952381 0  0.6554166666666666 0.002380952380952381 0  0.6599999999999999 0.002380952380952381 0  0.6645833333333334 0.002380952380952381 0  0.6691666666666667 0.002380952380952381 0  0.67375 0.002380952380952381 0  0.6783333333333333 0.002380952380952381 0  0.6829166666666667 0.002380952380952381 0  0.6875 0.002380952380952381 0  0.6920833333333333 0.002380952380952381 0  0.6966666666666667 0.002380952380952381 0  0.70125 0.002380952380952381 0  0.7058333333333333 0.002380952380952381 0  0.7104166666666667 0.002380952380952381 0  0.7150000000000001 0.002380952380952381 
[...]
<PointData  Scalars="pressure"> 
<DataArray  type="Float64"  Name="pressure"  format="ascii">7.8815834836747808e+03  7.8518883982088082e+03  7.8246787396974851e+03  7.7960902108068067e+03  7.7662174536820385e+03  7.7308428563952675e+03  7.6981487379728278e+03  7.6654281004866252e+03  7.6298553247813279e+03  7.6006324640925095e+03  7.5768396987175483e+03  7.5505075801776711e+03  7.5234201992123926e+03  7.4959904594796080e+03  7.4683685432623106e+03  7.4405976840646608e+03  7.4126381988537360e+03  7.3843909482619183e+03  7.3558057285242630e+03  7.3270286086648312e+03  7.2982834392295590e+03  7.2695519446157668e+03  7.2406636542633605e+03  7.2115283313337950e+03  7.1821543205883427e+03  7.1525657612180185e+03  7.1228347289687190e+03  7.0930460475875534e+03  7.0630877905463494e+03  7.0327755372561205e+03  7.0020883415039843e+03  6.9712149785133934e+03  6.9404512775502581e+03  6.9100484605540369e+03  6.8801342718436199e+03  6.8507655954502470e+03  6.8220630702019198e+03  6.7943304038898332e+03  6.7691423340422307e+03  4.9136026663506809e+03  4.8854150599902359e+03  4.8619628623319368e+03  4.8396924035838147e+03  4.8176622148957258e+03  4.7958746005708135e+03  4.7741544097320784e+03  4.7524919607390393e+03  4.7308369401498048e+03  4.7091612492681816e+03  4.6874597900130238e+03  4.6656970587888482e+03  4.6439011741834593e+03  4.6220677360145928e+03  4.6001847177341706e+03  4.5774076462942166e+03  4.5535678557702067e+03  4.5288657279397257e+03  4.5041684723788640e+03  4.4816427779657697e+03  4.4555351289759947e+03  4.4314998971415898e+03  4.4075511726670093e+03  4.3834311945885192e+03  4.3590718587533311e+03  4.3342877326802136e+03  4.3090787880700773e+03  4.2833429606509817e+03  4.2563069098048272e+03  4.2285219725616917e+03  4.2011814467433160e+03  4.1750330771366707e+03  4.1488674397057639e+03  4.1200519572474168e+03  4.0941586261296839e+03  4.0713783092731533e+03  4.0461274755437184e+03  4.0214922484145231e+03  3.9980981786110347e+03  3.9753210251671553e+03  3.9521126135081827e+03  3.9273946293693616e+03  3.9010782554265588e+03  3.8732801297487781e+03  3.8451799528686711e+03  3.8166141149852756e+03  3.7881664604115394e+03  3.7592003917347897e+03  3.7296694233623703e+03  3.6988652273832431e+03  3.6671161125838066e+03  3.6342263449424286e+03  3.6011120717653030e+03  3.5676770551196423e+03  3.5347314373880436e+03  3.5019629743360642e+03  3.4699789129360970e+03  3.4383405649747970e+03  3.4075353995747778e+03  3.3770775639017475e+03  3.3472979630386594e+03  3.3172151927240748e+03  3.2870189824518602e+03  3.2571868185341523e+03  3.2277001418917898e+03  3.1985371634318590e+03  3.1696049755144090e+03  3.1408999321922129e+03  3.1123429178140073e+03  3.0839456267171395e+03  3.0556396326114855e+03  3.0274475372114889e+03  2.9993084090368347e+03  2.9712523731287633e+03  2.9432236438430646e+03  2.9152574580961850e+03  2.8873015161844073e+03  2.8593944917667113e+03  2.8314864237784454e+03  2.8036182786062318e+03  2.7757416532387342e+03  2.7478990351160182e+03  2.7200430542955323e+03  2.6922172033675788e+03  2.6643747952229160e+03  2.6365599846081350e+03  2.6087265344367556e+03  2.5809190335189714e+03  2.5530915387895452e+03  2.5252889186792040e+03  2.4974654142721502e+03  2.4696660600344908e+03  2.4418451873765680e+03  2.4140478851422777e+03  2.3862284422519124e+03  2.3584317969208360e+03  2.3306118205181033e+03  2.3028125139830236e+03  2.2749855863256612e+03  2.2471700463017955e+03  2.2193017980786803e+03  2.1913546095919874e+03  2.1630661688568143e+03  2.1342347718061696e+03  2.1048999235320225e+03  2.0750806789380349e+03  2.0447381803420337e+03  2.0138189225145318e+03  1.9822459189598912e+03  1.9499160408768782e+03  1.9167036729463091e+03  1.8824656589334863e+03  1.8471547924660806e+03  1.8112594334308135e+03  1.7755124913418163e+03  1.7393437359844124e+03  1.7025471049140021e+03  1.6665411579940148e+03  1.6030849614210192e+03  1.4718889802086326e+03  1.3224831752266507e+03  1.1753527894984445e+03  1.0298722935484195e+03  8.8437648158850038e+02  7.3831570727003032e+02  5.9158070833496743e+02  4.4423910585794596e+02  2.9648664502177797e+02  1.4793889330913217e+02  4.1957530998670221e+00  7.8799309782313048e+03  7.8515717603788571e+03  7.8255488443583481e+03  7.7943212010032048e+03  5.6562497495337993e+03  5.6314052851532097e+03  5.6078313764911281e+03  5.5842414723497550e+03  5.5593481355282311e+03  7.6013159593081273e+03  7.5770326798534079e+03  7.5505748580417767e+03  7.5234542821833129e+03  7.4960095531224824e+03  7.4683832745826021e+03  7.4406168212886860e+03  7.4126699792585541e+03  7.3844320504794678e+03  7.3558291149394418e+03  7.3270186578451585e+03  7.2982790271197555e+03  7.2695713723103072e+03  7.2406925896445355e+03  7.2115538514756690e+03  7.1821785776104134e+03  7.1525826928343331e+03  7.1228356498177936e+03  7.0930630364014114e+03  7.0631299461814870e+03  7.0328203219448906e+03  7.0021105559322141e+03  6.9712019665279440e+03  6.9404094338043878e+03  6.9099939754802308e+03  6.8800761302475730e+03  6.8506975236965145e+03  6.8219595716800404e+03  6.7941797282029829e+03  6.7682658558842113e+03  6.7432125049557708e+03  4.8849719846951903e+03  6.6742546455786633e+03  4.8396374796296359e+03  6.6134492711231260e+03  4.7958592886075730e+03  6.5537324539557794e+03  4.7524885881729342e+03  6.4942727193090113e+03  4.7091644502554554e+03  6.4347292307035295e+03  4.6657019988989168e+03  6.3749315967596276e+03  4.6220704516566739e+03  6.3149600521255161e+03  4.5776425726043826e+03  6.2509649912029718e+03  4.5288629969218900e+03  6.1830557624949706e+03  4.4809251407563070e+03  4.4553927884163131e+03  4.4315124011215994e+03  4.4075712460788709e+03  4.3834542047255954e+03  4.3591233796905726e+03  4.3343405971391558e+03  4.3091069960610821e+03  4.2835307733813961e+03  4.2563936406428065e+03  4.2284762250030735e+03  4.2009967839875526e+03  4.1750373114416343e+03  4.1490640734668477e+03  4.1209273477678335e+03  5.6207229869625189e+03  5.5892931569037819e+03  5.5542017380477964e+03  5.5203531395695218e+03  5.4883220415759879e+03  5.4571750599308261e+03  5.4254781434251718e+03  5.3915139013545795e+03  5.3554308107860115e+03  5.3170363557444516e+03  5.2785786918798649e+03  5.2392032261244503e+03  5.2003111997518054e+03  5.1604814284525246e+03  5.1201050889379376e+03  5.0777022443380256e+03  5.0342250201764355e+03  4.9888722820166122e+03  4.9435206788434116e+03  4.8974304237399183e+03  4.8523387000329103e+03  4.8071885649361211e+03  4.7634288032284994e+03  4.7198473220435153e+03  4.6777071816801827e+03  4.6357597933450534e+03  4.5950888400087761e+03  4.5537289032849785e+03  4.5122088214310588e+03  4.4712751429698965e+03  4.4307922056582229e+03  4.3907774458884642e+03  4.3510529646754694e+03  4.3116655648707019e+03  4.2724540301539873e+03  4.2334880860372541e+03  4.1946196853797010e+03  4.1559347102192778e+03  4.1172943748163680e+03  4.0787956837975339e+03  4.0403062202917959e+03  4.0019305372753629e+03  3.9635405373298995e+03  3.9252458436600873e+03  3.8869212592318290e+03  3.8486797873305254e+03  3.8103981646622119e+03  3.7721916355907865e+03  3.7339382199656475e+03  3.6957546422095270e+03  3.6575197711229148e+03  3.6193513054330456e+03  3.5811286742155376e+03  3.5429702143785366e+03  3.5047557216316864e+03  3.4666039440677878e+03  3.4283949068103279e+03  3.3902476040932484e+03  3.3520421707622500e+03  3.3138976908625086e+03  3.2756942336028651e+03  3.2375506999349477e+03  3.1993466011084647e+03  3.1611996587947933e+03  3.1229865080719806e+03  3.0848184321054396e+03  3.0465534544461725e+03  3.0082297127497814e+03  2.9694238569968229e+03  2.9298337915502807e+03  2.8895623566207159e+03  2.8486334950324604e+03  2.8069865042082765e+03  2.7645510014227043e+03  2.7212211383102085e+03  2.6768546038323302e+03  2.6312803783910563e+03  2.5842975489479927e+03  2.5357683055981552e+03  2.4863512381529918e+03  2.4374189980955853e+03  2.3877460250484100e+03  2.3371145351315604e+03  2.2873795986043442e+03  1.6109268228832022e+03  1.4730139728015504e+03  1.3218915288817172e+03  1.1752210249019549e+03  1.0298884213127249e+03  8.8444497292065364e+02  7.3839213462400255e+02  5.9164630497811231e+02  4.4429677983658087e+02  2.9645865220868728e+02  1.4850794945948817e+02  -2.2630029707574750e-01  7.8787754730642673e+03  7.8507089601332282e+03  7.8240843648934806e+03  7.7913655716013891e+03  7.7623468180824311e+03  7.7298503710261984e+03  7.6981631072455048e+03  7.6664741197094590e+03  7.6339954418872494e+03  7.6036227183314095e+03  7.5775712065483776e+03  7.5508065352511576e+03  7.5235670362969631e+03  7.4960738006128113e+03  7.4684322312644254e+03  7.4406806899296917e+03  7.4127801648550230e+03  7.3845830514163517e+03  7.3559182561299403e+03  7.3269684966665454e+03  7.2982592614044770e+03  7.2696441278517950e+03  7.2407971211486456e+03  7.2116404325176336e+03  7.1822639679897356e+03  7.1526479077052818e+03  7.1228254821222999e+03  7.0931200462153483e+03  7.0632834965132961e+03  7.0329827538109193e+03  7.0021914496275031e+03  6.9711547848051496e+03  6.9402591782656609e+03  6.9098019663895193e+03  6.8798761937791569e+03  6.8504647694240120e+03  6.8216222905019649e+03  6.7935774428431387e+03  6.7665047839895860e+03  6.7392359297934045e+03  6.7056334100667182e+03  6.6740814647190027e+03  6.6435425989754876e+03  6.6134023935700361e+03  6.5835052710771206e+03  6.5537123072517497e+03  6.5239898934340490e+03  6.4942649341170281e+03  6.4645293162664630e+03  6.4347284506871556e+03  6.4048698497268942e+03  6.3749269450892352e+03  6.3449512672260416e+03  6.3150323269877572e+03  6.2845988643058045e+03  6.2510209282438309e+03  6.2170140379704735e+03  6.1829417766228808e+03  6.1494764777704913e+03  6.1159774686368064e+03  6.0834072186284966e+03  6.0505431798575037e+03  6.0174318300453306e+03  5.9841086695006497e+03  5.9501379573106051e+03  5.9152585673944459e+03  5.8808105279937636e+03  5.8431123844727235e+03  5.8045990078451641e+03  5.7663236755236321e+03  5.7313521144590586e+03  5.6960400300146948e+03  5.6585224707988400e+03  5.6224428087183051e+03  5.5899581353504418e+03  5.5537778009971671e+03  5.5199810773175668e+03  5.4881437912627416e+03  5.4572386431480627e+03  5.4260514494334475e+03  5.3918152447958819e+03  5.3560901412041194e+03  5.3167908923529903e+03  5.2789931264806883e+03  5.2388638066041331e+03  5.2006956275118082e+03  5.1603899933608591e+03  5.1207183939580691e+03  5.0777095612247349e+03  5.0348332702812122e+03  4.9886227461191729e+03  4.9439125442479444e+03  4.8969750218616027e+03  4.8525995622000273e+03  4.8066630534340156e+03  4.7636373297708624e+03  4.7193220853089470e+03  4.6779050811909938e+03  4.6352602226966355e+03  4.5954108260443063e+03  4.5537289226568846e+03  4.5120587854158957e+03  4.4712085717677865e+03  4.4306801953613112e+03  4.3907420626618486e+03  4.3509659169259312e+03  4.3116532269744166e+03  4.2723841704797824e+03  4.2334915316507386e+03  4.1945614912481578e+03  4.1559488158679942e+03  4.1172440164006321e+03  4.0788169243642806e+03  4.0402610852419293e+03  4.0019565212767334e+03  3.9634988643404304e+03  3.9252749650846604e+03  3.8868818708185781e+03  3.8487109755605152e+03  3.8103602784142222e+03  3.7722241805963458e+03  3.7339013181767205e+03  3.6957880747493596e+03  3.6574835122665477e+03  3.6193853162771215e+03  3.5810928338189797e+03  3.5430046009462981e+03  3.5047201539425773e+03  3.4666385769817757e+03  3.4283595224247138e+03  3.3902824108395334e+03  3.3520069309907249e+03  3.3139326637474546e+03  3.2756591797467959e+03  3.2375859734979394e+03  3.1993120249404155e+03  3.1612359775562013e+03  3.1229540056723440e+03  3.0848597654033551e+03  3.0465341858243023e+03  3.0083355442518382e+03  2.9695897910966278e+03  2.9299618876418667e+03  2.8896885522079833e+03  2.8487743767603506e+03  2.8071393293360347e+03  2.7647248265267708e+03  2.7214230377266231e+03  2.6770894169773815e+03  2.6315552119197960e+03  2.5846195828365858e+03  2.5360078134071555e+03  2.4860969065421682e+03  2.4376483852057991e+03  2.3879503220530478e+03  2.3372260414539469e+03  2.2862572851902974e+03  2.2208549825924747e+03  1.4724160369731042e+03  1.3201480487441290e+03  1.1748130761651166e+03  1.0299706570685578e+03  8.8469307009357578e+02  7.3866058471635699e+02  5.9187825976977035e+02  4.4446823609376167e+02  2.9659701143052837e+02  1.4844142129022663e+02  3.1351528831681776e-02  7.8776551653612623e+03  7.8495920845285409e+03  7.8213017076501292e+03  7.7909471546424184e+03  7.7607909722599961e+03  7.7295064417687590e+03  7.6981638549033769e+03  7.6668491616802521e+03  7.6355627543448363e+03  7.6058343630983873e+03  7.5783514489522331e+03  7.5511542599579352e+03  7.5237445907100282e+03  7.4961754912973383e+03  7.4685079134971411e+03  7.4407796497287864e+03  7.4129665445178707e+03  7.3848750354034000e+03  7.3561156792704423e+03  7.3268025377864333e+03  7.2982130473811167e+03  7.2697925755128217e+03  7.2409945143012519e+03  7.2117779203505224e+03  7.1824110610726275e+03  7.1528002331017087e+03  7.1227380606568386e+03  7.0932153931852954e+03  7.0635776227634033e+03  7.0332887750424670e+03  7.0023457212203693e+03  6.9710646602969609e+03  6.9399804110712739e+03  6.9094613061287628e+03  6.8795413102233370e+03  6.8500863770845290e+03  6.8210780470362261e+03  6.7926554233522020e+03  6.7646958718933402e+03  6.7360707788299378e+03  6.7048368638011543e+03  6.6737903172745919e+03  6.6433919646927261e+03  6.6133284190121603e+03  6.5834613803559114e+03  6.5536965873075505e+03  6.5239844431897582e+03  6.4942777644175831e+03  6.4645468824419249e+03  6.4347584918451039e+03  6.4048952282726787e+03  6.3749473552491909e+03  6.3449479437791524e+03  6.3149748751146162e+03  6.2862819542441048e+03  6.2509169564410795e+03  6.2170304823438428e+03  6.1830382202082892e+03  6.1469457639602570e+03  6.1160438630128820e+03  6.0834770788431970e+03  6.0506253893183657e+03  6.0174830568804882e+03  5.9842585163123631e+03  5.9506474126969742e+03  5.9146303687583086e+03  5.8824684419134219e+03  5.8430397869034696e+03  5.8048570325861920e+03  5.7646623817233331e+03  5.7317404522224433e+03  5.6965987135312780e+03  5.6601953292859644e+03  5.6241972753414993e+03  5.5924817355558007e+03  5.5519415415908898e+03  5.5192034657697322e+03  5.4877356216276512e+03  5.4571279374649366e+03  5.4280742032987901e+03  5.3917344105443453e+03  5.3587386829878169e+03  5.3149401891804737e+03  5.2812294179416622e+03  5.2368131716822463e+03  5.2027348915849698e+03  5.1590814184208793e+03  5.1233209362088091e+03  5.0765805667226341e+03  5.0375487368012882e+03  4.9867206072493209e+03  4.9461893808049508e+03  4.8945467599034700e+03  4.8545776449078903e+03  4.8040967511960334e+03  4.7654568089771474e+03  4.7168063671968148e+03  4.6796471107026782e+03  4.6328748546261504e+03  4.5970886658283343e+03  4.5535015001194188e+03  4.5116529111157870e+03  4.4711574612744371e+03  4.4303273713274184e+03  4.3907717099838983e+03  4.3506647116250397e+03  4.3117391471360306e+03  4.2721186543139365e+03  4.2336159607204872e+03  4.1943201614725658e+03  4.1560992601271728e+03  4.1170189144363339e+03  4.0789847845377094e+03  4.0400467920104311e+03  4.0021359615598476e+03  3.9632917308719284e+03  3.9254620654510950e+03  3.8866794600054359e+03  3.8489031222980084e+03  3.8101609720304591e+03  3.7724196400054270e+03  3.7337040460904705e+03  3.6959857008510553e+03  3.6572875688674681e+03  3.6195843536630136e+03  3.5808977555223159e+03  3.5432045545126980e+03  3.5045256397253456e+03  3.4668391302733194e+03  3.4281653871178255e+03  3.3904833861116131e+03  3.3518130920486137e+03  3.3141340403929034e+03  3.2754657119112608e+03  3.2377880733909196e+03  3.1991194664627324e+03  3.1614404972193361e+03  3.1227654280404531e+03  3.0850761309791028e+03  3.0463687210563426e+03  3.0086530603821129e+03  2.9699408293956649e+03  2.9302490227315438e+03  2.8899655739601053e+03  2.8490929995988026e+03  2.8074796825667850e+03  2.7651137782871560e+03  2.7218762497104453e+03  2.6776147360426917e+03  2.6321751501608119e+03  2.5853138559432232e+03  2.5368519072981744e+03  2.4848018835943176e+03  2.4385093609275464e+03  2.3885384935034863e+03  2.3368613527945804e+03  2.2877717072210153e+03  1.6038068746261531e+03  1.4639256386166523e+03  1.3178861863010143e+03  1.1742828222049322e+03  1.0302035586285667e+03  8.8515597254700356e+02  7.3913580554107136e+02  5.9227997108326099e+02  4.4476950282009039e+02  2.9678941325785536e+02  1.4849939430630408e+02  -1.0551399307676152e-03  7.8765295162196289e+03  7.8483047976177158e+03  7.8196217042124608e+03  7.7899128824872632e+03  7.7597723181764895e+03  7.7290620592670575e+03  7.6981601083334181e+03  7.6672991917854824e+03  7.6367464963272196e+03  7.6072887361751282e+03  7.5791764959803240e+03  7.5515636066138613e+03  7.5239648889714717e+03  7.4963028443622734e+03  7.4685981831139443e+03  7.4408941900954433e+03  7.4132168472955400e+03  7.3853511179901134e+03  7.3565818258285462e+03  7.3262790132777318e+03  7.2981607055170462e+03  7.2700584415545036e+03  7.2413255656302717e+03  7.2119374249398834e+03  7.1825877331396778e+03  7.1532045511179049e+03  7.1223503691284286e+03  7.0933854674834729e+03  7.0640659341771843e+03  7.0337834869505687e+03  7.0026042492842626e+03  6.9709117279702596e+03  6.9395327049989983e+03  6.9089510795837559e+03  6.8790872038866855e+03  6.8495988733080067e+03  6.8203636349300659e+03  6.7915782702655952e+03  6.7629478466441260e+03  6.7339289371192281e+03  6.7037618839022225e+03  6.6733331755336167e+03  6.6431560836728004e+03  6.6132014500196510e+03  6.5833912404935836e+03  6.5536645795047061e+03  6.5239783151141264e+03  6.4942944775181040e+03  6.4645810012023931e+03  6.4348063544565530e+03  6.4049453436437043e+03  6.3749826171960749e+03  6.3449349954699146e+03  6.3148835484250285e+03  6.2861075273584011e+03  6.2508221068315388e+03  6.2171284934646765e+03  6.1831265495326625e+03  6.1467643646307934e+03  6.1161571281288252e+03  6.0836347360078653e+03  6.0507863194098018e+03  6.0175975717932952e+03  5.9842044228925988e+03  5.9526347358356679e+03  5.9124610517783212e+03  5.8823523166935784e+03  5.8432146764373938e+03  5.8054986016699377e+03  5.7653443675407070e+03  5.7323009933426019e+03  5.6975771329025720e+03  5.6619970045170867e+03  5.6246924034698422e+03  5.5933795968017566e+03  5.5536642821953064e+03  5.5168936747076477e+03  5.4873863152817075e+03  5.4568488966432797e+03  5.4282610331042069e+03  5.3950444000460539e+03  3.9047936236151049e+03  5.3140052981499193e+03  3.8478302188969410e+03  5.2357268808451145e+03  3.7892952239397177e+03  5.1602017111501618e+03  3.7327032877137726e+03  5.0787906138185317e+03  3.6693548722525138e+03  4.9875492032241873e+03  3.6008266272305791e+03  4.8941459136741369e+03  3.5333650566759766e+03  4.8032066020491902e+03  3.4683126257765116e+03  4.7158268280458724e+03  3.4059384575983668e+03  4.6319790645217754e+03  3.3459952095908261e+03  4.5538531038212104e+03  3.2834244408533718e+03  4.4718199887881055e+03  3.2245688705613638e+03  4.3917021106585435e+03  3.1668198967732433e+03  4.3128587255557886e+03  3.1097957535037685e+03  4.2348651785280117e+03  3.0532534813154875e+03  4.1574361348541943e+03  2.9970301911778438e+03  4.0803803788515497e+03  2.9410172685132297e+03  4.0035706172371324e+03  2.8851427066698225e+03  3.9269225677145414e+03  2.8293589785680647e+03  3.8503806550216987e+03  2.7736348210463207e+03  3.7739083525612318e+03  2.7179497287497361e+03  3.6974817240889101e+03  2.6622902926340048e+03  3.6210851355394648e+03  2.6066477788045840e+03  3.5447084208588608e+03  2.5510165328245780e+03  3.4683450094984582e+03  2.4953929265289198e+03  3.3919906746244778e+03  2.4397746564428749e+03  3.3156426613842964e+03  2.3841603014265761e+03  3.2392990728248010e+03  2.3285494288177842e+03  3.1629591474193958e+03  2.2729467367536608e+03  3.0866312010277002e+03  2.2173979555740075e+03  3.0104721726981752e+03  2.1632977799774903e+03  2.1364195545926914e+03  2.1065604293907422e+03  2.0770462362326039e+03  2.0468594417243426e+03  2.0162365411632695e+03  1.9850709001996786e+03  1.9531787465750995e+03  1.9205651603887513e+03  1.8869444330965605e+03  1.8521636076587583e+03  1.8127619693252266e+03  1.7788585