<?xml version="1.0"?>
<VTKFile type="UnstructuredGrid"  version="0.1"  >
<UnstructuredGrid>
<Piece  NumberOfPoints="21400" NumberOfCells="42336">
<Points>
<DataArray  type="Float64"  NumberOfComponents="3"  format="ascii">0 0 0  0.004583333333333333 0 0  0.009166666666666667 0 0  0.01375 0 0  0.01833333333333333 0 0  0.02291666666666667 0 0  0.0275 0 0  0.03208333333333334 0 0  0.03666666666666667 0 0  0.04125 0 0  0.04583333333333334 0 0  0.05041666666666667 0 0  0.055 0 0  0.05958333333333334 0 0  0.06416666666666668 0 0  0.06875000000000001 0 0  0.07333333333333333 0 0  0.07791666666666666 0 0  0.08249999999999999 0 0  0.08708333333333333 0 0  0.09166666666666667 0 0  0.09625000000000002 0 0  0.1008333333333333 0 0  0.1054166666666667 0 0  0.11 0 0  0.1145833333333333 0 0  0.1191666666666667 0 0  0.12375 0 0  0.1283333333333334 0 0  0.1329166666666667 0 0  0.1375 0 0  0.1420833333333333 0 0  0.1466666666666667 0 0  0.15125 0 0  0.1558333333333333 0 0  0.1604166666666667 0 0  0.165 0 0  0.1695833333333333 0 0  0.1741666666666667 0 0  0.17875 0 0  0.1833333333333333 0 0  0.1879166666666667 0 0  0.1925 0 0  0.1970833333333333 0 0  0.2016666666666667 0 0  0.20625 0 0  0.2108333333333333 0 0  0.2154166666666666 0 0  0.22 0 0  0.2245833333333334 0 0  0.2291666666666667 0 0  0.23375 0 0  0.2383333333333333 0 0  0.2429166666666667 0 0  0.2475 0 0  0.2520833333333333 0 0  0.2566666666666667 0 0  0.26125 0 0  0.2658333333333334 0 0  0.2704166666666666 0 0  0.275 0 0  0.2795833333333334 0 0  0.2841666666666667 0 0  0.28875 0 0  0.2933333333333333 0 0  0.2979166666666667 0 0  0.3025 0 0  0.3070833333333334 0 0  0.3116666666666666 0 0  0.31625 0 0  0.3208333333333333 0 0  0.3254166666666667 0 0  0.33 0 0  0.3345833333333333 0 0  0.3391666666666667 0 0  0.34375 0 0  0.3483333333333333 0 0  0.3529166666666667 0 0  0.3575 0 0  0.3620833333333333 0 0  0.3666666666666667 0 0  0.37125 0 0  0.3758333333333334 0 0  0.3804166666666667 0 0  0.3850000000000001 0 0  0.3895833333333333 0 0  0.3941666666666667 0 0  0.39875 0 0  0.4033333333333334 0 0  0.4079166666666666 0 0  0.4125 0 0  0.4170833333333334 0 0  0.4216666666666667 0 0  0.42625 0 0  0.4308333333333333 0 0  0.4354166666666667 0 0  0.44 0 0  0.4445833333333333 0 0  0.4491666666666667 0 0  0.45375 0 0  0.4583333333333333 0 0  0.4629166666666666 0 0  0.4675 0 0  0.4720833333333334 0 0  0.4766666666666667 0 0  0.4812500000000001 0 0  0.4858333333333333 0 0  0.4904166666666667 0 0  0.495 0 0  0.4995833333333334 0 0  0.5041666666666667 0 0  0.50875 0 0  0.5133333333333334 0 0  0.5179166666666667 0 0  0.5225 0 0  0.5270833333333333 0 0  0.5316666666666667 0 0  0.53625 0 0  0.5408333333333333 0 0  0.5454166666666667 0 0  0.55 0 0  0.5545833333333333 0 0  0.5591666666666667 0 0  0.5637500000000001 0 0  0.5683333333333334 0 0  0.5729166666666666 0 0  0.5775 0 0  0.5820833333333334 0 0  0.5866666666666667 0 0  0.5912499999999999 0 0  0.5958333333333334 0 0  0.6004166666666667 0 0  0.605 0 0  0.6095833333333334 0 0  0.6141666666666667 0 0  0.61875 0 0  0.6233333333333333 0 0  0.6279166666666667 0 0  0.6325000000000001 0 0  0.6370833333333333 0 0  0.6416666666666666 0 0  0.64625 0 0  0.6508333333333334 0 0  0.6554166666666666 0 0  0.6599999999999999 0 0  0.6645833333333334 0 0  0.6691666666666667 0 0  0.67375 0 0  0.6783333333333333 0 0  0.6829166666666667 0 0  0.6875 0 0  0.6920833333333333 0 0  0.6966666666666667 0 0  0.70125 0 0  0.7058333333333333 0 0  0.7104166666666667 0 0  0.7150000000000001 0 0  0.7195833333333334 0 0  0.7241666666666666 0 0  0.72875 0 0  0.7333333333333334 0 0  0.7379166666666667 0 0  0.7425 0 0  0.7470833333333333 0 0  0.7516666666666667 0 0  0.75625 0 0  0.7608333333333334 0 0  0.7654166666666666 0 0  0.7700000000000001 0 0  0 0.002380952380952381 0  0.004583333333333333 0.002380952380952381 0  0.009166666666666667 0.002380952380952381 0  0.01375 0.002380952380952381 0  0.01833333333333333 0.002380952380952381 0  0.02291666666666667 0.002380952380952381 0  0.0275 0.002380952380952381 0  0.03208333333333334 0.002380952380952381 0  0.03666666666666667 0.002380952380952381 0  0.04125 0.002380952380952381 0  0.04583333333333334 0.002380952380952381 0  0.05041666666666667 0.002380952380952381 0  0.055 0.002380952380952381 0  0.05958333333333334 0.002380952380952381 0  0.06416666666666668 0.002380952380952381 0  0.06875000000000001 0.002380952380952381 0  0.07333333333333333 0.002380952380952381 0  0.07791666666666666 0.002380952380952381 0  0.08249999999999999 0.002380952380952381 0  0.08708333333333333 0.002380952380952381 0  0.09166666666666667 0.002380952380952381 0  0.09625000000000002 0.002380952380952381 0  0.1008333333333333 0.002380952380952381 0  0.1054166666666667 0.002380952380952381 0  0.11 0.002380952380952381 0  0.1145833333333333 0.002380952380952381 0  0.1191666666666667 0.002380952380952381 0  0.12375 0.002380952380952381 0  0.1283333333333334 0.002380952380952381 0  0.1329166666666667 0.002380952380952381 0  0.1375 0.002380952380952381 0  0.1420833333333333 0.002380952380952381 0  0.1466666666666667 0.002380952380952381 0  0.15125 0.002380952380952381 0  0.1558333333333333 0.002380952380952381 0  0.1604166666666667 0.002380952380952381 0  0.165 0.002380952380952381 0  0.1695833333333333 0.002380952380952381 0  0.1741666666666667 0.002380952380952381 0  0.17875 0.002380952380952381 0  0.1833333333333333 0.002380952380952381 0  0.1879166666666667 0.002380952380952381 0  0.1925 0.002380952380952381 0  0.1970833333333333 0.002380952380952381 0  0.2016666666666667 0.002380952380952381 0  0.20625 0.002380952380952381 0  0.2108333333333333 0.002380952380952381 0  0.2154166666666666 0.002380952380952381 0  0.22 0.002380952380952381 0  0.2245833333333334 0.002380952380952381 0  0.2291666666666667 0.002380952380952381 0  0.23375 0.002380952380952381 0  0.2383333333333333 0.002380952380952381 0  0.2429166666666667 0.002380952380952381 0  0.2475 0.002380952380952381 0  0.2520833333333333 0.002380952380952381 0  0.2566666666666667 0.002380952380952381 0  0.26125 0.002380952380952381 0  0.2658333333333334 0.002380952380952381 0  0.2704166666666666 0.002380952380952381 0  0.275 0.002380952380952381 0  0.2795833333333334 0.002380952380952381 0  0.2841666666666667 0.002380952380952381 0  0.28875 0.002380952380952381 0  0.2933333333333333 0.002380952380952381 0  0.2979166666666667 0.002380952380952381 0  0.3025 0.002380952380952381 0  0.3070833333333334 0.002380952380952381 0  0.3116666666666666 0.002380952380952381 0  0.31625 0.002380952380952381 0  0.3208333333333333 0.002380952380952381 0  0.3254166666666667 0.002380952380952381 0  0.33 0.002380952380952381 0  0.3345833333333333 0.002380952380952381 0  0.3391666666666667 0.002380952380952381 0  0.34375 0.002380952380952381 0  0.3483333333333333 0.002380952380952381 0  0.3529166666666667 0.002380952380952381 0  0.3575 0.002380952380952381 0  0.3620833333333333 0.002380952380952381 0  0.3666666666666667 0.002380952380952381 0  0.37125 0.002380952380952381 0  0.3758333333333334 0.002380952380952381 0  0.3804166666666667 0.002380952380952381 0  0.3850000000000001 0.002380952380952381 0  0.3895833333333333 0.002380952380952381 0  0.3941666666666667 0.002380952380952381 0  0.39875 0.002380952380952381 0  0.4033333333333334 0.002380952380952381 0  0.4079166666666666 0.002380952380952381 0  0.4125 0.002380952380952381 0  0.4170833333333334 0.002380952380952381 0  0.4216666666666667 0.002380952380952381 0  0.42625 0.002380952380952381 0  0.4308333333333333 0.002380952380952381 0  0.4354166666666667 0.002380952380952381 0  0.44 0.002380952380952381 0  0.4445833333333333 0.002380952380952381 0  0.4491666666666667 0.002380952380952381 0  0.45375 0.002380952380952381 0  0.4583333333333333 0.002380952380952381 0  0.4629166666666666 0.002380952380952381 0  0.4675 0.002380952380952381 0  0.4720833333333334 0.002380952380952381 0  0.4766666666666667 0.002380952380952381 0  0.4812500000000001 0.002380952380952381 0  0.4858333333333333 0.002380952380952381 0  0.4904166666666667 0.002380952380952381 0  0.495 0.002380952380952381 0  0.4995833333333334 0.002380952380952381 0  0.5041666666666667 0.002380952380952381 0  0.50875 0.002380952380952381 0  0.5133333333333334 0.002380952380952381 0  0.5179166666666667 0.002380952380952381 0  0.5225 0.002380952380952381 0  0.5270833333333333 0.002380952380952381 0  0.5316666666666667 0.002380952380952381 0  0.53625 0.002380952380952381 0  0.5408333333333333 0.002380952380952381 0  0.5454166666666667 0.002380952380952381 0  0.55 0.002380952380952381 0  0.5545833333333333 0.002380952380952381 0  0.5591666666666667 0.002380952380952381 0  0.5637500000000001 0.002380952380952381 0  0.5683333333333334 0.002380952380952381 0  0.5729166666666666 0.002380952380952381 0  0.5775 0.002380952380952381 0  0.5820833333333334 0.002380952380952381 0  0.5866666666666667 0.002380952380952381 0  0.5912499999999999 0.002380952380952381 0  0.5958333333333334 0.002380952380952381 0  0.6004166666666667 0.002380952380952381 0  0.605 0.002380952380952381 0  0.6095833333333334 0.002380952380952381 0  0.6141666666666667 0.002380952380952381 0  0.61875 0.002380952380952381 0  0.6233333333333333 0.002380952380952381 0  0.6279166666666667 0.002380952380952381 0  0.6325000000000001 0.002380952380952381 0  0.6370833333333333 0.002380952380952381 0  0.6416666666666666 0.002380952380952381 0  0.64625 0.002380952380952381 0  0.6508333333333334 0.002380952380952381 0  0.6554166666666666 0.002380952380952381 0  0.6599999999999999 0.002380952380952381 0  0.6645833333333334 0.002380952380952381 0  0.6691666666666667 0.002380952380952381 0  0.67375 0.002380952380952381 0  0.6783333333333333 0.002380952380952381 0  0.6829166666666667 0.002380952380952381 0  0.6875 0.002380952380952381 0  0.6920833333333333 0.002380952380952381 0  0.6966666666666667 0.002380952380952381 0  0.70125 0.002380952380952381 0  0.7058333333333333 0.002380952380952381 0  0.7104166666666667 0.002380952380952381 0  0.7150000000000001 0.002380952380952381 
[...]
<PointData  Scalars="pressure"> 
<DataArray  type="Float64"  Name="pressure"  format="ascii">2.9927207715192591e+04  2.9897492554233944e+04  2.9870210488007186e+04  2.9841493193935738e+04  2.9811410187830163e+04  2.9775698628750648e+04  2.9742589379116143e+04  2.9709337022623447e+04  2.9673052904616874e+04  2.9643158223612954e+04  2.9618749259066753e+04  2.9591794976188681e+04  2.9564299102263300e+04  2.9541137098803167e+04  2.1491089577604067e+04  2.1465521541945225e+04  2.1439278201457972e+04  2.1411500094957544e+04  2.1381535203093150e+04  2.1349003221851199e+04  2.1313602700728112e+04  2.1274806462699264e+04  2.1232404367199015e+04  2.1187053432906327e+04  2.1140157797325548e+04  2.1093386581149931e+04  2.1048108801464612e+04  2.1005064303784082e+04  2.0964566483048045e+04  2.0926802690951008e+04  2.0893335425154131e+04  2.0840500943307692e+04  2.0719948104693314e+04  2.0550493351276989e+04  2.0370245579553382e+04  2.0192960129633382e+04  2.0019850058112759e+04  1.9850628416233383e+04  1.9684747004193898e+04  1.9521634902547303e+04  1.9360786008700074e+04  1.9201775806118425e+04  1.9044256897767435e+04  1.8887947945400549e+04  1.8732621951773181e+04  1.8578095828442136e+04  1.8424221712579561e+04  1.8270879949586928e+04  1.8117973494064041e+04  1.7965423462431852e+04  1.7813165600874421e+04  1.7661147474366597e+04  1.7509326222493561e+04  1.7357666761364118e+04  1.7206140337741290e+04  1.7054723362407094e+04  1.6903396465876529e+04  1.6752143731938209e+04  1.6600952074001136e+04  1.6449810726557545e+04  1.6298710829754638e+04  1.6147645089499500e+04  1.5996607498997573e+04  1.5845593110368454e+04  1.5694597847159233e+04  1.5543618350312425e+04  1.5392651851536975e+04  1.5241696069151378e+04  1.5090749122372508e+04  1.4939809460757551e+04  1.4788875806102089e+04  1.4637947104583443e+04  1.4487022487334250e+04  1.4336101237955741e+04  1.4185182765745265e+04  1.4034266583630522e+04  1.3883352289981045e+04  1.3732439553614704e+04  1.3581528101436927e+04  1.3430617708249969e+04  1.3279708188350798e+04  1.3128799388603440e+04  1.2977891182726844e+04  1.2826983466584921e+04  1.2676076154302757e+04  1.2525169175064124e+04  1.2374262470470685e+04  1.2223355992364370e+04  1.2072449701031610e+04  1.1921543563722600e+04  1.1770637553430128e+04  1.1619731647882638e+04  1.1468825828713814e+04  1.1317920080777818e+04  1.1167014391584577e+04  1.1016108750834128e+04  1.0865203150032576e+04  1.0714297582175433e+04  1.0563392041486455e+04  1.0412486523202308e+04  1.0261581023394956e+04  1.0110675538825215e+04  9.9597700668220095e+03  9.8088646051827691e+03  9.6579591520913091e+03  9.5070537060501283e+03  9.3561482658245895e+03  9.2052428303968463e+03  9.0543373989279589e+03  8.9034319707265531e+03  8.7525265452230942e+03  8.6016211219486195e+03  8.4507157005172721e+03  8.2998102806119241e+03  8.1489048619723217e+03  7.9979994443854066e+03  7.8470940276773708e+03  7.6961886117071772e+03  7.5452831963612853e+03  7.3943777815494404e+03  7.2434723672012988e+03  7.0925669532638130e+03  6.9416615396992311e+03  6.7907561264837286e+03  6.6398507136065018e+03  6.4889453010693605e+03  6.3380398888868149e+03  6.1871344770866217e+03  6.0362290657108415e+03  5.8853236548173918e+03  5.7344182444822591e+03  5.5835128348023782e+03  5.4326074258992739e+03  5.2817020179236824e+03  5.1307966110613052e+03  4.9798912055399005e+03  4.8289858016380231e+03  4.6780803996958166e+03  4.5271750001282453e+03  4.3762696034414175e+03  4.2253642102526765e+03  4.0744588213154561e+03  3.9235534375500911e+03  3.7726480600821465e+03  3.6217426902903308e+03  3.4708373298667962e+03  3.3199319808934870e+03  3.1690266459395161e+03  3.0181213281866972e+03  2.8672160315929282e+03  2.7163107611075357e+03  2.5654055229590617e+03  2.4145003250459645e+03  2.2635951774764808e+03  2.1126900933295497e+03  1.9617850897514170e+03  1.8108801895760134e+03  1.6599754237866839e+03  1.5090708353810569e+03  1.3581664856239888e+03  1.2072624648956189e+03  1.0563589098545976e+03  9.0545605295253051e+02  7.5455417552087135e+02  6.0365472288311003e+02  4.5275236540314319e+02  3.0190539317257105e+02  1.5056425484288164e+02  4.2690987422109359e+00  2.9925560560839433e+04  2.9897180854776314e+04  2.9871089757789086e+04  2.9839720696121036e+04  2.1715371555900714e+04  2.1690289088039488e+04  2.1666417280988513e+04  2.1642445800101865e+04  2.1617057434118022e+04  2.9643865639674797e+04  2.9618948735464670e+04  2.9591812585221294e+04  2.9564395423736856e+04  2.9538124273492616e+04  2.9501987848449506e+04  2.9466932725938204e+04  2.9431003346198195e+04  2.9392949147820862e+04  2.9351856323260425e+04  2.9307223564622935e+04  2.9258701874799455e+04  2.9205480497199875e+04  2.9147194151624386e+04  2.9084767458745213e+04  2.9020186455437979e+04  2.8955813342380949e+04  2.8893574364924938e+04  2.8834465854592974e+04  2.8778832173568393e+04  2.8726872347912285e+04  2.8680376601158398e+04  2.0847630647214723e+04  2.0726097738744811e+04  2.0550870047744364e+04  2.0369796177567725e+04  2.0192497239168792e+04  2.0019421685638779e+04  1.9850264817172942e+04  1.9684446535849853e+04  1.9521389783295912e+04  1.9360587015892670e+04  1.9201614457387455e+04  1.9044125995638558e+04  1.8887841596060578e+04  1.8732535402915408e+04  1.8578025271154573e+04  1.8424164097774086e+04  1.8270832833459819e+04  1.8117934913276033e+04  1.7965391835156501e+04  1.7813139648935794e+04  1.7661126162064134e+04  1.7509308708455479e+04  1.7357652360525615e+04  1.7206128491192325e+04  1.7054713613374428e+04  1.6903388440508392e+04  1.6752137123867935e+04  1.6600946631900111e+04  1.6449806244064926e+04  1.6298707137305966e+04  1.6147642047679245e+04  1.5996604993119539e+04  1.5845591046048921e+04  1.5694596146695334e+04  1.5543616949715210e+04  1.5392650698098216e+04  1.5241695119446114e+04  1.5090748340618100e+04  1.4939808817464613e+04  1.4788875276964973e+04  1.4637946669567104e+04  1.4487022129922632e+04  1.4336100944532805e+04  1.4185182525085227e+04  1.4034266386477810e+04  1.3883352128704284e+04  1.3732439421921470e+04  1.3581527994138720e+04  1.3430617621068459e+04  1.3279708117758088e+04  1.3128799331690418e+04  1.2977891137094619e+04  1.2826983430255301e+04  1.2676076125644477e+04  1.2525169152731989e+04  1.2374262453355399e+04  1.2223355979551150e+04  1.2072449691766098e+04  1.1921543557382711e+04  1.1770637549502862e+04  1.1619731645944948e+04  1.1468825828416837e+04  1.1317920081833858e+04  1.1167014393756390e+04  1.1016108753926062e+04  1.0865203153883289e+04  1.0714297586651872e+04  1.0563392046478897e+04  1.0412486528620266e+04  1.0261581029163804e+04  1.0110675544883417e+04  9.9597700731188106e+03  9.8088646116763121e+03  9.6579591587470750e+03  9.5070537128396409e+03  9.3561482727243583e+03  9.2052428373875027e+03  9.0543374059935086e+03  8.9034319778537993e+03  8.7525265524011429e+03  8.6016211291684649e+03  8.4507157077714783e+03  8.2998102878943246e+03  8.1489048692778033e+03  7.9979994517097166e+03  7.8470940350169640e+03  7.6961886190590722e+03  7.5452832037229655e+03  7.3943777889187468e+03  7.2434723745763613e+03  7.0925669606429710e+03  6.9416615470809829e+03  6.7907561338666665e+03  6.6398507209892587e+03  6.4889453084505649e+03  6.3380398962650370e+03  6.1871344844603209e+03  6.0362290730782997e+03  5.8853236621766619e+03  5.7344182518310845e+03  5.5835128421381078e+03  5.4326074332187536e+03  5.2817020252231450e+03  5.1307966183362159e+03  4.9798912127847825e+03  4.8289858088462424e+03  4.6780804068593052e+03  4.5271750072371851e+03  4.3762696104838205e+03  4.2253642172138871e+03  4.0744588281774986e+03  3.9235534442908715e+03  3.7726480666744151e+03  3.6217426967003657e+03  3.4708373360526821e+03  3.3199319868028592e+03  3.1690266515065700e+03  3.0181213333281416e+03  2.8672160362024633e+03  2.7163107650481688e+03  2.5654055260522073e+03  2.4145003270556967e+03  2.2635951780862774e+03  2.1126900921071033e+03  1.9617850860940011e+03  1.8108801826230467e+03  1.6599754122760082e+03  1.5090708173970070e+03  1.3581664581937564e+03  1.2072624228537506e+03  1.0563588467316279e+03  9.0545593699090773e+02  7.5455411128869503e+02  6.0365354200257298e+02  4.5275922197302833e+02  3.0184260143749151e+02  1.5112639414271956e+02  -2.3169241591602513e-01  2.9924423523773236e+04  2.9896335737404414e+04  2.9869647815199674e+04  2.9836779699335992e+04  2.9807559153820584e+04  2.9774754893827885e+04  2.9742669646282626e+04  2.9710474461424805e+04  2.9677352265571724e+04  2.9646256789097726e+04  2.9619501125636998e+04  2.9591966688948371e+04  2.9564046083275523e+04  2.9535083766472027e+04  2.9501774429695095e+04  2.9467138282623557e+04  2.9431422719319628e+04  2.9393558441049019e+04  2.9352558874345272e+04  2.9307958918781133e+04  2.9259637223677648e+04  2.9206514762623865e+04  2.9148035529229481e+04  2.9085201015353352e+04  2.9020132420084825e+04  2.8955363680522682e+04  2.8892940427126268e+04  2.8833785831596531e+04  2.8778120825734739e+04  2.8726127979649413e+04  2.8677892675523668e+04  2.8626356392251400e+04  2.0747968915295871e+04  2.0550356190260634e+04  2.0368352719676375e+04  2.0190848983697946e+04  2.0017936240199186e+04  1.9849005762686265e+04  1.9683408229598339e+04  1.9520543385671775e+04  1.9359900148234530e+04  1.9201057602045785e+04  1.9043674228122414e+04  1.8887474549980801e+04  1.8732236673875719e+04  1.8577781717705824e+04  1.8423965202050822e+04  1.8270670165841315e+04  1.8117801701141612e+04  1.7965282621467199e+04  1.7813050023754746e+04  1.7661052551672561e+04  1.7509248209390124e+04  1.7357602608508423e+04  1.7206087557175339e+04  1.7054679920721039e+04  1.6903360698724209e+04  1.6752114275356234e+04  1.6600927809021850e+04  1.6449790734393519e+04  1.6298694355430589e+04  1.6147631512264259e+04  1.5996596308199601e+04  1.5845583885749335e+04  1.5694590242730686e+04  1.5543612081147685e+04  1.5392646682937651e+04  1.5241691807754252e+04  1.5090745608843285e+04  1.4939806563784326e+04  1.4788873417454859e+04  1.4637945135048463e+04  1.4487020863367223e+04  1.4336099898925771e+04  1.4185181661664876e+04  1.4034265673285452e+04  1.3883351539389299e+04  1.3732438934756598e+04  1.3581527591208431e+04  1.3430617287599944e+04  1.3279707841569772e+04  1.3128799102737299e+04  1.2977890947093445e+04  1.2826983272375521e+04  1.2676075994253421e+04  1.2525169043184771e+04  1.2374262361821666e+04  1.2223355902872234e+04  1.2072449627337226e+04  1.1921543503055864e+04  1.1770637503506678e+04  1.1619731606818670e+04  1.1468825794955850e+04  1.1317920053044774e+04  1.1167014368820004e+04  1.1016108732166809e+04  1.0865203134744064e+04  1.0714297569673246e+04  1.0563392031281999e+04  1.0412486514892642e+04  1.0261581016647797e+04  1.0110675533366530e+04  9.9597700624257923e+03  9.8088646016626371e+03  9.6579591492935360e+03  9.5070537038479270e+03  9.3561482641133625e+03  9.2052428290903190e+03  9.0543373979549251e+03  8.9034319700282522e+03  8.7525265447510119e+03  8.6016211216626652e+03  8.4507157003843076e+03  8.2998102806044990e+03  8.1489048620676740e+03  7.9979994445646053e+03  7.8470940279246115e+03  7.6961886120091922e+03  7.5452831967068505e+03  7.3943777819289489e+03  7.2434723676064141e+03  7.0925669536871492e+03  6.9416615401340878e+03  6.7907561269238267e+03  6.6398507140457568e+03  6.4889453015016561e+03  6.3380398893057672e+03  6.1871344774853533e+03  6.0362290660817007e+03  5.8853236551516839e+03  5.7344182447699059e+03  5.5835128350315390e+03  5.4326074260558844e+03  5.2817020179909186e+03  5.1307966110189291e+03  4.9798912053634667e+03  4.8289858012979066e+03  4.6780803991560178e+03  4.5271749993449312e+03  4.3762696023610952e+03  4.2253642088099223e+03  4.0744588194300591e+03  3.9235534351234551e+03  3.7726480569926925e+03  3.6217426863876158e+03  3.4708373249638507e+03  3.3199319747567824e+03  3.1690266382756408e+03  3.0181213186243845e+03  2.8672160196585087e+03  2.7163107461907930e+03  2.5654055042648938e+03  2.4145003015245748e+03  2.2635951477203848e+03  2.1126900554179615e+03  1.9617850410089557e+03  1.8108801261875606e+03  1.6599753401628225e+03  1.5090707230712462e+03  1.3581663313999275e+03  1.2072622470202805e+03  1.0563585920752339e+03  9.0545556079397647e+02  7.5455344173555500e+02  6.0365294634041754e+02  4.5275398475826597e+02  3.0186470237487629e+02  1.5100001893865178e+02  3.0504525927476576e-02  2.9923334818546926e+04  2.9895250764709719e+04  2.9866887092173441e+04  2.9836391604151890e+04  2.9806026258620175e+04  2.9774444637930490e+04  2.9742712455346013e+04  2.9710902904352461e+04  2.9679004198230188e+04  2.9648573092887618e+04  2.9620318180553484e+04  2.9592224044273236e+04  2.9563658201167596e+04  2.9533833975204416e+04  2.9501536593636116e+04  2.9467645599110827e+04  2.9432418634611531e+04  2.9395037088945661e+04  2.9354269392523533e+04  2.9309618464855292e+04  2.9261901326265837e+04  2.9209069692140762e+04  2.9150096133189974e+04  2.9086256465953007e+04  2.9019975872376577e+04  2.8954221727308413e+04  2.8891392563547110e+04  2.8832162394578067e+04  2.8776449460931217e+04  2.8724250096548847e+04  2.8675194428318682e+04  2.8627746653706301e+04  2.0752381235651836e+04  2.0549233960365535e+04  2.0365525315450952e+04  2.0187962054210489e+04  2.0015373351375682e+04  1.9846850392551976e+04  1.9681636635291390e+04  1.9519101506671188e+04  1.9358730842022062e+04  1.9200109861844732e+04  1.9042905363626531e+04  1.8886849823924164e+04  1.8731728162383530e+04  1.8577367071056939e+04  1.8423626538050543e+04  1.8270393152817589e+04  1.8117574822941435e+04  1.7965096596986023e+04  1.7812897350995361e+04  1.7660927149763313e+04  1.7509145136862007e+04  1.7357517840755976e+04  1.7206017809899324e+04  1.7054622509218174e+04  1.6903313425253345e+04  1.6752075338609677e+04  1.6600895731093213e+04  1.6449764301665982e+04  1.6298672570593621e+04  1.6147613555266291e+04  1.5996581504404041e+04  1.5845571679917581e+04  1.5694580177732969e+04  1.5543603780519756e+04  1.5392639836573038e+04  1.5241686160157613e+04  1.5090740949479054e+04  1.4939802719141917e+04  1.4788870244521648e+04  1.4637942515938410e+04  1.4487018700898978e+04  1.4336098112981277e+04  1.4185180186189988e+04  1.4034264453818867e+04  1.3883350531026403e+04  1.3732438100471423e+04  1.3581526900470601e+04  1.3430616715234648e+04  1.3279707366817969e+04  1.3128798708480950e+04  1.2977890619216747e+04  1.2826982999238260e+04  1.2676075766256736e+04  1.2525168852413120e+04  1.2374262201747586e+04  1.2223355768112911e+04  1.2072449513453743e+04  1.1921543406387691e+04  1.1770637421035161e+04  1.1619731536054469e+04  1.1468825733846130e+04  1.1317919999896654e+04  1.1167014322237439e+04  1.1016108690998544e+04  1.0865203098040709e+04  1.0714297536651860e+04  1.0563392001296934e+04  1.0412486487411448e+04  1.0261580991231362e+04  1.0110675509652734e+04  9.9597700401159964e+03  9.8088645805105352e+03  9.6579591290959979e+03  9.5070536844373910e+03  9.3561482453516292e+03  9.2052428108633667e+03  9.0543373801686721e+03  8.9034319526050440e+03  8.7525265276267364e+03  8.6016211047843499e+03  8.4507156837081475e+03  8.2998102640942325e+03  8.1489048456932205e+03  7.9979994283009437e+03  7.8470940117508590e+03  7.6961885959078136e+03  7.5452831806630084e+03  7.3943777659299549e+03  7.2434723516412441e+03  7.0925669377460435e+03  6.9416615242081843e+03  6.7907561110048264e+03  6.6398506981256178e+03  6.4889452855722857e+03  6.3380398733587299e+03  6.1871344615115431e+03  6.0362290500710023e+03  5.8853236390925949e+03  5.7344182286490968e+03  5.5835128188333410e+03  5.4326074097616984e+03  5.2817020015784938e+03  5.1307965944614953e+03  4.9798911886286896e+03  4.8289857843466070e+03  4.6780803819405992e+03  4.5271749818074395e+03  4.3762695844308164e+03  4.2253641904003844e+03  4.0744588004352786e+03  3.9235534154131874e+03  3.7726480364064000e+03  3.6217426647267139e+03  3.4708373019816804e+03  3.3199319501454502e+03  3.1690266116485700e+03  3.0181212894928699e+03  2.8672159873997084e+03  2.7163107100033358e+03  2.5654054631061949e+03  2.4145002540206028e+03  2.2635950920329897e+03  2.1126899890452669e+03  1.9617849604773523e+03  1.8108800265629370e+03  1.6599752142506914e+03  1.5090705600592908e+03  1.3581661144782713e+03  1.2072619488942878e+03  1.0563581670602882e+03  9.0545492278215499e+02  7.5455245932459923e+02  6.0365113996976891e+02  4.5275160959659269e+02  3.0185741378366686e+02  1.5095887923326003e+02  -2.4393847522262814e-03  2.9922254531714152e+04  2.9894008210816533e+04  2.9865249625693417e+04  2.9835403024658044e+04  2.9805055795659620e+04  2.9774058172067995e+04  2.9742779096882194e+04  2.9711440032768653e+04  2.9680299164970733e+04  2.9650146031218395e+04  2.9621216513662159e+04  2.9592585579815655e+04  2.9563543044385220e+04  2.9533423908303550e+04  2.9501652274241016e+04  2.9468470739215780e+04  2.9433977969429910e+04  2.9397439058973279e+04  2.9357180613522130e+04  2.9311849871251081e+04  2.9265646584307735e+04  2.9213386398024490e+04  2.9153503900430489e+04  2.9087999696120885e+04  2.9019659349413811e+04  2.8952192415335372e+04  2.8888846580299538e+04  2.8829602062153412e+04  2.8773824942389696e+04  2.8721427311163985e+04  2.8672321883611879e+04  2.8630230046490167e+04  2.0740344184777772e+04  2.0545903629824435e+04  2.0361055609264738e+04  2.0183745890132072e+04  2.0011718323849298e+04  1.9843807396639644e+04  1.9679147090662002e+04  1.9517079686911449e+04  1.9357092770399635e+04  1.9198782608351168e+04  1.9041828629003758e+04  1.8885974826753867e+04  1.8731015797597931e+04  1.8576786077584718e+04  1.8423151913482787e+04  1.8270004858309181e+04  1.8117256752379300e+04  1.7964835765683689e+04  1.7812683259433154e+04  1.7660751284292372e+04  1.7509000576750906e+04  1.7357398947676233e+04  1.7205919981443851e+04  1.7054541982350962e+04  1.6903247118886800e+04  1.6752020727007741e+04  1.6600850741690643e+04  1.6449727232326550e+04  1.6298642022418977e+04  1.6147588377898923e+04  1.5996560751407525e+04  1.5845554572312431e+04  1.5694566074152379e+04  1.5543592152752348e+04  1.5392630249498900e+04  1.5241678255273731e+04  1.5090734431362012e+04  1.4939797344317270e+04  1.4788865812307409e+04  1.4637938860909344e+04  1.4487015686682571e+04  1.4336095627148630e+04  1.4185178136047291e+04  1.4034262762940121e+04  1.3883349136396282e+04  1.3732436950130621e+04  1.3581525951575071e+04  1.3430615932455859e+04  1.3279706721024093e+04  1.3128798175649648e+04  1.2977890179538792e+04  1.2826982636378501e+04  1.2676075466744711e+04  1.2525168605140616e+04  1.2374261997554346e+04  1.2223355599444994e+04  1.2072449374081842e+04  1.1921543291174814e+04  1.1770637325745090e+04  1.1619731457193813e+04  1.1468825668534049e+04  1.1317919945757450e+04  1.1167014277311988e+04  1.1016108653671230e+04  1.0865203066979195e+04  1.0714297510757437e+04  1.0563391979663513e+04  1.0412486469291818e+04  1.0261580976009313e+04  1.0110675496820078e+04  9.9597700292536356e+03  9.8088645712728230e+03  9.6579591211978586e+03  9.5070536776437020e+03  9.3561482394684299e+03  9.2052428057306461e+03  9.0543373756544042e+03  8.9034319486002623e+03  8.7525265240414519e+03  8.6016211015442314e+03  8.4507156807517258e+03  8.2998102613706142e+03  8.1489048431601905e+03  7.9979994259233990e+03  7.8470940094994849e+03  7.6961885937580018e+03  7.5452831785939434e+03  7.3943777639238187e+03  7.2434723496825764e+03  7.0925669358211453e+03  6.9416615223046138e+03  6.7907561091109383e+03  6.6398506962301226e+03  6.4889452836638329e+03  6.3380398714254743e+03  6.1871344595407063e+03  6.0362290480483944e+03  5.8853236370020695e+03  5.7344182264719429e+03  5.5835128165475790e+03  5.4326074073412265e+03  5.2817019989920900e+03  5.1307965916716039e+03  4.9798911855899514e+03  4.8289857810040694e+03  4.6780803782275079e+03  4.5271749776425359e+03  4.3762695797149745e+03  4.2253641850124195e+03  4.0744587942267090e+03  3.9235534082016188e+03  3.7726480279671246e+03  3.6217426547819391e+03  3.4708372901865978e+03  3.3199319360700247e+03  3.1690265947534308e+03  3.0181212690969883e+03  2.8672159626364187e+03  2.7163106797595369e+03  2.5654054259368313e+03  2.4145002080260974e+03  2.2635950