<?xml version="1.0"?>
<VTKFile type="UnstructuredGrid"  version="0.1"  >
<UnstructuredGrid>
<Piece  NumberOfPoints="21400" NumberOfCells="42336">
<Points>
<DataArray  type="Float64"  NumberOfComponents="3"  format="ascii">0 0 0  0.004583333333333333 0 0  0.009166666666666667 0 0  0.01375 0 0  0.01833333333333333 0 0  0.02291666666666667 0 0  0.0275 0 0  0.03208333333333334 0 0  0.03666666666666667 0 0  0.04125 0 0  0.04583333333333334 0 0  0.05041666666666667 0 0  0.055 0 0  0.05958333333333334 0 0  0.06416666666666668 0 0  0.06875000000000001 0 0  0.07333333333333333 0 0  0.07791666666666666 0 0  0.08249999999999999 0 0  0.08708333333333333 0 0  0.09166666666666667 0 0  0.09625000000000002 0 0  0.1008333333333333 0 0  0.1054166666666667 0 0  0.11 0 0  0.1145833333333333 0 0  0.1191666666666667 0 0  0.12375 0 0  0.1283333333333334 0 0  0.1329166666666667 0 0  0.1375 0 0  0.1420833333333333 0 0  0.1466666666666667 0 0  0.15125 0 0  0.1558333333333333 0 0  0.1604166666666667 0 0  0.165 0 0  0.1695833333333333 0 0  0.1741666666666667 0 0  0.17875 0 0  0.1833333333333333 0 0  0.1879166666666667 0 0  0.1925 0 0  0.1970833333333333 0 0  0.2016666666666667 0 0  0.20625 0 0  0.2108333333333333 0 0  0.2154166666666666 0 0  0.22 0 0  0.2245833333333334 0 0  0.2291666666666667 0 0  0.23375 0 0  0.2383333333333333 0 0  0.2429166666666667 0 0  0.2475 0 0  0.2520833333333333 0 0  0.2566666666666667 0 0  0.26125 0 0  0.2658333333333334 0 0  0.2704166666666666 0 0  0.275 0 0  0.2795833333333334 0 0  0.2841666666666667 0 0  0.28875 0 0  0.2933333333333333 0 0  0.2979166666666667 0 0  0.3025 0 0  0.3070833333333334 0 0  0.3116666666666666 0 0  0.31625 0 0  0.3208333333333333 0 0  0.3254166666666667 0 0  0.33 0 0  0.3345833333333333 0 0  0.3391666666666667 0 0  0.34375 0 0  0.3483333333333333 0 0  0.3529166666666667 0 0  0.3575 0 0  0.3620833333333333 0 0  0.3666666666666667 0 0  0.37125 0 0  0.3758333333333334 0 0  0.3804166666666667 0 0  0.3850000000000001 0 0  0.3895833333333333 0 0  0.3941666666666667 0 0  0.39875 0 0  0.4033333333333334 0 0  0.4079166666666666 0 0  0.4125 0 0  0.4170833333333334 0 0  0.4216666666666667 0 0  0.42625 0 0  0.4308333333333333 0 0  0.4354166666666667 0 0  0.44 0 0  0.4445833333333333 0 0  0.4491666666666667 0 0  0.45375 0 0  0.4583333333333333 0 0  0.4629166666666666 0 0  0.4675 0 0  0.4720833333333334 0 0  0.4766666666666667 0 0  0.4812500000000001 0 0  0.4858333333333333 0 0  0.4904166666666667 0 0  0.495 0 0  0.4995833333333334 0 0  0.5041666666666667 0 0  0.50875 0 0  0.5133333333333334 0 0  0.5179166666666667 0 0  0.5225 0 0  0.5270833333333333 0 0  0.5316666666666667 0 0  0.53625 0 0  0.5408333333333333 0 0  0.5454166666666667 0 0  0.55 0 0  0.5545833333333333 0 0  0.5591666666666667 0 0  0.5637500000000001 0 0  0.5683333333333334 0 0  0.5729166666666666 0 0  0.5775 0 0  0.5820833333333334 0 0  0.5866666666666667 0 0  0.5912499999999999 0 0  0.5958333333333334 0 0  0.6004166666666667 0 0  0.605 0 0  0.6095833333333334 0 0  0.6141666666666667 0 0  0.61875 0 0  0.6233333333333333 0 0  0.6279166666666667 0 0  0.6325000000000001 0 0  0.6370833333333333 0 0  0.6416666666666666 0 0  0.64625 0 0  0.6508333333333334 0 0  0.6554166666666666 0 0  0.6599999999999999 0 0  0.6645833333333334 0 0  0.6691666666666667 0 0  0.67375 0 0  0.6783333333333333 0 0  0.6829166666666667 0 0  0.6875 0 0  0.6920833333333333 0 0  0.6966666666666667 0 0  0.70125 0 0  0.7058333333333333 0 0  0.7104166666666667 0 0  0.7150000000000001 0 0  0.7195833333333334 0 0  0.7241666666666666 0 0  0.72875 0 0  0.7333333333333334 0 0  0.7379166666666667 0 0  0.7425 0 0  0.7470833333333333 0 0  0.7516666666666667 0 0  0.75625 0 0  0.7608333333333334 0 0  0.7654166666666666 0 0  0.7700000000000001 0 0  0 0.002380952380952381 0  0.004583333333333333 0.002380952380952381 0  0.009166666666666667 0.002380952380952381 0  0.01375 0.002380952380952381 0  0.01833333333333333 0.002380952380952381 0  0.02291666666666667 0.002380952380952381 0  0.0275 0.002380952380952381 0  0.03208333333333334 0.002380952380952381 0  0.03666666666666667 0.002380952380952381 0  0.04125 0.002380952380952381 0  0.04583333333333334 0.002380952380952381 0  0.05041666666666667 0.002380952380952381 0  0.055 0.002380952380952381 0  0.05958333333333334 0.002380952380952381 0  0.06416666666666668 0.002380952380952381 0  0.06875000000000001 0.002380952380952381 0  0.07333333333333333 0.002380952380952381 0  0.07791666666666666 0.002380952380952381 0  0.08249999999999999 0.002380952380952381 0  0.08708333333333333 0.002380952380952381 0  0.09166666666666667 0.002380952380952381 0  0.09625000000000002 0.002380952380952381 0  0.1008333333333333 0.002380952380952381 0  0.1054166666666667 0.002380952380952381 0  0.11 0.002380952380952381 0  0.1145833333333333 0.002380952380952381 0  0.1191666666666667 0.002380952380952381 0  0.12375 0.002380952380952381 0  0.1283333333333334 0.002380952380952381 0  0.1329166666666667 0.002380952380952381 0  0.1375 0.002380952380952381 0  0.1420833333333333 0.002380952380952381 0  0.1466666666666667 0.002380952380952381 0  0.15125 0.002380952380952381 0  0.1558333333333333 0.002380952380952381 0  0.1604166666666667 0.002380952380952381 0  0.165 0.002380952380952381 0  0.1695833333333333 0.002380952380952381 0  0.1741666666666667 0.002380952380952381 0  0.17875 0.002380952380952381 0  0.1833333333333333 0.002380952380952381 0  0.1879166666666667 0.002380952380952381 0  0.1925 0.002380952380952381 0  0.1970833333333333 0.002380952380952381 0  0.2016666666666667 0.002380952380952381 0  0.20625 0.002380952380952381 0  0.2108333333333333 0.002380952380952381 0  0.2154166666666666 0.002380952380952381 0  0.22 0.002380952380952381 0  0.2245833333333334 0.002380952380952381 0  0.2291666666666667 0.002380952380952381 0  0.23375 0.002380952380952381 0  0.2383333333333333 0.002380952380952381 0  0.2429166666666667 0.002380952380952381 0  0.2475 0.002380952380952381 0  0.2520833333333333 0.002380952380952381 0  0.2566666666666667 0.002380952380952381 0  0.26125 0.002380952380952381 0  0.2658333333333334 0.002380952380952381 0  0.2704166666666666 0.002380952380952381 0  0.275 0.002380952380952381 0  0.2795833333333334 0.002380952380952381 0  0.2841666666666667 0.002380952380952381 0  0.28875 0.002380952380952381 0  0.2933333333333333 0.002380952380952381 0  0.2979166666666667 0.002380952380952381 0  0.3025 0.002380952380952381 0  0.3070833333333334 0.002380952380952381 0  0.3116666666666666 0.002380952380952381 0  0.31625 0.002380952380952381 0  0.3208333333333333 0.002380952380952381 0  0.3254166666666667 0.002380952380952381 0  0.33 0.002380952380952381 0  0.3345833333333333 0.002380952380952381 0  0.3391666666666667 0.002380952380952381 0  0.34375 0.002380952380952381 0  0.3483333333333333 0.002380952380952381 0  0.3529166666666667 0.002380952380952381 0  0.3575 0.002380952380952381 0  0.3620833333333333 0.002380952380952381 0  0.3666666666666667 0.002380952380952381 0  0.37125 0.002380952380952381 0  0.3758333333333334 0.002380952380952381 0  0.3804166666666667 0.002380952380952381 0  0.3850000000000001 0.002380952380952381 0  0.3895833333333333 0.002380952380952381 0  0.3941666666666667 0.002380952380952381 0  0.39875 0.002380952380952381 0  0.4033333333333334 0.002380952380952381 0  0.4079166666666666 0.002380952380952381 0  0.4125 0.002380952380952381 0  0.4170833333333334 0.002380952380952381 0  0.4216666666666667 0.002380952380952381 0  0.42625 0.002380952380952381 0  0.4308333333333333 0.002380952380952381 0  0.4354166666666667 0.002380952380952381 0  0.44 0.002380952380952381 0  0.4445833333333333 0.002380952380952381 0  0.4491666666666667 0.002380952380952381 0  0.45375 0.002380952380952381 0  0.4583333333333333 0.002380952380952381 0  0.4629166666666666 0.002380952380952381 0  0.4675 0.002380952380952381 0  0.4720833333333334 0.002380952380952381 0  0.4766666666666667 0.002380952380952381 0  0.4812500000000001 0.002380952380952381 0  0.4858333333333333 0.002380952380952381 0  0.4904166666666667 0.002380952380952381 0  0.495 0.002380952380952381 0  0.4995833333333334 0.002380952380952381 0  0.5041666666666667 0.002380952380952381 0  0.50875 0.002380952380952381 0  0.5133333333333334 0.002380952380952381 0  0.5179166666666667 0.002380952380952381 0  0.5225 0.002380952380952381 0  0.5270833333333333 0.002380952380952381 0  0.5316666666666667 0.002380952380952381 0  0.53625 0.002380952380952381 0  0.5408333333333333 0.002380952380952381 0  0.5454166666666667 0.002380952380952381 0  0.55 0.002380952380952381 0  0.5545833333333333 0.002380952380952381 0  0.5591666666666667 0.002380952380952381 0  0.5637500000000001 0.002380952380952381 0  0.5683333333333334 0.002380952380952381 0  0.5729166666666666 0.002380952380952381 0  0.5775 0.002380952380952381 0  0.5820833333333334 0.002380952380952381 0  0.5866666666666667 0.002380952380952381 0  0.5912499999999999 0.002380952380952381 0  0.5958333333333334 0.002380952380952381 0  0.6004166666666667 0.002380952380952381 0  0.605 0.002380952380952381 0  0.6095833333333334 0.002380952380952381 0  0.6141666666666667 0.002380952380952381 0  0.61875 0.002380952380952381 0  0.6233333333333333 0.002380952380952381 0  0.6279166666666667 0.002380952380952381 0  0.6325000000000001 0.002380952380952381 0  0.6370833333333333 0.002380952380952381 0  0.6416666666666666 0.002380952380952381 0  0.64625 0.002380952380952381 0  0.6508333333333334 0.002380952380952381 0  0.6554166666666666 0.002380952380952381 0  0.6599999999999999 0.002380952380952381 0  0.6645833333333334 0.002380952380952381 0  0.6691666666666667 0.002380952380952381 0  0.67375 0.002380952380952381 0  0.6783333333333333 0.002380952380952381 0  0.6829166666666667 0.002380952380952381 0  0.6875 0.002380952380952381 0  0.6920833333333333 0.002380952380952381 0  0.6966666666666667 0.002380952380952381 0  0.70125 0.002380952380952381 0  0.7058333333333333 0.002380952380952381 0  0.7104166666666667 0.002380952380952381 0  0.7150000000000001 0.002380952380952381 
[...]
<PointData  Scalars="pressure"> 
<DataArray  type="Float64"  Name="pressure"  format="ascii">8.9618455917152369e+03  8.9321505047815881e+03  8.9049408409529024e+03  8.8763523025810282e+03  8.8464795298669305e+03  8.8111049073569448e+03  8.7784107573918754e+03  8.7456900785137732e+03  8.7101172452359369e+03  8.6808943274776284e+03  8.6571015030721555e+03  8.6307693054389001e+03  8.6036818256922288e+03  8.5762519641808522e+03  8.5486298983549623e+03  8.5208588553498303e+03  8.4928991440089703e+03  8.4646516152543027e+03  8.4360660549459772e+03  8.4072885213393311e+03  8.3785428506081389e+03  8.3498107461171858e+03  8.3209217133735601e+03  8.2917854923300620e+03  8.2624104037163816e+03  8.2328205597830220e+03  8.2030880092074531e+03  8.1732975455838196e+03  8.1433372009449949e+03  8.1130225097830908e+03  8.0823324814146845e+03  8.0514558353960210e+03  8.0206883152098044e+03  7.9902810134718293e+03  7.9603615076179594e+03  7.9309865038163034e+03  7.9022764907433884e+03  7.8745350991486348e+03  7.8493375578899113e+03  5.7004776610808030e+03  5.6722740658851226e+03  5.6488060415314039e+03  5.6265160421792089e+03  5.6044636679522846e+03  5.5826482587265964e+03  5.5608966038932222e+03  5.5391951465500460e+03  5.5174963203589550e+03  5.4957672755689609e+03  5.4740066033071471e+03  5.4521735253687120e+03  5.4303008173106318e+03  5.4083789795101784e+03  5.3864009420933498e+03  5.3635133899766279e+03  5.3395522016053519e+03  5.3147158343387655e+03  5.2898802438596913e+03  5.2672224907484015e+03  5.2409567643089258e+03  5.2167696517426666e+03  5.1926624028453807e+03  5.1683737159190568e+03  5.1438317174859030e+03  5.1188450809596543e+03  5.0934071873615430e+03  5.0674027942099628e+03  5.0400349223244002e+03  5.0118397834523003e+03  4.9839852519555525e+03  4.9571492986946714e+03  4.9299807114253508e+03  4.8996272877115407e+03  4.8720291920365871e+03  4.8474865797659158e+03  4.8201475719933842e+03  4.7933934379711336e+03  4.7678873651774356e+03  4.7428998646094815e+03  4.7172413323645551e+03  4.6897426846475919e+03  4.6603758545048177e+03  4.6293706219257147e+03  4.5981278136214432e+03  4.5661702370289177e+03  4.5335395700722747e+03  4.4997900373781749e+03  4.4657052266919673e+03  4.4311367163359964e+03  4.3969199244079246e+03  4.3627648098114196e+03  4.3293525244131124e+03  4.2962792124780599e+03  4.2641064267741067e+03  4.2323575460652473e+03  4.2014980811758578e+03  4.1710226703576509e+03  4.1412469199018369e+03  4.1111854609923676e+03  4.0810162570752532e+03  4.0512119327888536e+03  4.0217530820188631e+03  3.9926165377400662e+03  3.9637084683434709e+03  3.9350248966875879e+03  3.9064865871207967e+03  3.8781053996091759e+03  3.8498130754695944e+03  3.8216325208877001e+03  3.7935030384634993e+03  3.7654550500469486e+03  3.7374329850277900e+03  3.7094723226552123e+03  3.6815209348151980e+03  3.6536176775727654e+03  3.6257127179748477e+03  3.5978471536979459e+03  3.5699726739482994e+03  3.5421318576749536e+03  3.5142773991130107e+03  3.4864528513812279e+03  3.4586115678259375e+03  3.4307977357374539e+03  3.4029651312710553e+03  3.3751583391692734e+03  3.3473313802798330e+03  3.3195290432226143e+03  3.2917054039126388e+03  3.2639051946730478e+03  3.2360821318988174e+03  3.2082800664118977e+03  3.1804505802966642e+03  3.1526325576481263e+03  3.1247617740075198e+03  3.0968118588021075e+03  3.0685203172364090e+03  3.0396852928757330e+03  3.0103461436015350e+03  2.9805217416259266e+03  2.9501730385697151e+03  2.9192463059321717e+03  2.8876642897407914e+03  2.8553235692736071e+03  2.8220982011096089e+03  2.7878446697010199e+03  2.7525154819713657e+03  2.7165990532694309e+03  2.6808284468284737e+03  2.6446328306692067e+03  2.6078058647933526e+03  2.5717671613941452e+03  2.5082440718218700e+03  2.3768972788461092e+03  2.2273019469075666e+03  2.0799574501173111e+03  1.9342283077024263e+03  1.7884358783372893e+03  1.6420150962819434e+03  1.4948365576988451e+03  1.3469493388117269e+03  1.1984613176872303e+03  1.0494887318844974e+03  9.0013691817084191e+02  7.5049481548797087e+02  6.0063644563280934e+02  4.5061552798728792e+02  3.0053863425489902e+02  1.4989962684220254e+02  4.2504845019263184e+00  8.9601930866618641e+03  8.9318338673117178e+03  8.9058109462884186e+03  8.8745832925201066e+03  6.4431812169382456e+03  6.4183367347766471e+03  6.3947628035529870e+03  6.3711728698513416e+03  6.3462794933558744e+03  8.6815778254054167e+03  8.6572944861730502e+03  8.6308365853799205e+03  8.6037159111154906e+03  8.5762710607931858e+03  8.5486446333256354e+03  8.5208779970999112e+03  8.4929309300042441e+03  8.4646927241970643e+03  8.4360894491788167e+03  8.4072785797960350e+03  8.3785384501459757e+03  8.3498301881126208e+03  8.3209506655080750e+03  8.2918110317424289e+03  8.2624346830081031e+03  8.2328375165503166e+03  8.2030889581781776e+03  8.1733145672458213e+03  8.1433793943505061e+03  8.1130673367824756e+03  8.0823547437841853e+03  8.0514428803163519e+03  8.0206465424174676e+03  7.9902266178570753e+03  7.9603034752555159e+03  7.9309185585493933e+03  7.9021731268269086e+03  7.8743845578360215e+03  7.8484609177463999e+03  7.8233962820121251e+03  5.6718311982202686e+03  7.7543957685528703e+03  5.6264616328450848e+03  7.6935332083887124e+03  5.5826336643379109e+03  7.6337351610897895e+03  5.5391927123849891e+03  7.5741618687165819e+03  5.4957716225975473e+03  7.5144639572163014e+03  5.4521797327115582e+03  7.4544643232159042e+03  5.4083829594205508e+03  7.3942411855575374e+03  5.3637505855700565e+03  7.3299276461918707e+03  5.3147138917394259e+03  7.2616436153954919e+03  5.2665012515302897e+03  5.2408142567028426e+03  5.2167830117037056e+03  5.1926835940227293e+03  5.1683982301431151e+03  5.1438854538265250e+03  5.1189008156314558e+03  5.0934394320313950e+03  5.0675980170596722e+03  5.0401301341932140e+03  5.0118049642484129e+03  4.9838181806068769e+03  4.9571885295428474e+03  4.9302306048931459e+03  4.9006051809728961e+03  6.6886046821136415e+03  6.6547374146211587e+03  6.6167372699482739e+03  6.5799797173715006e+03  6.5450626496009991e+03  6.5108968344360264e+03  6.4758525671162342e+03  6.4380616884353003e+03  6.3977838421942934e+03  6.3549410482666863e+03  6.3122126779112759e+03  6.2682663184536459e+03  6.2236093850658153e+03  6.1770904853746742e+03  6.1304138715154768e+03  6.0827617485703940e+03  6.0359255765978896e+03  5.9888594099466000e+03  5.9431390389830703e+03  5.8975743280158285e+03  5.8535606467040298e+03  5.8098295423737600e+03  5.7676166626716677e+03  5.7256453891071869e+03  5.6849843941265653e+03  5.6436534140677986e+03  5.6021703059370229e+03  5.5612749691430718e+03  5.5208304513547118e+03  5.4808520871781757e+03  5.4411607517075445e+03  5.4018028493456686e+03  5.3626169666271626e+03  5.3236731178585023e+03  5.2848234411386620e+03  5.2461542887151791e+03  5.2075271549079989e+03  5.1690394916454434e+03  5.1305591444950978e+03  5.0921910277381730e+03  5.0538072554630735e+03  5.0155177210374595e+03  4.9771973865451746e+03  4.9389594486557380e+03  4.9006807595593646e+03  4.8624766976329975e+03  4.8242253639291721e+03  4.7860435710443207e+03  4.7478102395079304e+03  4.7096431157978732e+03  4.6714216455477463e+03  4.6332641629018954e+03  4.5950504138738543e+03  4.5568990436872400e+03  4.5186898522254996e+03  4.4805414422946169e+03  4.4423331252676116e+03  4.4041824096575710e+03  4.3659657613020881e+03  4.3277942925687948e+03  4.2895258490362112e+03  4.2511983881842234e+03  4.2123882925379012e+03  4.1727932639563414e+03  4.1325159473013273e+03  4.0915800274065346e+03  4.0499245453111930e+03  4.0074788134544469e+03  3.9641366119933105e+03  3.9197552320190184e+03  3.8741632041097505e+03  3.8271591136138786e+03  3.7786047128481946e+03  3.7291586723000873e+03  3.6801940616553939e+03  3.6304842198466222e+03  3.5798110471935511e+03  3.5300308035909043e+03  2.5160956809731283e+03  2.3780255382501023e+03  2.2267125883261137e+03  2.0798294565070255e+03  1.9342496173602165e+03  1.7885112309968097e+03  1.6421003498771472e+03  1.4949146421249386e+03  1.3470148980593881e+03  1.1985139207380034e+03  1.0495297837217461e+03  9.0016826834917367e+02  7.5051835228704272e+02  6.0065249055428944e+02  4.5063433694210596e+02  3.0048367326656569e+02  1.5046294561254888e+02  -2.3037437923595486e-01  8.9590375828462584e+03  8.9309710683615522e+03  8.9043464684879127e+03  8.8716276642159228e+03  8.8426088958000619e+03  8.8101124258454147e+03  8.7784251321193078e+03  8.7467361058191473e+03  8.7142573772293272e+03  8.6838845937464976e+03  8.6578330194434911e+03  8.6310682698249493e+03  8.6038286737573708e+03  8.5763353186162258e+03  8.5486936027075262e+03  8.5209418814967685e+03  8.4930411351047951e+03  8.4648437486628354e+03  8.4361786176115675e+03  8.4072284507054228e+03  8.3785187250650943e+03  8.3499029936904917e+03  8.3210552555378945e+03  8.2918976799062311e+03  8.2625201512375588e+03  8.2329028194206221e+03  8.2030788880068303e+03  8.1733716918552209e+03  8.1435330767984287e+03  8.1132299162011932e+03  8.0824358041009382e+03  8.0513958959719921e+03  8.0204965334640083e+03  7.9900349208711386e+03  7.9601039211124180e+03  7.9306862472152598e+03  7.9018363250135562e+03  7.8737827155188052e+03  7.8466998156359332e+03  7.8194184038047606e+03  7.7857969863429125e+03  7.7542231835737612e+03  7.7236583789108818e+03  7.6934872180385364e+03  7.6635531119893740e+03  7.6337162078562815e+03  7.6039417348324478e+03  7.5741555954733349e+03  7.5443484841242944e+03  7.5144649395180122e+03  7.4845115809968866e+03  7.4544614864458044e+03  7.4243660826990408e+03  7.3943156125287969e+03  7.3637358717050092e+03  7.3299851227380914e+03  7.2957944158855180e+03  7.2615299052158389e+03  7.2278691038396855e+03  7.1941671533213666e+03  7.1613912819407933e+03  7.1283104884951226e+03  7.0949688656944691e+03  7.0613976984768706e+03  7.0271515435839528e+03  6.9919605522369202e+03  6.9571592159692682e+03  6.9190067798304835e+03  6.8799399618654115e+03  6.8409792482895646e+03  6.8051327493287072e+03  6.7685110514984035e+03  6.7290202830786766e+03  6.6905117847488491e+03  6.6554923557531311e+03  6.6162943201079943e+03  6.5796007693486517e+03  6.5449099511513714e+03  6.5110192289868273e+03  6.4765341538071543e+03  6.4384259006634411e+03  6.3985224372759485e+03  6.3546177247783362e+03  6.3126697896775249e+03  6.2682027398158798e+03  6.2242223210555503e+03  6.1768715446524438e+03  6.1308595309129787e+03  6.0823352717323787e+03  6.0362296482372485e+03  5.9883323707940690e+03  5.9433630370874698e+03  5.8970152350052558e+03  5.8537508048955406e+03  5.8092888036428176e+03  5.7678050357684660e+03  5.7251368743353542e+03  5.6853051191579234e+03  5.6436530623728531e+03  5.6020197625096434e+03  5.5612082918217302e+03  5.5207188468511777e+03  5.4808173383551975e+03  5.4410743954449963e+03  5.4017912756452397e+03  5.3625477756916107e+03  5.3236772363168384e+03  5.2847657906268660e+03  5.2461689183977833e+03  5.2074772030558306e+03  5.1690611146765232e+03  5.1305142990379127e+03  5.0922172796800041e+03  5.0537657819645528e+03  5.0155470244521684e+03  4.9771581317851642e+03  4.9389907569493262e+03  4.9006429604084542e+03  4.8625093194597912e+03  4.8241885176244905e+03  4.7860770521527638e+03  4.7477740174639375e+03  4.7096771619136789e+03  4.6713858389384186e+03  4.6332985943061176e+03  4.5950149067935699e+03  4.5569337840722137e+03  4.5186546371662562e+03  4.4805765839381265e+03  4.4422984649553482e+03  4.4042186738780492e+03  4.3659332379016241e+03  4.3278356418460935e+03  4.2895066247005770e+03  4.2513043265632950e+03  4.2125543679372804e+03  4.1729215373927973e+03  4.1326423750101203e+03  4.0917211882906231e+03  4.0500777089013850e+03  4.0076530521720774e+03  3.9643390013235371e+03  3.9199906231684872e+03  3.8744387162450967e+03  3.8274819253286169e+03  3.7788450029630376e+03  3.7289049138490709e+03  3.6804243942255871e+03  3.6306894574415946e+03  3.5799235389522087e+03  3.5289084840424371e+03  3.4634402462824914e+03  2.3774341607962724e+03  2.2249773203870968e+03  2.0794345513542294e+03  1.9343497429204481e+03  1.7887829296344064e+03  1.6423996256569553e+03  1.4951861748202102e+03  1.3472418486336635e+03  1.1986955781351382e+03  1.0496713460699950e+03  9.0027634478134098e+02  7.5059899554571598e+02  6.0071121479523117e+02  4.5067039177402000e+02  3.0053170637252595e+02  1.5034970777682321e+02  3.0666349915703755e-02  8.9579172774557792e+03  8.9298541950953440e+03  8.9015638128592418e+03  8.8712092495162069e+03  8.8410530517313382e+03  8.8097684992209379e+03  8.7784258832090636e+03  8.7471111524377284e+03  8.7158246976432292e+03  8.6860962504299259e+03  8.6586132728256071e+03  8.6314160067780813e+03  8.6040062426792883e+03  8.5764370268856255e+03  8.5487693065471267e+03  8.5210408681335011e+03  8.4932275481528086e+03  8.4651357732361175e+03  8.4363760873793635e+03  8.4070625454195688e+03  8.3784725807363939e+03  8.3500515276400165e+03  8.3212527492865029e+03  8.2920352820596854e+03  8.2626673781774389e+03  8.2330552970829231e+03  8.2029916302843085e+03  8.1734672366521099e+03  8.1438274307269785e+03  8.1135361898675801e+03  8.0825903584654043e+03  8.0513061046391431e+03  8.0202181845520108e+03  7.9896947951205848e+03  7.9597696970412599e+03  7.9303086217163236e+03  7.9012929201304742e+03  7.8728615130290918e+03  7.8448914333300454e+03  7.8162530945332664e+03  7.7850014929958470e+03  7.7539335316330817e+03  7.7235095686824188e+03  7.6934154137405021e+03  7.6635117519695896e+03  7.6337034133304978e+03  7.6039396041942282e+03  7.5741721503408298e+03  7.5443701235363333e+03  7.5144993574687160e+03  7.4845414879454338e+03  7.4544864543261483e+03  7.4243671321731208e+03  7.3942623200154621e+03  7.3654313108594215e+03  7.3298836340489015e+03  7.2958137795776765e+03  7.2616292529666789e+03  7.2253256791451277e+03  7.1942364810151321e+03  7.1614643581943565e+03  7.1283968296092353e+03  7.0950253207646692e+03  7.0615556184058278e+03  7.0276736665303424e+03  6.9913400075563914e+03  6.9588547309986388e+03  6.9189589752602478e+03  6.8802401207154535e+03  6.8393608252609556e+03  6.8056591590706093e+03  6.7692698254509151e+03  6.7309791868391740e+03  6.6925448192118747e+03  6.6583063694714929e+03  6.6143335565646157e+03  6.5788138071603280e+03  6.5445669067774697e+03  6.5110283123341105e+03  6.4788869064830860e+03  6.4384009202607403e+03  6.4014935500398096e+03  6.3524314690294923e+03  6.3149848481794324e+03  6.2668844843266124e+03  6.2269812630572651e+03  6.1750250263120779e+03  6.1332987709263316e+03  6.0799355103685093e+03  6.0383600110577363e+03  5.9857072818735578e+03  5.9452791233505050e+03  5.8943565159429991e+03  5.8555372071314923e+03  5.8067315066643623e+03  5.7695298745929349e+03  5.7227368826360971e+03  5.6869754292304860e+03  5.6434238037583200e+03  5.6016126254071633e+03  5.5611570620556886e+03  5.5203670551070882e+03  5.4808485408157985e+03  5.4407747286903304e+03  5.4018790674997872e+03  5.3622836966598779e+03  5.3238033137926850e+03  5.2845256117002991e+03  5.2463206466021256e+03  5.2072529549734791e+03  5.1692299118799883e+03  5.1303006112549720e+03  5.0923973762384257e+03  5.0535590645355269e+03  5.0157345702704279e+03  4.9769559994908268e+03  4.9391831970945623e+03  4.9004438357376948e+03  4.8627049659111444e+03  4.8239913617073043e+03  4.7862747955402883e+03  4.7475781513972224e+03  4.7098762833418605e+03  4.6711908307061722e+03  4.6334986544736839e+03  4.5948205141338112e+03  4.5571345951154972e+03  4.5184608336502542e+03  4.4807783649514176e+03  4.4421057282471629e+03  4.4044230653307113e+03  4.3657446096863750e+03  4.3280520538208530e+03  4.2893412388091674e+03  4.2516221070281299e+03  4.2129057155263490e+03  4.1732090642236426e+03  4.1329199245793352e+03  4.0920404325422746e+03  4.0504188166873400e+03  4.0080429345710609e+03  3.9647933091382811e+03  3.9205172354651550e+03  3.8750601799058877e+03  3.8281779397361111e+03  3.7796910236894737e+03  3.7276107810886610e+03  3.6812877983324265e+03  3.6312798978208803e+03  3.5795605491658966e+03  3.5304267700803430e+03  2.5089757797389489e+03  2.3689470737933907e+03  2.2227301688658290e+03  2.0789265744933518e+03  1.9346130718762995e+03  1.7892859064478591e+03  1.6429269989919039e+03  1.4956557971938380e+03  1.3476308298089998e+03  1.1990053996946972e+03  1.0499121124423784e+03  9.0045985630912912e+02  7.5073595447655327e+02  6.0080999666591379e+02  4.5073798899573222e+02  3.0056857338713678e+02  1.5033007388403726e+02  -2.1473690607278916e-03  8.9567916316319861e+03  8.9285669114607063e+03  8.8998838125526963e+03  8.8701749807593551e+03  8.8400344012963742e+03  8.8093241212171652e+03  8.7784221423206636e+03  8.7475611900066706e+03  8.7170084500932408e+03  8.6875506369936975e+03  8.6594383347282546e+03  8.6318253704646777e+03  8.6042265612214433e+03  8.5765644045421468e+03  8.5488596063516106e+03  8.5211554460377392e+03  8.4934778979566963e+03  8.4656119138165141e+03  8.4368423005494151e+03  8.4065390920154259e+03  8.3784203382757405e+03  8.3503175167932641e+03  8.3215839439527572e+03  8.2921949459031166e+03  8.2628442395634211e+03  8.2334598376960366e+03  8.2026041569528606e+03  8.1736375960909054e+03  8.1443160666209224e+03  8.1140312578552166e+03  8.0828492802739456e+03  8.0511536310156198e+03  8.0197710592859521e+03  7.9891853230162415e+03  7.9593165329020294e+03  7.9298222177852913e+03  7.9005797228642959e+03  7.8717856285298121e+03  7.8431445939189571e+03  7.8141124453578441e+03  7.7839284781203314e+03  7.7534790003501566e+03  7.7232768773069974e+03  7.6932922103603432e+03  7.6634460339980214e+03  7.6336764873213779e+03  7.6039392886395062e+03  7.5741953470979552e+03  7.5444113961150197e+03  7.5145548583246118e+03  7.4845995863364815e+03  7.4545296848953294e+03  7.4243618560262239e+03  7.3941778187430264e+03  7.3652655394842468e+03  7.3298008740229425e+03  7.2959235135647832e+03  7.2617276918971484e+03  7.2251491879346304e+03  7.1943546896573171e+03  7.1616281288905730e+03  7.1285654545681891e+03  7.0951495126098525e+03  7.0615141745947139e+03  7.0296929451685110e+03  6.9891724431688517e+03  6.9587884603120747e+03  6.9192436021291305e+03  6.8810601307316147e+03  6.8402390024182259e+03  6.8064612513202965e+03  6.7706347437690629e+03  6.7332449334457669e+03  6.6933273212806907e+03  6.6594473250947503e+03  6.6162560007803659e+03  6.5763840565863684e+03  6.5443556277094103e+03  6.5109339009080368e+03  6.4793474771317924e+03  6.4422815625812400e+03  4.6644993438092679e+03  6.3513389133599521e+03  4.5997127539680396e+03  6.2687285510333459e+03  4.5358940939277427e+03  6.1760877884093234e+03  4.4658913562680946e+03  6.0797857079213400e+03  4.3958213224112042e+03  5.9849288003370857e+03  4.3276237338665615e+03  5.8932852215153589e+03  4.2622596109408369e+03  5.8056637008571424e+03  4.1998218560676769e+03  5.7217987228432603e+03  4.1399223074728652e+03  5.6437562686036081e+03  4.0774182711065760e+03  5.5618183544978992e+03  4.0186300393870997e+03  5.4817838688443917e+03  3.9609342939759081e+03  5.4030048165987391e+03  3.9039493165540935e+03  5.3250580302218359e+03  3.8474347452314419e+03  5.2476618271259549e+03  3.7912305832580191e+03  5.1706286572017161e+03  3.7352306794128463e+03  5.0938342414210565e+03  3.6793649158800386e+03  5.0171965717865232e+03  3.6235871399470479e+03  4.9406617147841635e+03  3.5678670616668569e+03  4.8641943019183127e+03  3.5121848565059963e+03  4.7877712034069355e+03  3.4565275886742847e+03  4.7113773339747195e+03  3.4008868449353695e+03  4.6350028625743889e+03  3.3452571639746607e+03  4.5586413210980945e+03  3.2896350171974327e+03  4.4822883106856043e+03  3.2340185278115582e+03  4.4059413183216038e+03  3.1784113471114142e+03  4.3296073349230210e+03  3.1228583715528925e+03  4.2534421864298056e+03  3.0687537074979955e+03  3.0418725033161259e+03  3.0120100122966032e+03  2.9824911306115905e+03  2.9522989724026106e+03  2.9216697477605535e+03  2.8904960776494959e+03  2.8585943111670949e+03  2.8259692172305990e+03  2.7923343379782295e+03  2.7575365341367515e+03  2.7181106934810828e+03  2.6841839735839253e+03  2.6471047087622987e+03  2.6078095229376436e+03  2.5654084561325781e+03  2.4813920513454332e+03  2.3582551158395490e+03  2.2201362