<?xml version="1.0"?>
<VTKFile type="UnstructuredGrid"  version="0.1"  >
<UnstructuredGrid>
<Piece  NumberOfPoints="8545" NumberOfCells="16538">
<Points>
<DataArray  type="Float64"  NumberOfComponents="3"  format="ascii">0 0 0  2 0 0  2 0.2 0  0 0.2 0  0.007999999999984813 0 0  0.01599999999996964 0 0  0.02399999999995461 0 0  0.03199999999993959 0 0  0.03999999999992457 0 0  0.04799999999990945 0 0  0.05599999999989373 0 0  0.06399999999987775 0 0  0.07199999999986065 0 0  0.07999999999984338 0 0  0.08799999999982558 0 0  0.09599999999980778 0 0  0.10399999999979 0 0  0.1119999999997726 0 0  0.1199999999997562 0 0  0.1279999999997408 0 0  0.1359999999997272 0 0  0.1439999999997141 0 0  0.1519999999997019 0 0  0.1599999999996896 0 0  0.1679999999996774 0 0  0.1759999999996651 0 0  0.1839999999996529 0 0  0.1919999999996407 0 0  0.1999999999996284 0 0  0.2079999999996162 0 0  0.2159999999996039 0 0  0.2239999999995916 0 0  0.2319999999995794 0 0  0.2399999999995652 0 0  0.2479999999995501 0 0  0.2559999999995309 0 0  0.2639999999995103 0 0  0.2719999999994875 0 0  0.2799999999994642 0 0  0.2879999999994408 0 0  0.2959999999994175 0 0  0.3039999999993941 0 0  0.3119999999993708 0 0  0.3199999999993474 0 0  0.3279999999993241 0 0  0.3359999999993007 0 0  0.3439999999992774 0 0  0.351999999999254 0 0  0.3599999999992307 0 0  0.3679999999992074 0 0  0.375999999999184 0 0  0.3839999999991606 0 0  0.3919999999991373 0 0  0.3999999999991139 0 0  0.4079999999990906 0 0  0.4159999999990672 0 0  0.4239999999990439 0 0  0.4319999999990204 0 0  0.4399999999989971 0 0  0.4479999999989738 0 0  0.4559999999989504 0 0  0.463999999998927 0 0  0.4719999999989037 0 0  0.4799999999988804 0 0  0.487999999998857 0 0  0.4959999999988337 0 0  0.5039999999988103 0 0  0.511999999998787 0 0  0.5199999999987636 0 0  0.5279999999987403 0 0  0.5359999999987169 0 0  0.5439999999986936 0 0  0.5519999999986703 0 0  0.559999999998647 0 0  0.5679999999986237 0 0  0.5759999999986004 0 0  0.583999999998577 0 0  0.5919999999985537 0 0  0.5999999999985304 0 0  0.6079999999985071 0 0  0.6159999999984838 0 0  0.6239999999984605 0 0  0.6319999999984371 0 0  0.6399999999984138 0 0  0.6479999999983904 0 0  0.6559999999983671 0 0  0.6639999999983438 0 0  0.6719999999983205 0 0  0.6799999999982972 0 0  0.6879999999982739 0 0  0.6959999999982506 0 0  0.7039999999982272 0 0  0.7119999999982038 0 0  0.7199999999981805 0 0  0.7279999999981572 0 0  0.7359999999981339 0 0  0.7439999999981106 0 0  0.7519999999980873 0 0  0.759999999998064 0 0  0.7679999999980406 0 0  0.7759999999980173 0 0  0.783999999997994 0 0  0.7919999999979707 0 0  0.7999999999979474 0 0  0.807999999997924 0 0  0.8159999999979007 0 0  0.8239999999978773 0 0  0.831999999997854 0 0  0.8399999999978307 0 0  0.8479999999978074 0 0  0.855999999997784 0 0  0.8639999999977607 0 0  0.8719999999977374 0 0  0.8799999999977141 0 0  0.8879999999976906 0 0  0.8959999999976673 0 0  0.903999999997644 0 0  0.9119999999976207 0 0  0.9199999999975974 0 0  0.9279999999975741 0 0  0.9359999999975508 0 0  0.9439999999975274 0 0  0.9519999999975041 0 0  0.9599999999974808 0 0  0.9679999999974574 0 0  0.9759999999974341 0 0  0.9839999999974108 0 0  0.9919999999973981 0 0  0.9999999999973858 0 0  1.007999999997396 0 0  1.015999999997406 0 0  1.023999999997427 0 0  1.031999999997449 0 0  1.039999999997469 0 0  1.04799999999749 0 0  1.055999999997512 0 0  1.063999999997533 0 0  1.071999999997554 0 0  1.079999999997575 0 0  1.087999999997596 0 0  1.095999999997617 0 0  1.103999999997638 0 0  1.111999999997659 0 0  1.11999999999768 0 0  1.127999999997702 0 0  1.135999999997722 0 0  1.143999999997744 0 0  1.151999999997765 0 0  1.159999999997786 0 0  1.167999999997807 0 0  1.175999999997828 0 0  1.183999999997849 0 0  1.19199999999787 0 0  1.199999999997891 0 0  1.207999999997912 0 0  1.215999999997933 0 0  1.223999999997955 0 0  1.231999999997976 0 0  1.239999999997997 0 0  1.247999999998018 0 0  1.255999999998039 0 0  1.26399999999806 0 0  1.271999999998081 0 0  1.279999999998102 0 0  1.287999999998123 0 0  1.295999999998144 0 0  1.303999999998166 0 0  1.311999999998186 0 0  1.319999999998208 0 0  1.327999999998229 0 0  1.33599999999825 0 0  1.343999999998271 0 0  1.351999999998292 0 0  1.359999999998313 0 0  1.367999999998334 0 0  1.375999999998355 0 0  1.383999999998376 0 0  1.391999999998397 0 0  1.399999999998418 0 0  1.40799999999844 0 0  1.41599999999846 0 0  1.423999999998482 0 0  1.431999999998503 0 0  1.439999999998524 0 0  1.447999999998545 0 0  1.455999999998566 0 0  1.463999999998587 0 0  1.471999999998608 0 0  1.479999999998629 0 0  1.48799999999865 0 0  1.495999999998672 0 0  1.503999999998693 0 0  1.511999999998714 0 0  1.519999999998735 0 0  1.527999999998756 0 0  1.535999999998777 0 0  1.543999999998798 0 0  1.551999999998819 0 0  1.55999999999884 0 0  1.567999999998861 0 0  1.575999999998882 0 0  1.583999999998904 0 0  1.591999999998924 0 0  1.599999999998946 0 0  1.607999999998967 0 0  1.615999999998988 0 0  1.623999999999009 0 0  1.63199999999903 0 0  1.639999999999051 0 0  1.647999999999072 0 0  1.655999999999093 0 0  1.663999999999114 0 0  1.671999999999136 0 0  1.679999999999157 0 0  1.687999999999177 0 0  1.695999999999199 0 0  1.70399999999922 0 0  1.711999999999241 0 0  1.719999999999262 0 0  1.727999999999283 0 0  1.735999999999304 0 0  1.743999999999325 0 0  1.751999999999346 0 0  1.759999999999367 0 0  1.767999999999389 0 0  1.775999999999409 0 0  1.783999999999431 0 0  1.791999999999452 0 0  1.799999999999473 0 0  1.807999999999494 0 0  1.815999999999515 0 0  1.823999999999536 0 0  1.831999999999557 0 0  1.839999999999578 0 0  1.847999999999599 0 0  1.85599999999962 0 0  1.863999999999641 0 0  1.871999999999663 0 0  1.879999999999684 0 0  1.887999999999705 0 0  1.895999999999726 0 0  1.903999999999747 0 0  1.911999999999768 0 0  1.919999999999789 0 0  1.92799999999981 0 0  1.935999999999831 0 0  1.943999999999853 0 0  1.951999999999873 0 0  1.959999999999895 0 0  1.967999999999916 0 0  1.975999999999937 0 0  1.983999999999958 0 0  1.991999999999979 0 0  2 0.007999999999985056 0  2 0.01599999999997076 0  2 0.02399999999995914 0  2 0.03199999999993772 0  2 0.03999999999991205 0  2 0.04799999999988908 0  2 0.05599999999986612 0  2 0.06399999999984315 0  2 0.07199999999982019 0  2 0.07999999999979179 0  2 0.08799999999976883 0  2 0.09599999999974587 0  2 0.1039999999997452 0  2 0.1119999999997669 0  2 0.1199999999997886 0  2 0.1279999999998103 0  2 0.135999999999832 0  2 0.1439999999998537 0  2 0.1519999999998738 0  2 0.1599999999998949 0  2 0.1679999999999159 0  2 0.175999999999937 0  2 0.183999999999958 0  2 0.191999999999979 0  1.991999999999967 0.2 0  1.983999999999933 0.2 0  1.9759999999999 0.2 0  1.967999999999867 0.2 0  1.959999999999834 0.2 0  1.9519999999998 0.2 0  1.943999999999767 0.2 0  1.935999999999734 0.2 0  1.9279999999997 0.2 0  1.919999999999667 0.2 0  1.911999999999634 0.2 0  1.9039999999996 0.2 0  1.895999999999567 0.2 0  1.887999999999534 0.2 0  1.879999999999501 0.2 0  1.871999999999467 0.2 0  1.863999999999434 0.2 0  1.855999999999401 0.2 0  1.847999999999367 0.2 0  1.839999999999334 0.2 0  1.831999999999301 0.2 0  1.823999999999268 0.2 0  1.815999999999234 0.2 0  1.807999999999201 0.2 0  1.799999999999168 0.2 0  1.791999999999135 0.2 0  1.783999999999101 0.2 0  1.775999999999068 0.2 0  1.767999999999035 0.2 0  1.759999999999017 0.2 0  1.751999999999006 0.2 0  1.743999999999028 0.2 0  1.735999999999061 0.2 0  1.727999999999112 0.2 0  1.719999999999168 0.2 0  1.711999999999223 0.2 0  1.703999999999279 0.2 0  1.695999999999334 0.2 0  1.68799999999939 0.2 0  1.679999999999446 0.2 0  1.671999999999501 0.2 0  1.663999999999557 0.2 0  1.655999999999612 0.2 0  1.647999999999668 0.2 0  1.639999999999723 0.2 0  1.631999999999779 0.2 0  1.623999999999834 0.2 0  1.61599999999989 0.2 0  1.607999999999945 0.2 0  1.600000000000001 0.2 0  1.592000000000056 0.2 0  1.584000000000112 0.2 0  1.576000000000167 0.2 0  1.568000000000223 0.2 0  1.560000000000279 0.2 0  1.552000000000334 0.2 0  1.54400000000039 0.2 0  1.536000000000445 0.2 0  1.528000000000501 0.2 0  1.520000000000556 0.2 0  1.512000000000612 0.2 0  1.504000000000667 0.2 0  1.496000000000723 0.2 0  1.488000000000778 0.2 0  1.480000000000834 0.2 0  1.472000000000889 0.2 0  1.464000000000945 0.2 0  1.456000000001 0.2 0  1.448000000001056 0.2 0  1.440000000001112 0.2 0  1.432000000001167 0.2 0  1.424000000001223 0.2 0  1.416000000001278 0.2 0  1.408000000001334 0.2 0  1.400000000001389 0.2 0  1.392000000001445 0.2 0  1.3840000000015 0.2 0  1.376000000001556 0.2 0  1.368000000001611 0.2 0  1.360000000001667 0.2 0  1.352000000001722 0.2 0  1.344000000001778 0.2 0  1.336000000001833 0.2 0  1.328000000001889 0.2 0  1.320000000001944 0.2 0  1.312000000002 0.2 0  1.304000000002055 0.2 0  1.296000000002111 0.2 0  1.288000000002166 0.2 0  1.280000000002222 0.2 0  1.272000000002277 0.2 0  1.264000000002333 0.2 0  1.256000000002388 0.2 0  1.248000000002444 0.2 0  1.240000000002499 0.2 0  1.232000000002555 0.2 0  1.22400000000261 0.2 0  1.216000000002666 0.2 0  1.208000000002721 0.2 0  1.200000000002777 0.2 0  1.192000000002832 0.2 0  1.184000000002888 0.2 0  1.176000000002943 0.2 0  1.168000000002999 0.2 0  1.160000000003054 0.2 0  1.15200000000311 0.2 0  1.144000000003165 0.2 0  1.136000000003221 0.2 0  1.128000000003276 0.2 0  1.120000000003332 0.2 0  1.112000000003387 0.2 0  1.104000000003443 0.2 0  1.096000000003498 0.2 0  1.088000000003554 0.2 0  1.080000000003609 0.2 0  1.072000000003665 0.2 0  1.06400000000372 0.2 0  1.056000000003776 0.2 0  1.048000000003831 0.2 0  1.040000000003887 0.2 0  1.032000000003942 0.2 0  1.024000000003998 0.2 0  1.016000000004053 0.2 0  1.008000000004088 0.2 0  1.000000000004121 0.2 0  0.99200000000411 0.2 0  0.984000000004098 0.2 0  0.9760000000040647 0.2 0  0.9680000000040314 0.2 0  0.9600000000039981 0.2 0  0.9520000000039648 0.2 0  0.9440000000039312 0.2 0  0.9360000000038982 0.2 0  0.928000000003864
[...]
<PointData  Scalars="pressure"> 
<DataArray  type="Float64"  Name="pressure"  format="ascii">3.1650183729406434e-01  -5.4153450611936594e-16  5.1177186211245025e-18  3.1650183729406756e-01  3.1523582994489241e-01  3.1396982259571810e-01  3.1270381524654689e-01  3.1143780789737452e-01  3.1017180054820542e-01  3.0890579319903294e-01  3.0763978584986079e-01  3.0637377850069125e-01  3.0510777115152288e-01  3.0384176380235023e-01  3.0257575645317902e-01  3.0130974910400832e-01  3.0004374175483473e-01  2.9877773440566180e-01  2.9751172705648432e-01  2.9624571970730501e-01  2.9497971235812176e-01  2.9371370500893823e-01  2.9244769765975831e-01  2.9118169031057817e-01  2.8991568296139980e-01  2.8864967561222016e-01  2.8738366826304335e-01  2.8611766091386870e-01  2.8485165356469638e-01  2.8358564621552340e-01  2.8231963886635492e-01  2.8105363151718499e-01  2.7978762416801811e-01  2.7852161681885163e-01  2.7725560946968075e-01  2.7598960212051243e-01  2.7472359477134078e-01  2.7345758742216830e-01  2.7219158007299149e-01  2.7092557272381301e-01  2.6965956537463454e-01  2.6839355802545700e-01  2.6712755067627908e-01  2.6586154332710388e-01  2.6459553597792934e-01  2.6332952862875836e-01  2.6206352127959082e-01  2.6079751393042505e-01  2.5953150658125745e-01  2.5826549923208830e-01  2.5699949188291871e-01  2.5573348453375250e-01  2.5446747718458029e-01  2.5320146983541092e-01  2.5193546248623783e-01  2.5066945513706712e-01  2.4940344778789331e-01  2.4813744043871883e-01  2.4687143308954140e-01  2.4560542574036498e-01  2.4433941839118992e-01  2.4307341104201283e-01  2.4180740369283726e-01  2.4054139634366076e-01  2.3927538899448569e-01  2.3800938164530924e-01  2.3674337429613529e-01  2.3547736694696053e-01  2.3421135959778944e-01  2.3294535224861684e-01  2.3167934489944453e-01  2.3041333755027074e-01  2.2914733020109834e-01  2.2788132285192877e-01  2.2661531550275710e-01  2.2534930815358700e-01  2.2408330080441821e-01  2.2281729345524942e-01  2.2155128610607869e-01  2.2028527875690990e-01  2.1901927140773889e-01  2.1775326405856998e-01  2.1648725670939895e-01  2.1522124936022735e-01  2.1395524201105318e-01  2.1268923466188014e-01  2.1142322731270766e-01  2.1015721996353323e-01  2.0889121261436019e-01  2.0762520526518607e-01  2.0635919791601295e-01  2.0509319056683797e-01  2.0382718321766521e-01  2.0256117586849082e-01  2.0129516851931928e-01  2.0002916117014588e-01  1.9876315382097270e-01  1.9749714647179789e-01  1.9623113912262458e-01  1.9496513177345209e-01  1.9369912442427850e-01  1.9243311707510563e-01  1.9116710972593212e-01  1.8990110237675908e-01  1.8863509502758397e-01  1.8736908767841062e-01  1.8610308032923809e-01  1.8483707298006469e-01  1.8357106563089085e-01  1.8230505828171792e-01  1.8103905093254810e-01  1.7977304358337690e-01  1.7850703623420644e-01  1.7724102888503712e-01  1.7597502153586755e-01  1.7470901418669849e-01  1.7344300683752717e-01  1.7217699948835696e-01  1.7091099213918542e-01  1.6964498479001561e-01  1.6837897744084351e-01  1.6711297009167173e-01  1.6584696274250016e-01  1.6458095539332776e-01  1.6331494804415445e-01  1.6204894069498041e-01  1.6078293334580668e-01  1.5951692599663098e-01  1.5825091864745425e-01  1.5698491129827480e-01  1.5571890394909635e-01  1.5445289659991526e-01  1.5318688925073259e-01  1.5192088190155184e-01  1.5065487455236973e-01  1.4938886720318931e-01  1.4812285985400775e-01  1.4685685250482597e-01  1.4559084515564599e-01  1.4432483780646496e-01  1.4305883045728485e-01  1.4179282310810465e-01  1.4052681575892564e-01  1.3926080840974797e-01  1.3799480106056924e-01  1.3672879371139224e-01  1.3546278636221570e-01  1.3419677901304097e-01  1.3293077166386466e-01  1.3166476431468757e-01  1.3039875696551201e-01  1.2913274961633320e-01  1.2786674226715436e-01  1.2660073491797347e-01  1.2533472756879366e-01  1.2406872021961143e-01  1.2280271287043024e-01  1.2153670552124893e-01  1.2027069817206784e-01  1.1900469082288624e-01  1.1773868347370374e-01  1.1647267612452331e-01  1.1520666877534193e-01  1.1394066142616197e-01  1.1267465407698071e-01  1.1140864672780042e-01  1.1014263937861918e-01  1.0887663202944001e-01  1.0761062468025905e-01  1.0634461733107996e-01  1.0507860998190116e-01  1.0381260263272275e-01  1.0254659528354412e-01  1.0128058793436501e-01  1.0001458058518722e-01  9.8748573236008580e-02  9.7482565886830783e-02  9.6216558537651514e-02  9.4950551188473106e-02  9.3684543839293408e-02  9.2418536490115027e-02  9.1152529140934635e-02  8.9886521791755478e-02  8.8620514442576181e-02  8.7354507093397107e-02  8.6088499744217714e-02  8.4822492395037585e-02  8.3556485045858858e-02  8.2290477696678993e-02  8.1024470347499655e-02  7.9758462998318791e-02  7.8492455649138398e-02  7.7226448299956965e-02  7.5960440950776434e-02  7.4694433601594806e-02  7.3428426252414303e-02  7.2162418903234077e-02  7.0896411554054212e-02  6.9630404204874249e-02  6.8364396855693996e-02  6.7098389506514783e-02  6.5832382157335070e-02  6.4566374808156288e-02  6.3300367458976534e-02  6.2034360109797605e-02  6.0768352760618288e-02  5.9502345411439582e-02  5.8236338062260251e-02  5.6970330713081913e-02  5.5704323363903345e-02  5.4438316014724132e-02  5.3172308665545252e-02  5.1906301316366081e-02  5.0640293967186778e-02  4.9374286618007947e-02  4.8108279268828665e-02  4.6842271919649035e-02  4.5576264570469420e-02  4.4310257221289902e-02  4.3044249872109967e-02  4.1778242522929859e-02  4.0512235173749259e-02  3.9246227824568651e-02  3.7980220475388356e-02  3.6714213126207831e-02  3.5448205777028056e-02  3.4182198427847602e-02  3.2916191078667792e-02  3.1650183729488385e-02  3.0384176380308592e-02  2.9118169031129432e-02  2.7852161681950028e-02  2.6586154332770815e-02  2.5320146983591668e-02  2.4054139634412285e-02  2.2788132285233253e-02  2.1522124936053832e-02  2.0256117586874609e-02  1.8990110237695090e-02  1.7724102888515485e-02  1.6458095539336106e-02  1.5192088190156279e-02  1.3926080840976532e-02  1.2660073491796422e-02  1.1394066142616373e-02  1.0128058793436199e-02  8.8620514442556645e-03  7.5960440950758011e-03  6.3300367458957677e-03  5.0640293967162200e-03  3.7980220475364920e-03  2.5320146983573819e-03  1.2660073491779686e-03  -5.1916049833076515e-16  -8.2107328792206647e-16  -7.4090480738399247e-16  -8.2008255103954299e-16  -8.7723836484123605e-16  -8.5469879154580577e-16  -6.6262443925451431e-16  -8.3224987396728748e-16  -1.0644042861590413e-15  -6.5681630730171948e-16  1.3599574678438931e-16  -5.6746603417921227e-16  -1.2008428879434085e-15  -7.9977742756664191e-16  -7.7366427363717766e-16  -1.0270101335842172e-15  -6.4324611917185654e-16  -3.5127030198128198e-16  -8.2518507653453582e-16  -5.2537188627923080e-16  -3.0151150873246605e-16  -2.5634328703839754e-16  -3.7002629453457768e-16  -1.2805080539842035e-16  1.2660073491814559e-03  2.5320146983633242e-03  3.7980220475447796e-03  5.0640293967265694e-03  6.3300367459081016e-03  7.5960440950900319e-03  8.8620514442718477e-03  1.0128058793454013e-02  1.1394066142636196e-02  1.2660073491818179e-02  1.3926080841000213e-02  1.5192088190182173e-02  1.6458095539364049e-02  1.7724102888545670e-02  1.8990110237727460e-02  2.0256117586909053e-02  2.1522124936089987e-02  2.2788132285270934e-02  2.4054139634451494e-02  2.5320146983632354e-02  2.6586154332812764e-02  2.7852161681993327e-02  2.9118169031174646e-02  3.0384176380355128e-02  3.1650183729536513e-02  3.2916191078717710e-02  3.4182198427899171e-02  3.5448205777081493e-02  3.6714213126262663e-02  3.7980220475442236e-02  3.9246227824620221e-02  4.0512235173793272e-02  4.1778242522964387e-02  4.3044249872132144e-02  4.4310257221299020e-02  4.5576264570465742e-02  4.6842271919632653e-02  4.8108279268800021e-02  4.9374286617967153e-02  5.0640293967134355e-02  5.1906301316302410e-02  5.3172308665470576e-02  5.4438316014639027e-02  5.5704323363807602e-02  5.6970330712976212e-02  5.8236338062144295e-02  5.9502345411313426e-02  6.0768352760481689e-02  6.2034360109650973e-02  6.3300367458819368e-02  6.4566374807988575e-02  6.5832382157155908e-02  6.7098389506323936e-02  6.8364396855490561e-02  6.9630404204658061e-02  7.0896411553824812e-02  7.2162418902991118e-02  7.3428426252157022e-02  7.4694433601322746e-02  7.5960440950489358e-02  7.7226448299654499e-02  7.8492455648820819e-02  7.9758462997986668e-02  8.1024470347153904e-02  8.2290477696320016e-02  8.3556485045487280e-02  8.4822492394653962e-02  8.6088499743822391e-02  8.7354507092990447e-02  8.8620514442158627e-02  8.9886521791326529e-02  9.1152529140494251e-02  9.2418536489662917e-02  9.3684543838829862e-02  9.4950551187998417e-02  9.6216558537165903e-02  9.7482565886335110e-02  9.8748573235502540e-02  1.0001458058467146e-01  1.0128058793383918e-01  1.0254659528300850e-01  1.0381260263217676e-01  1.0507860998134506e-01  1.0634461733051273e-01  1.0761062467968067e-01  1.0887663202884948e-01  1.1014263937801680e-01  1.1140864672718541e-01  1.1267465407635320e-01  1.1394066142552157e-01  1.1520666877468737e-01  1.1647267612385390e-01  1.1773868347301868e-01  1.1900469082218471e-01  1.2027069817134955e-01  1.2153670552051417e-01  1.2280271286967838e-01  1.2406872021884278e-01  1.2533472756800909e-01  1.2660073491717441e-01  1.2786674226634259e-01  1.2913274961551080e-01  1.3039875696468151e-01  1.3166476431385155e-01  1.3293077166302322e-01  1.3419677901219371e-01  1.3546278636136624e-01  1.3672879371053717e-01  1.3799480105970793e-01  1.3926080840887708e-01  1.4052681575804638e-01  1.4179282310721614e-01  1.4305883045638307e-01  1.4432483780555114e-01  1.4559084515471743e-01  1.4685685250388250e-01  1.4812285985304635e-01  1.4938886720220979e-01  1.5065487455137302e-01  1.5192088190053527e-01  1.5318688924969900e-01  1.5445289659886313e-01  1.5571890394802904e-01  1.5698491129719727e-01  1.5825091864636712e-01  1.5951692599554368e-01  1.6078293334472418e-01  1.6204894069390377e-01  1.6331494804308680e-01  1.6458095539226972e-01  1.6584696274145191e-01  1.6711297009063514e-01  1.6837897743981800e-01  1.6964498478900178e-01  1.7091099213818381e-01  1.7217699948736787e-01  1.7344300683655273e-01  1.7470901418573859e-01  1.7597502153492425e-01  1.7724102888410939e-01  1.7850703623329667e-01  1.7977304358248086e-01  1.8103905093166531e-01  1.8230505828084892e-01  1.8357106563002909e-01  1.8483707297920762e-01  1.8610308032838330e-01  1.8736908767756119e-01  1.8863509502673606e-01  1.8990110237591371e-01  1.9116710972509013e-01  1.9243311707426813e-01  1.9369912442344789e-01  1.9496513177263158e-01  1.9623113912181367e-01  1.9749714647099773e-01  1.9876315382018178e-01  2.0002916116936484e-01  2.0129516851854584e-01  2.0256117586772479e-01  2.0382718321690607e-01  2.0509319056608410e-01  2.0635919791526439e-01  2.0762520526444320e-01  2.0889121261362317e-01  2.1015721996280434e-01  2.1142322731198940e-01  2.1268923466117284e-01  2.1395524201035812e-01  2.1522124935954359e-01  2.1648725670872801e-01  2.1775326405791051e-01  2.1901927140709027e-01  2.2028527875627260e-01  2.2155128610545149e-01  2.2281729345463241e-01  2.2408330080381167e-01  2.2534930815299228e-01  2.2661531550217370e-01  2.2788132285135937e-01  2.2914733020054315e-01  2.3041333754972898e-01  2.3167934489891567e-01  2.3294535224809965e-01  2.3421135959728284e-01  2.3547736694646312e-01  2.3674337429564651e-01  2.3800938164482646e-01  2.3927538899400863e-01  2.4054139634318628e-01  2.4180740369236389e-01  2.4307341104153926e-01  2.4433941839071782e-01  2.4560542573989352e-01  2.4687143308907120e-01  2.4813744043825062e-01  2.4940344778743068e-01  2.5066945513661104e-01  2.5193546248579024e-01  2.5320146983497427e-01  2.5446747718415486e-01  2.5573348453333861e-01  2.5699949188252014e-01  2.5826549923170333e-01  2.5953150658088703e-01  2.6079751393007461e-01  2.6206352127925986e-01  2.6332952862844800e-01  2.6459553597763352e-01  2.6586154332681738e-01  2.6712755067599953e-01  2.6839355802518211e-01  2.6965956537436137e-01  2.7092557272354212e-01  2.7219158007271954e-01  2.7345758742189613e-01  2.7472359477107333e-01  2.7598960212025259e-01  2.7725560946943167e-01  2.7852161681861154e-01  2.7978762416779257e-01  2.8105363151697588e-01  2.8231963886615963e-01  2.8358564621534244e-01  2.8485165356452508e-01  2.8611766091370888e-01  2.8738366826289058e-01  2.8864967561207655e-01  2.8991568296125869e-01  2.9118169031044100e-01  2.9244769765962275e-01  2.9371370500880151e-01  2.9497971235798021e-01  2.9624571970715874e-01  2.9751172705633400e-01  2.9877773440550864e-01  3.0004374175468734e-01  3.0130974910386532e-01  3.0257575645304396e-01  3.0384176380222427e-01  3.0510777115140636e-01  3.0637377850058717e-01  3.0763978584977131e-01  3.0890579319895872e-01  3.1017180054814536e-01  3.1143780789733005e-01  3.1270381524651486e-01  3.1396982259570316e-01  3.1523582994488825e-01  3.1650183729406811e-01  3.1650183729406772e-01  3.1650183729406839e-01  3.1650183729406856e-01  3.1650183729406861e-01  3.1650183729406894e-01  3.1650183729406822e-01  3.1650183729406745e-01  3.1650183729406894e-01  3.1650183729406745e-01  3.1650183729406711e-01  3.1650183729406672e-01  3.1650183729406672e-01  3.1650183729406511e-01  3.1650183729406589e-01  3.1650183729406389e-01  3.1650183729406489e-01  3.1650183729406417e-01  3.1650183729406423e-01  3.1650183729406445e-01  3.1650183729406473e-01  3.1650183729406450e-01  3.1650183729406522e-01  3.1650183729406617e-01  4.7503624286855221e-02  6.3933371133394187e-02  8.0585155053650909e-02  9.6818033050925623e-02  1.1330765775092899e-01  1.2976575329010645e-01  1.4614728016185324e-01  2.7287434781335224e-01  2.5634973186181631e-01  2.9941073808021684e-01  2.3989163632257765e-01  2.2346193429650973e-01  2.0697544524409356e-01  1.9061984863287038e-01  1.7407601051210875e-01  1.5907546098683664e-02  3.1650183729515155e-02  1.6020471437227218e-01  2.8609451539668396e-01  5.5661436380632978e-02  7.2152796976644520e-02  8.8610932526889147e-02  1.0507860998134054e-01  1.2155318384262001e-01  1.3799480105969780e-01  2.6466310908192292e-01  2.4793368497738333e-01  2.3147558943812793e-01  2.1501749389889563e-01  1.9855939835964700e-01  1.8238717209233379e-01  1.3786655732210878e-01  1.2170824598594970e-01  1.0509744553394078e-01  1.8230505828173943e-01  1.9870549586987926e-01  8.8640799046662416e-02  7.2364176008455586e-02  2.1517785640078607e-01  2.3167934489946113e-01  2.4815088946731459e-01  5.5724607968261161e-02  2.6480219782216613e-01  2.3876551462290709e-02  2.3657310221574832e-02  3.9310882315566918e-02  3.9793920499387958e-02  2.9169505253609013e-01  2.8061337115115970e-01  1.5399389739168445e-01  1.6622623431648478e-01  3.0683028970828796e-01  3.0684853125658990e-01  9.0332840024071517e-03  9.2664704585547417e-03  1.6784592070472257e-01  1.5243727810239704e-01  2.9377627693497871e-01  2.7824532635599697e-01  4.7475275594216042e-02  6.3933371133398670e-02  8.0433573682661741e-02  9.6979371030691167e-02  1.1330765775093377e-01  1.2976575329009973e-01  1.4622384882929063e-01  2.5606380668588924e-01  2.3960571114663368e-01  2.2314761560739360e-01  2.0668952006815530e-01  1.9053410605134566e-01  1.2949313597369724e-01  1.1303984052918008e-01  9.6640570667372264e-02  8.0118849355794025e-02  6.3665553911238765e-02  4.7524772001163611e-02  1.7389842889190468e-01  1.9053410605049959e-01  2.0722221498299734e-01  2.2368031052234791e-01  2.3990839266858724e-01  2.5659650160102998e-01  2.7273826337911655e-01  3.1281030641030459e-02  3.1299628911803538e-02  2.9924660448032098e-01  1.7529357557266476e-01  1.4517168378186873e-01  1.6590060737573634e-02  1.6590060737575889e-02  2.7139382927424283e-01  1.5898854048426128e-01  6.9326447664787832e-03  3.0034548926352228e-01  1.6017414175841097e-01  3.0974520456418753e-01  2.8754823026996873e-01  2.9295781040463797e-01  2.7940136849974628e-01  1.6661403829342836e-01  1.5271430757929771e-01  2.8616992404626701e-01  4.1291224687785254e-02  2.1987956402426422e-02  5.7793858755038917e-02  1.4010508551967207e-01  9.0710049833394993e-02  1.1944717012928481e-01  1.0716814537257417e-01  7.0053405265443638e-02  1.8024411919910122e-01  2.6669161357394994e-01  2.5012393295823376e-01  2.3357682753182440e-01  2.1725168420669838e-01  2.0081582502761433e-01  2.8623920127011981e-01  3.1088337233094959e-01  3.1085931287252599e-01  1.7914675144138148e-01  1.9571525343286350e-01  1.2457032880491187e-01  2.1218331157781153e-01  2.2863144451151790e-01  1.0828973214499549e-01  2.4509950265645616e-01  9.1839842416186077e-02  2.6155759819577673e-01  7.5465016830581599e-02  5.8783297814168273e-02  7.5192766281255013e-02  5.8905816922615831e-02  6.9148435937668312e-02  5.2373832140078888e-02  9.1822008000969110e-02  1.0828010354015262e-01  8.5305260456572787e-02  1.0176335599575539e-01  1.2454109600047829e-01  1.1852272255519763e-01  1.4119629461851332e-01  1.3467954707410953e-01  2.6127264024253233e-01  2.4477898656416250e-01  2.5115142340405194e-01  2.2832089102490641e-01  2.3469332786478750e-01  2.1186279548567871e-01  1.9540469994642609e-01  2.1823523232555866e-01  2.0177713678631193e-01  1.8551618044496818e-01  5.2625253052425588e-02  6.9080760934082289e-02  2.6780665814102328e-01  8.5425542606916399e-02  2.5121909840745854e-01  2.3469332786440517e-01  1.0188363814619870e-01  2.1840094530518067e-01  1.1835700957559170e-01  2.0184481178948832e-01  1.3478367889698925e-01  1.8559278735306661e-01  1.5926959269472857e-01  3.6313615899352517e-02  3.6323180209982917e-02  5.4232502591785503e-03  5.5043150113035363e-03  4.2645476648937850e-02  4.2645476648953101e-02  2.7768829718268945e-01  1.5106045308950947e-01  1.6929535994145453e-01  2.9440953204100540e-01  2.6605377660195904e-02  2.6699529315273921e-02  1.9566820919091987e-01  1.8558126755966001e-01  2.1215149317103693e-01  2.2860958871028042e-01  2.4487721167352902e-01  2.6133530721277365e-01  7.5397312465716862e-02  1.0185507616159870e-01  5.2487942465451416e-02  8.5515026253339163e-02  1.2477159908324849e-01  1.3498285402744720e-01  3.0448020862944702e-01  3.0379772291927359e-01  1.6419302024983468e-01  1.7994074804286209e-01  1.4023886644918895e-01  2.8247368876286116e-01  2.1223674247134248e-02  2.1253885804194128e-02  2.6663113761072815e-01  1.2630736893849817e-01  7.6933082320846613e-02  2.5966084909257703e-01  2.4320275355333526e-01  2.2680989109381175e-01  2.1028656247485056e-01  1.9364194309454660e-01  1.8717451208736738e-01  5.0943468722683391e-02  8.3849851024467056e-02  1.0029593062090383e-01  1.3322413764211266e-01  2.6829663250321968e-02  3.6308958959863392e-02  3.4789192317633839e-02  2.7599310485634648e-01  1.2136172143620987e-02  1.2155865133616713e-02  1.4931041954203941e-01  1.7076413379568747e-01  2.8360914007051218e-02  2.9613902241386608e-01  1.7082134637888433e-01  1.4947851296255066e-01  3.0232532647892313e-01  1.7738080532656397e-01  1.0991048036611374e-01  9.3450217082739623e-02  6.0536193748431145e-02  1.4279060998179671e-01  1.0957792548177918e-01  9.3127678041028616e-02  1.1660603712046985e-01  6.0203638864244576e-02  6.7347131190235526e-02  2.0355896274308036e-01  2.2001705828232587e-01  2.3647515382156112e-01  2.5293324936081518e-01  6.7214209866855265e-02  2.6914950980075303e-01  2.5292860109630277e-01  2.3638729150470547e-01  2.2001457093865484e-01  1.1671197196909716e-01  2.0353553864626417e-01  4.4383369283290369e-02  4.4250687321169262e-02  3.0504130018544667e-01  1.8552223728893636e-02  1.8882055065583991e-02  3.1135746451254898e-01  3.1161121087148935e-01  2.6950169096955606e-01  1.1373832127037443e-02  2.7551210861978598e-01  1.6293686270451141e-01  1.4366543643026300e-01  1.7728665446346939e-01  1.3932058490587039e-02  4.7548150839695023e-03  5.0321211856490531e-03  1.5471516252144471e-01  1.4823752757072772e-01  1.7220389957643817e-01  1.5580262877241427e-01  1.6452148097205677e-01  2.9629761586893538e-01  2.7437939248971027e-01  2.8281801666070305e-01  2.9135828365028144e-01  2.9752346868036772e-01  1.5594516343639450e-01  2.8966467398987289e-01  2.8224226046657969e-01  1.9437547826329085e-01  2.1087373990693573e-01  2.2733183544624094e-01  2.4377682601532788e-01  2.602259461