<?xml version="1.0"?>
<VTKFile type="UnstructuredGrid"  version="0.1"  >
<UnstructuredGrid>
<Piece  NumberOfPoints="21400" NumberOfCells="42336">
<Points>
<DataArray  type="Float64"  NumberOfComponents="3"  format="ascii">0 0 0  0.004583333333333333 0 0  0.009166666666666667 0 0  0.01375 0 0  0.01833333333333333 0 0  0.02291666666666667 0 0  0.0275 0 0  0.03208333333333334 0 0  0.03666666666666667 0 0  0.04125 0 0  0.04583333333333334 0 0  0.05041666666666667 0 0  0.055 0 0  0.05958333333333334 0 0  0.06416666666666668 0 0  0.06875000000000001 0 0  0.07333333333333333 0 0  0.07791666666666666 0 0  0.08249999999999999 0 0  0.08708333333333333 0 0  0.09166666666666667 0 0  0.09625000000000002 0 0  0.1008333333333333 0 0  0.1054166666666667 0 0  0.11 0 0  0.1145833333333333 0 0  0.1191666666666667 0 0  0.12375 0 0  0.1283333333333334 0 0  0.1329166666666667 0 0  0.1375 0 0  0.1420833333333333 0 0  0.1466666666666667 0 0  0.15125 0 0  0.1558333333333333 0 0  0.1604166666666667 0 0  0.165 0 0  0.1695833333333333 0 0  0.1741666666666667 0 0  0.17875 0 0  0.1833333333333333 0 0  0.1879166666666667 0 0  0.1925 0 0  0.1970833333333333 0 0  0.2016666666666667 0 0  0.20625 0 0  0.2108333333333333 0 0  0.2154166666666666 0 0  0.22 0 0  0.2245833333333334 0 0  0.2291666666666667 0 0  0.23375 0 0  0.2383333333333333 0 0  0.2429166666666667 0 0  0.2475 0 0  0.2520833333333333 0 0  0.2566666666666667 0 0  0.26125 0 0  0.2658333333333334 0 0  0.2704166666666666 0 0  0.275 0 0  0.2795833333333334 0 0  0.2841666666666667 0 0  0.28875 0 0  0.2933333333333333 0 0  0.2979166666666667 0 0  0.3025 0 0  0.3070833333333334 0 0  0.3116666666666666 0 0  0.31625 0 0  0.3208333333333333 0 0  0.3254166666666667 0 0  0.33 0 0  0.3345833333333333 0 0  0.3391666666666667 0 0  0.34375 0 0  0.3483333333333333 0 0  0.3529166666666667 0 0  0.3575 0 0  0.3620833333333333 0 0  0.3666666666666667 0 0  0.37125 0 0  0.3758333333333334 0 0  0.3804166666666667 0 0  0.3850000000000001 0 0  0.3895833333333333 0 0  0.3941666666666667 0 0  0.39875 0 0  0.4033333333333334 0 0  0.4079166666666666 0 0  0.4125 0 0  0.4170833333333334 0 0  0.4216666666666667 0 0  0.42625 0 0  0.4308333333333333 0 0  0.4354166666666667 0 0  0.44 0 0  0.4445833333333333 0 0  0.4491666666666667 0 0  0.45375 0 0  0.4583333333333333 0 0  0.4629166666666666 0 0  0.4675 0 0  0.4720833333333334 0 0  0.4766666666666667 0 0  0.4812500000000001 0 0  0.4858333333333333 0 0  0.4904166666666667 0 0  0.495 0 0  0.4995833333333334 0 0  0.5041666666666667 0 0  0.50875 0 0  0.5133333333333334 0 0  0.5179166666666667 0 0  0.5225 0 0  0.5270833333333333 0 0  0.5316666666666667 0 0  0.53625 0 0  0.5408333333333333 0 0  0.5454166666666667 0 0  0.55 0 0  0.5545833333333333 0 0  0.5591666666666667 0 0  0.5637500000000001 0 0  0.5683333333333334 0 0  0.5729166666666666 0 0  0.5775 0 0  0.5820833333333334 0 0  0.5866666666666667 0 0  0.5912499999999999 0 0  0.5958333333333334 0 0  0.6004166666666667 0 0  0.605 0 0  0.6095833333333334 0 0  0.6141666666666667 0 0  0.61875 0 0  0.6233333333333333 0 0  0.6279166666666667 0 0  0.6325000000000001 0 0  0.6370833333333333 0 0  0.6416666666666666 0 0  0.64625 0 0  0.6508333333333334 0 0  0.6554166666666666 0 0  0.6599999999999999 0 0  0.6645833333333334 0 0  0.6691666666666667 0 0  0.67375 0 0  0.6783333333333333 0 0  0.6829166666666667 0 0  0.6875 0 0  0.6920833333333333 0 0  0.6966666666666667 0 0  0.70125 0 0  0.7058333333333333 0 0  0.7104166666666667 0 0  0.7150000000000001 0 0  0.7195833333333334 0 0  0.7241666666666666 0 0  0.72875 0 0  0.7333333333333334 0 0  0.7379166666666667 0 0  0.7425 0 0  0.7470833333333333 0 0  0.7516666666666667 0 0  0.75625 0 0  0.7608333333333334 0 0  0.7654166666666666 0 0  0.7700000000000001 0 0  0 0.002380952380952381 0  0.004583333333333333 0.002380952380952381 0  0.009166666666666667 0.002380952380952381 0  0.01375 0.002380952380952381 0  0.01833333333333333 0.002380952380952381 0  0.02291666666666667 0.002380952380952381 0  0.0275 0.002380952380952381 0  0.03208333333333334 0.002380952380952381 0  0.03666666666666667 0.002380952380952381 0  0.04125 0.002380952380952381 0  0.04583333333333334 0.002380952380952381 0  0.05041666666666667 0.002380952380952381 0  0.055 0.002380952380952381 0  0.05958333333333334 0.002380952380952381 0  0.06416666666666668 0.002380952380952381 0  0.06875000000000001 0.002380952380952381 0  0.07333333333333333 0.002380952380952381 0  0.07791666666666666 0.002380952380952381 0  0.08249999999999999 0.002380952380952381 0  0.08708333333333333 0.002380952380952381 0  0.09166666666666667 0.002380952380952381 0  0.09625000000000002 0.002380952380952381 0  0.1008333333333333 0.002380952380952381 0  0.1054166666666667 0.002380952380952381 0  0.11 0.002380952380952381 0  0.1145833333333333 0.002380952380952381 0  0.1191666666666667 0.002380952380952381 0  0.12375 0.002380952380952381 0  0.1283333333333334 0.002380952380952381 0  0.1329166666666667 0.002380952380952381 0  0.1375 0.002380952380952381 0  0.1420833333333333 0.002380952380952381 0  0.1466666666666667 0.002380952380952381 0  0.15125 0.002380952380952381 0  0.1558333333333333 0.002380952380952381 0  0.1604166666666667 0.002380952380952381 0  0.165 0.002380952380952381 0  0.1695833333333333 0.002380952380952381 0  0.1741666666666667 0.002380952380952381 0  0.17875 0.002380952380952381 0  0.1833333333333333 0.002380952380952381 0  0.1879166666666667 0.002380952380952381 0  0.1925 0.002380952380952381 0  0.1970833333333333 0.002380952380952381 0  0.2016666666666667 0.002380952380952381 0  0.20625 0.002380952380952381 0  0.2108333333333333 0.002380952380952381 0  0.2154166666666666 0.002380952380952381 0  0.22 0.002380952380952381 0  0.2245833333333334 0.002380952380952381 0  0.2291666666666667 0.002380952380952381 0  0.23375 0.002380952380952381 0  0.2383333333333333 0.002380952380952381 0  0.2429166666666667 0.002380952380952381 0  0.2475 0.002380952380952381 0  0.2520833333333333 0.002380952380952381 0  0.2566666666666667 0.002380952380952381 0  0.26125 0.002380952380952381 0  0.2658333333333334 0.002380952380952381 0  0.2704166666666666 0.002380952380952381 0  0.275 0.002380952380952381 0  0.2795833333333334 0.002380952380952381 0  0.2841666666666667 0.002380952380952381 0  0.28875 0.002380952380952381 0  0.2933333333333333 0.002380952380952381 0  0.2979166666666667 0.002380952380952381 0  0.3025 0.002380952380952381 0  0.3070833333333334 0.002380952380952381 0  0.3116666666666666 0.002380952380952381 0  0.31625 0.002380952380952381 0  0.3208333333333333 0.002380952380952381 0  0.3254166666666667 0.002380952380952381 0  0.33 0.002380952380952381 0  0.3345833333333333 0.002380952380952381 0  0.3391666666666667 0.002380952380952381 0  0.34375 0.002380952380952381 0  0.3483333333333333 0.002380952380952381 0  0.3529166666666667 0.002380952380952381 0  0.3575 0.002380952380952381 0  0.3620833333333333 0.002380952380952381 0  0.3666666666666667 0.002380952380952381 0  0.37125 0.002380952380952381 0  0.3758333333333334 0.002380952380952381 0  0.3804166666666667 0.002380952380952381 0  0.3850000000000001 0.002380952380952381 0  0.3895833333333333 0.002380952380952381 0  0.3941666666666667 0.002380952380952381 0  0.39875 0.002380952380952381 0  0.4033333333333334 0.002380952380952381 0  0.4079166666666666 0.002380952380952381 0  0.4125 0.002380952380952381 0  0.4170833333333334 0.002380952380952381 0  0.4216666666666667 0.002380952380952381 0  0.42625 0.002380952380952381 0  0.4308333333333333 0.002380952380952381 0  0.4354166666666667 0.002380952380952381 0  0.44 0.002380952380952381 0  0.4445833333333333 0.002380952380952381 0  0.4491666666666667 0.002380952380952381 0  0.45375 0.002380952380952381 0  0.4583333333333333 0.002380952380952381 0  0.4629166666666666 0.002380952380952381 0  0.4675 0.002380952380952381 0  0.4720833333333334 0.002380952380952381 0  0.4766666666666667 0.002380952380952381 0  0.4812500000000001 0.002380952380952381 0  0.4858333333333333 0.002380952380952381 0  0.4904166666666667 0.002380952380952381 0  0.495 0.002380952380952381 0  0.4995833333333334 0.002380952380952381 0  0.5041666666666667 0.002380952380952381 0  0.50875 0.002380952380952381 0  0.5133333333333334 0.002380952380952381 0  0.5179166666666667 0.002380952380952381 0  0.5225 0.002380952380952381 0  0.5270833333333333 0.002380952380952381 0  0.5316666666666667 0.002380952380952381 0  0.53625 0.002380952380952381 0  0.5408333333333333 0.002380952380952381 0  0.5454166666666667 0.002380952380952381 0  0.55 0.002380952380952381 0  0.5545833333333333 0.002380952380952381 0  0.5591666666666667 0.002380952380952381 0  0.5637500000000001 0.002380952380952381 0  0.5683333333333334 0.002380952380952381 0  0.5729166666666666 0.002380952380952381 0  0.5775 0.002380952380952381 0  0.5820833333333334 0.002380952380952381 0  0.5866666666666667 0.002380952380952381 0  0.5912499999999999 0.002380952380952381 0  0.5958333333333334 0.002380952380952381 0  0.6004166666666667 0.002380952380952381 0  0.605 0.002380952380952381 0  0.6095833333333334 0.002380952380952381 0  0.6141666666666667 0.002380952380952381 0  0.61875 0.002380952380952381 0  0.6233333333333333 0.002380952380952381 0  0.6279166666666667 0.002380952380952381 0  0.6325000000000001 0.002380952380952381 0  0.6370833333333333 0.002380952380952381 0  0.6416666666666666 0.002380952380952381 0  0.64625 0.002380952380952381 0  0.6508333333333334 0.002380952380952381 0  0.6554166666666666 0.002380952380952381 0  0.6599999999999999 0.002380952380952381 0  0.6645833333333334 0.002380952380952381 0  0.6691666666666667 0.002380952380952381 0  0.67375 0.002380952380952381 0  0.6783333333333333 0.002380952380952381 0  0.6829166666666667 0.002380952380952381 0  0.6875 0.002380952380952381 0  0.6920833333333333 0.002380952380952381 0  0.6966666666666667 0.002380952380952381 0  0.70125 0.002380952380952381 0  0.7058333333333333 0.002380952380952381 0  0.7104166666666667 0.002380952380952381 0  0.7150000000000001 0.002380952380952381 
[...]
<PointData  Scalars="concentration"> 
<DataArray  type="Float64"  Name="concentration"  format="ascii">0.0000000000000000e+00  1.3182035923718178e-07  1.5845273343140469e-07  2.9074736877737297e-07  2.9508589543860543e-07  4.8650946256717754e-07  4.8232607586970522e-07  7.8467101607060780e-07  7.7421654667355957e-07  1.2595502743935936e-06  1.2403827103154727e-06  2.0221131667949775e-06  1.9883059340812133e-06  3.2491509441177953e-06  3.1900375639546548e-06  5.2259025978805909e-06  5.1229742307711640e-06  8.4141256685860392e-06  8.2353940348144460e-06  1.3562836165737034e-05  1.3252926794749574e-05  2.1889449602687040e-05  2.1352175896957757e-05  3.5377157109042441e-05  3.4444666126927771e-05  5.7264980186459802e-05  5.5642686107025327e-05  9.2858911995179555e-05  9.0026360872615788e-05  1.5088157992369685e-04  1.4591230244727290e-04  2.4573223693225200e-04  2.3696303674515114e-04  4.0130070068985683e-04  3.8571759507726551e-04  6.5746692734717572e-04  6.2954990665666801e-04  1.0813168556947088e-03  1.0308321614224713e-03  1.7868169808738042e-03  1.6945159467770324e-03  2.9700963919038364e-03  2.7991306234944778e-03  4.9746696429190974e-03  4.6529188243073236e-03  8.4173045245728908e-03  7.7995088469539134e-03  1.4446541629652128e-02  1.3228799411450965e-02  2.5324916803867024e-02  2.2839442569200681e-02  4.5928185668546950e-02  4.0653513591055061e-02  8.9063875567593265e-02  7.2550245045383752e-02  3.9905127959232223e-01  3.3665143244659773e-01  8.4147908981073272e-01  1.1645780418844573e+00  1.0977195828834272e+00  1.0489695984234852e+00  1.0289655179223187e+00  1.0173512505203812e+00  1.0105622891947359e+00  1.0064860560128812e+00  1.0040080597509735e+00  1.0024881911054717e+00  1.0015500709227463e+00  1.0009682736316041e+00  1.0006061408391895e+00  1.0003800920304897e+00  1.0002386699157395e+00  1.0001500326502646e+00  1.0000943978929218e+00  1.0000594366998534e+00  1.0000374459264454e+00  1.0000236028688272e+00  1.0000148832244939e+00  1.0000093879361143e+00  1.0000059232304965e+00  1.0000037380211737e+00  1.0000023594048417e+00  1.0000014894529807e+00  1.0000009403798003e+00  1.0000005937758583e+00  1.0000003749529647e+00  1.0000002367880070e+00  1.0000001495429780e+00  1.0000000944477148e+00  1.0000000596530227e+00  1.0000000376778455e+00  1.0000000237985194e+00  1.0000000150321813e+00  1.0000000094951271e+00  1.0000000059976999e+00  1.0000000037885504e+00  1.0000000023931201e+00  1.0000000015116757e+00  1.0000000009548922e+00  1.0000000006031866e+00  1.0000000003810219e+00  1.0000000002406837e+00  1.0000000001520366e+00  1.0000000000960387e+00  1.0000000000606672e+00  1.0000000000383227e+00  1.0000000000242075e+00  1.0000000000152920e+00  1.0000000000096598e+00  1.0000000000061022e+00  1.0000000000038558e+00  1.0000000000024363e+00  1.0000000000015385e+00  1.0000000000009732e+00  1.0000000000006153e+00  1.0000000000003892e+00  1.0000000000002469e+00  1.0000000000001563e+00  1.0000000000000990e+00  1.0000000000000624e+00  1.0000000000000402e+00  1.0000000000000253e+00  1.0000000000000167e+00  1.0000000000000120e+00  1.0000000000000075e+00  1.0000000000000060e+00  1.0000000000000038e+00  1.0000000000000036e+00  1.0000000000000018e+00  1.0000000000000022e+00  1.0000000000000018e+00  1.0000000000000027e+00  1.0000000000000011e+00  1.0000000000000018e+00  1.0000000000000000e+00  1.0000000000000009e+00  1.0000000000000016e+00  1.0000000000000013e+00  1.0000000000000011e+00  1.0000000000000011e+00  1.0000000000000016e+00  1.0000000000000016e+00  1.0000000000000024e+00  1.0000000000000016e+00  1.0000000000000020e+00  1.0000000000000027e+00  1.0000000000000027e+00  1.0000000000000022e+00  1.0000000000000022e+00  1.0000000000000016e+00  1.0000000000000024e+00  1.0000000000000024e+00  1.0000000000000024e+00  1.0000000000000024e+00  1.0000000000000022e+00  1.0000000000000016e+00  1.0000000000000013e+00  1.0000000000000007e+00  1.0000000000000018e+00  1.0000000000000031e+00  1.0000000000000020e+00  1.0000000000000022e+00  1.0000000000000011e+00  1.0000000000000016e+00  1.0000000000000022e+00  1.0000000000000018e+00  1.0000000000000016e+00  1.0000000000000013e+00  1.0000000000000009e+00  0.0000000000000000e+00  2.6436651842547744e-08  1.4221481740340823e-07  1.5217418059561463e-07  3.0024546596333636e-07  2.9056343616859275e-07  5.1124253716242112e-07  4.8340601235332825e-07  8.3069650373419425e-07  7.7929753461847884e-07  1.3348039203197835e-06  1.2469024260021377e-06  2.1398692120924716e-06  1.9920646131135831e-06  3.4302782728944803e-06  3.1825407233685843e-06  5.5017566163199385e-06  5.0863723084923998e-06  8.8304639413005823e-06  8.1329024734030942e-06  1.4184582077065780e-05  1.3010516444005810e-05  2.2805334133252011e-05  2.0823543681912035e-05  3.6701460080339345e-05  3.3344274250455283e-05  5.9129504349852920e-05  5.3417719876051639e-05  9.5379374022368384e-05  8.5611312805416786e-05  1.5406334140675242e-04  1.3725639643284254e-04  2.4923908279753223e-04  2.2011361923396795e-04  4.0392194302941108e-04  3.5302395554214584e-04  6.5592647157993486e-04  5.6609418389817767e-04  1.0676452215049564e-03  9.0720485258649402e-04  1.7425508507244592e-03  1.4518297487740976e-03  2.8533276549536643e-03  2.3169079314998764e-03  4.6904508311318097e-03  3.6772211183239796e-03  7.7474631513836526e-03  5.7722466681144570e-03  1.2873611529823066e-02  8.8471712460214836e-03  2.1550069704943827e-02  1.2774460003410896e-02  3.6323510359738333e-02  1.5167851776512737e-02  6.0168836381807658e-02  -5.1280763691378482e-02  3.4403168548218482e-02  -4.0556991780437021e-02  1.1608247674666479e-01  5.1004614846919061e-01  6.9297009433575230e-01  8.0773355586817119e-01  8.7915215244434997e-01  9.2393111622492619e-01  9.5207044551602515e-01  9.6978073182386260e-01  9.8093810325342856e-01  9.8797193789976834e-01  9.9240835946033190e-01  9.9520752499920762e-01  9.9697413708221738e-01  9.9808931275319090e-01  9.9879338104775450e-01  9.9923795159025020e-01  9.9951869497916046e-01  9.9969599652763452e-01  9.9980797712077729e-01  9.9987870568006199e-01  9.9992338065920605e-01  9.9995160007077843e-01  9.9996942561607027e-01  9.9998068583229183e-01  9.9998779891496870e-01  9.9999229231132081e-01  9.9999513085866498e-01  9.9999692402722828e-01  9.9999805681576437e-01  9.9999877242950785e-01  9.9999922450405432e-01  9.9999951009375876e-01  9.9999969051006798e-01  9.9999980448503356e-01  9.9999987648683508e-01  9.9999992197277909e-01  9.9999995070776138e-01  9.9999996886058840e-01  9.9999998032831339e-01  9.9999998757283359e-01  9.9999999214941815e-01  9.9999999504058112e-01  9.9999999686701102e-01  9.9999999802081752e-01  9.9999999874970535e-01  9.9999999921016358e-01  9.9999999950104468e-01  9.9999999968480124e-01  9.9999999980088494e-01  9.9999999987421673e-01  9.9999999992054178e-01  9.9999999994980571e-01  9.9999999996829181e-01  9.9999999997997002e-01  9.9999999998734834e-01  9.9999999999200750e-01  9.9999999999495170e-01  9.9999999999681177e-01  9.9999999999798628e-01  9.9999999999872924e-01  9.9999999999919797e-01  9.9999999999949452e-01  9.9999999999968081e-01  9.9999999999979927e-01  9.9999999999987366e-01  9.9999999999992040e-01  9.9999999999995104e-01  9.9999999999996902e-01  9.9999999999998157e-01  9.9999999999998834e-01  9.9999999999999445e-01  9.9999999999999667e-01  9.9999999999999911e-01  9.9999999999999933e-01  1.0000000000000013e+00  1.0000000000000007e+00  1.0000000000000024e+00  1.0000000000000024e+00  1.0000000000000016e+00  1.0000000000000020e+00  1.0000000000000020e+00  1.0000000000000020e+00  1.0000000000000013e+00  1.0000000000000016e+00  1.0000000000000007e+00  1.0000000000000020e+00  1.0000000000000018e+00  1.0000000000000016e+00  1.0000000000000018e+00  1.0000000000000022e+00  1.0000000000000018e+00  1.0000000000000024e+00  1.0000000000000016e+00  1.0000000000000013e+00  1.0000000000000011e+00  1.0000000000000011e+00  1.0000000000000013e+00  1.0000000000000018e+00  1.0000000000000018e+00  1.0000000000000022e+00  1.0000000000000018e+00  1.0000000000000009e+00  1.0000000000000018e+00  1.0000000000000016e+00  1.0000000000000020e+00  1.0000000000000016e+00  1.0000000000000016e+00  1.0000000000000013e+00  1.0000000000000016e+00  1.0000000000000016e+00  1.0000000000000011e+00  0.0000000000000000e+00  8.4246125377432669e-08  7.6775514860520262e-08  1.7693743593957210e-07  1.4805663052394429e-07  2.9778818302550146e-07  2.4360716182557360e-07  4.7935865088922498e-07  3.8741037033741618e-07  7.6362866692525929e-07  6.1068253674610124e-07  1.2132940725813975e-06  9.5975333577848758e-07  1.9262678179353672e-06  1.5057834074346055e-06  3.0571286006932269e-06  2.3587291833402134e-06  4.8504356414172071e-06  3.6881590861387717e-06  7.6930538501136119e-06  5.7542786194461261e-06  1.2196428961641761e-05  8.9535556910715324e-06  1.9325720677845148e-05  1.3884295305315936e-05  3.0601825598699588e-05  2.1437531423675601e-05  4.8415980049692113e-05  3.2915532735478411e-05  7.6516527048877547e-05  5.0168914286005911e-05  1.2075514845774450e-04  7.5711819153630961e-05  1.9021540539820644e-04  1.1269519204774308e-04  2.9888401462440051e-04  1.6442658471420589e-04  4.6804207924885054e-04  2.3266996182733429e-04  7.2947997069189611e-04  3.1287507372752355e-04  1.1292812975939226e-03  3.8185601131273929e-04  1.7307482965461338e-03  3.6684085760723502e-04  2.6115999364466798e-03  6.7398692308830985e-05  3.8407611641357361e-03  -1.0477600220863573e-03  5.3914193444150223e-03  -4.4041243832349617e-03  6.8497034153698691e-03  -1.4072051765815011e-02  6.2523571406884670e-03  -4.9002975940239113e-02  2.3216986220075453e-02  -3.2760859460387405e-02  1.7562185967462243e-01  5.1699523548863524e-01  7.0692751469187720e-01  8.1693574375495925e-01  8.8478200227106096e-01  9.2728866808230470e-01  9.5404945452970913e-01  9.7093757456787688e-01  9.8160931905025817e-01  9.8835834506415665e-01  9.9262881944574277e-01  9.9533195333494384e-01  9.9704342327479489e-01  9.9812722748761917e-01  9.9881364991029120e-01  9.9924843694273369e-01  9.9952385710583680e-01  9.9969833533193753e-01  9.9980887225776283e-01  9.9987890317866890e-01  9.9992327275517590e-01  9.9995138471649558e-01  9.9996919641810578e-01  9.9998048206572243e-01  9.9998763284060044e-01  9.9999216373833022e-01  9.9999503464539252e-01  9.9999685374748160e-01  9.9999800639771697e-01  9.9999873676299345e-01  9.9999919955349725e-01  9.9999949279823197e-01  9.9999967861172134e-01  9.9999979635205993e-01  9.9999987095814002e-01  9.9999991823230694e-01  9.9999994818764615e-01  9.9999996716890738e-01  9.9999997919643913e-01  9.9999998681772428e-01  9.9999999164698339e-01  9.9999999470706458e-01  9.9999999664610062e-01  9.9999999787478056e-01  9.9999999865334044e-01  9.9999999914668103e-01  9.9999999945928786e-01  9.9999999965737474e-01  9.9999999978289345e-01  9.9999999986242882e-01  9.9999999991282718e-01  9.9999999994476274e-01  9.9999999996499878e-01  9.9999999997782163e-01  9.9999999998594691e-01  9.9999999999109501e-01  9.9999999999435840e-01  9.9999999999642530e-01  9.9999999999773492e-01  9.9999999999856526e-01  9.9999999999909095e-01  9.9999999999942457e-01  9.9999999999963551e-01  9.9999999999976963e-01  9.9999999999985412e-01  9.9999999999990785e-01  9.9999999999994227e-01  9.9999999999996303e-01  9.9999999999997757e-01  9.9999999999998590e-01  9.9999999999999190e-01  9.9999999999999400e-01  9.9999999999999656e-01  9.9999999999999767e-01  9.9999999999999933e-01  9.9999999999999878e-01  1.0000000000000009e+00  9.9999999999999967e-01  9.9999999999999889e-01  9.9999999999999989e-01  9.9999999999999978e-01  1.0000000000000007e+00  1.0000000000000009e+00  1.0000000000000016e+00  1.0000000000000009e+00  1.0000000000000016e+00  1.0000000000000007e+00  1.0000000000000016e+00  1.0000000000000013e+00  1.0000000000000007e+00  1.0000000000000002e+00  1.0000000000000002e+00  9.9999999999999956e-01  1.0000000000000004e+00  1.0000000000000013e+00  1.0000000000000013e+00  1.0000000000000007e+00  1.0000000000000007e+00  1.0000000000000009e+00  1.0000000000000018e+00  1.0000000000000013e+00  1.0000000000000022e+00  1.0000000000000022e+00  1.0000000000000007e+00  1.0000000000000013e+00  1.0000000000000009e+00  1.0000000000000016e+00  1.0000000000000009e+00  1.0000000000000007e+00  1.0000000000000000e+00  1.0000000000000000e+00  1.0000000000000002e+00  0.0000000000000000e+00  -7.4518863335528342e-09  6.7291798963343475e-08  3.3660469246038751e-08  1.3552704655554040e-07  6.9396496867996597e-08  2.2491953857038317e-07  1.1186360404672681e-07  3.5729511725539930e-07  1.6978560804602842e-07  5.6069238995296999e-07  2.5167948466916463e-07  8.7594940647709938e-07  3.6698360839066672e-07  1.3648749160640680e-06  5.2575738623496388e-07  2.1217373346475144e-06  7.3626793892886183e-07  3.2900507131832893e-06  9.9848302692226334e-07  5.0871614525384069e-06  1.2892827334962459e-06  7.8398579146035318e-06  1.5311087132012279e-06  1.2034956284143386e-05  1.5280307169439359e-06  1.8389162007204492e-05  8.3855956138446239e-07  2.7941599653070724e-05  -1.4731541079299886e-06  4.2168478244517861e-05  -7.3183599818397210e-06  6.3109094194687066e-05  -2.0506190756152119e-05  9.3470198809395973e-05  -4.8502638348045082e-05  1.3663428863188543e-04  -1.0577099833996248e-04  1.9643402245343865e-04  -2.2009486247045047e-04  2.7650378340658872e-04  -4.4450065128771486e-04  3.7917911303954539e-04  -8.7958243895358502e-04  5.0514248985273290e-04  -1.7146463968525983e-03  6.6076911174979785e-04  -3.3005224573699190e-03  9.0465875665293228e-04  -6.2634178951336264e-03  1.5724265895613338e-03  -1.1593523541268478e-02  4.3881145376170848e-03  -2.0129165212722320e-02  2.5632145699283047e-02  -2.1196684037971689e-02  1.3928716330683561e-02  2.2247572613670535e-01  4.8360172719275774e-01  6.6560433334675706e-01  7.8799339579047190e-01  8.6595317488581824e-01  9.1525274462068795e-01  9.4640880461799182e-01  9.6610185232390833e-01  9.7855352026746267e-01  9.8642891128150600e-01  9.9141113617968857e-01  9.9456366628960624e-01  9.9655875430708007e-01  9.9782150544818382e-01  9.9862081583105478e-01  9.9912681126730662e-01  9.9944714637221233e-01  9.9964995386793531e-01  9.9977835854280606e-01  9.9985965876120009e-01  9.9991113584912883e-01  9.9994373043510099e-01  9.9996436923665666e-01  9.9997743785233606e-01  9.9998571307448114e-01  9.9999095310442410e-01  9.9999427121725148e-01  9.9999637233882110e-01  9.9999770283415235e-01  9.9999854534839416e-01  9.9999907885834838e-01  9.9999941669666259e-01  9.9999963062885366e-01  9.9999976609914287e-01  9.9999985188436435e-01  9.9999990620705836e-01  9.9999994060641961e-01  9.9999996238952038e-01  9.9999997618348302e-01  9.9999998491839626e-01  9.9999999044970567e-01  9.9999999395236105e-01  9.9999999617038715e-01  9.9999999757493363e-01  9.9999999846434950e-01  9.9999999902756387e-01  9.9999999938421558e-01  9.9999999961006025e-01  9.9999999975307452e-01  9.9999999984363752e-01  9.9999999990098565e-01  9.9999999993730093e-01  9.9999999996029632e-01  9.9999999997485800e-01  9.9999999998407918e-01  9.9999999998991917e-01  9.9999999999361544e-01  9.9999999999595746e-01  9.9999999999743983e-01  9.9999999999837841e-01  9.9999999999897360e-01  9.9999999999935030e-01  9.9999999999958888e-01  9.9999999999973954e-01  9.9999999999983558e-01  9.9999999999989631e-01  9.9999999999993405e-01  9.9999999999995925e-01  9.9999999999997380e-01  9.9999999999998346e-01  9.9999999999998945e-01  9.9999999999999434e-01  9.9999999999999623e-01  9.9999999999999789e-01  9.9999999999999745e-01  9.9999999999999889e-01  9.9999999999999623e-01  9.9999999999999889e-01  1.0000000000000007e+00  1.0000000000000000e+00  1.0000000000000016e+00  1.0000000000000011e+00  1.0000000000000013e+00  1.0000000000000009e+00  1.0000000000000013e+00  1.0000000000000004e+00  1.0000000000000011e+00  1.0000000000000004e+00  1.0000000000000007e+00  1.0000000000000011e+00  1.0000000000000013e+00  1.0000000000000011e+00  1.0000000000000013e+00  1.0000000000000016e+00  1.0000000000000000e+00  1.0000000000000000e+00  1.0000000000000007e+00  1.0000000000000007e+00  1.0000000000000011e+00  1.0000000000000002e+00  1.0000000000000018e+00  1.0000000000000011e+00  1.0000000000000007e+00  1.0000000000000016e+00  1.0000000000000004e+00  1.0000000000000007e+00  9.9999999999999956e-01  1.0000000000000002e+00  1.0000000000000011e+00  1.0000000000000016e+00  1.0000000000000018e+00  1.0000000000000016e+00  0.0000000000000000e+00  3.7301321085187596e-08  -8.6947090074346375e-09  5.3141586838422759e-08  -1.9046396063680967e-08  8.0407241673919173e-08  -3.6590804877940217e-08  1.2240189777438644e-07  -6.8147381104531820e-08  1.8585331060688627e-07  -1.2504690614075472e-07  2.8084631697276859e-07  -2.2699393591725667e-07  4.2195764338896613e-07  -4.0840448769914375e-07  6.2981253534641555e-07  -7.2929227467346846e-07  9.3295970990703948e-07  -1.2940418419788231e-06  1.3698447366715157e-06  -2.2837645935278250e-06  1.9903561748687815e-06  -4.0119835191250694e-06  2.8558702839722616e-06  -7.0202943304501700e-06  4.0358566670237959e-06  -1.2242352282194937e-05  5.5979801070719575e-06  -2.1284242246272803e-05  7.5877837888274856e-06  -3.6902168375268609e-05  9.9955167045296386e-06  -6.3812468135909911e-05  1.2717764554384985e-05  -1.1005588808526588e-04  1.5557933891458774e-05  -1.8927270319559037e-04  1.8419901081576417e-05  -3.2444017460782056e-04  2.2158733334474339e-05  -5.5386843392620248e-04  3.1389532663289338e-05  -9.4044837474992291e-04  6.2777762576429709e-05  -1.5849481474246709e-03  1.6818227223329822e-04  -2.6426294357659911e-03  4.9728799669774713e-04  -4.3379900321850384e-03  1.4632927358290142e-03  -6.9687111879659352e-03  4.1673505218122846e-03  -1.1002998203031238e-02  1.1702398224496362e-02  -2.3535388045646026e-02  2.7603224054096247e-03  -1.7357604069647505e-02  1.3628261929321650e-01  4.7867535612655898e-01  6.7235565827381405e-01  7.9371374958059571e-01  8.6993099004360830e-01  9.1788954835837644e-01  9.4812072548164250e-01  9.6720207177121942e-01  9.7925655434534697e-01  9.8687658461837247e-01  9.9169556943992387e-01  9.9474411676830898e-01  9.9667311989819363e-01  9.9789393600750698e-01  9.9866666412604976e-01  9.9915582193412811e-01  9.9946549763179915e-01  9.9966155970185011e-01  9.9978569708471998e-01  9.9986429836903312e-01  9.9991406878149025e-01  9.9994558431044411e-01  9.9996554095469448e-01  9.9997817836879710e-01  9.9998618104567982e-01  9.9999124882346602e-01  9.9999445807775578e-01  9.9999649040774874e-01  9.9999777743349516e-01  9.9999859248049594e-01  9.9999910863541552e-01  9.9999943550848991e-01  9.9999964251290741e-01  9.9999977360642911e-01  9.9999985662663982e-01  9.9999990920260318e-01  9.9999994249854907e-01  9.9999996358463805e-01  9.9999997693832821e-01  9.9999998539514301e-01  9.9999999075080237e-01  9.9999999414251650e-01  9.9999999629047576e-01  9.9999999765076908e-01  9.9999999851223975e-01  9.9999999905780579e-01  9.9999999940331097e-01  9.9999999962211905e-01  9.9999999976068921e-01  9.9999999984844523e-01  9.9999999990402078e-01  9.9999999993921640e-01  9.9999999996150657e-01  9.9999999997562250e-01  9.9999999998456257e-01  9.9999999999022293e-01  9.9999999999380962e-01  9.9999999999607936e-01  9.9999999999751765e-01  9.9999999999842792e-01  9.9999999999900269e-01  9.9999999999936839e-01  9.9999999999959988e-01  9.9999999999974698e-01  9.9999999999984002e-01  9.9999999999989886e-01  9.9999999999993627e-01  9.9999999999995903e-01  9.9999999999997469e-01  9.9999999999998412e-01  9.9999999999999012e-01  9.9999999999999334e-01  9.9999999999999600e-01  9.9999999999999711e-01  9.9999999999999911e-01  9.9999999999999900e-01  1.0000000000000016e+00  1.0000000000000004e+00  9.9999999999999978e-01  1.0000000000000011e+00  1.0000000000000007e+00  1.0000000000000013e+00  1.0000000000000007e+00  1.0000000000000016e+00  1.0000000000000013e+00  1.0000000000000022e+00  1.0000000000000016e+00  1.0000000000000016e+00  1.0000000000000016e+00  1.0000000000000013e+00  1.0000000000000013e+00  1.0000000000000011e+00  1.0000000000000011e+00  9.9999999999999989e-01 