<?xml version="1.0"?>
<VTKFile type="UnstructuredGrid"  version="0.1"  >
<UnstructuredGrid>
<Piece  NumberOfPoints="21400" NumberOfCells="42336">
<Points>
<DataArray  type="Float64"  NumberOfComponents="3"  format="ascii">0 0 0  0.004583333333333333 0 0  0.009166666666666667 0 0  0.01375 0 0  0.01833333333333333 0 0  0.02291666666666667 0 0  0.0275 0 0  0.03208333333333334 0 0  0.03666666666666667 0 0  0.04125 0 0  0.04583333333333334 0 0  0.05041666666666667 0 0  0.055 0 0  0.05958333333333334 0 0  0.06416666666666668 0 0  0.06875000000000001 0 0  0.07333333333333333 0 0  0.07791666666666666 0 0  0.08249999999999999 0 0  0.08708333333333333 0 0  0.09166666666666667 0 0  0.09625000000000002 0 0  0.1008333333333333 0 0  0.1054166666666667 0 0  0.11 0 0  0.1145833333333333 0 0  0.1191666666666667 0 0  0.12375 0 0  0.1283333333333334 0 0  0.1329166666666667 0 0  0.1375 0 0  0.1420833333333333 0 0  0.1466666666666667 0 0  0.15125 0 0  0.1558333333333333 0 0  0.1604166666666667 0 0  0.165 0 0  0.1695833333333333 0 0  0.1741666666666667 0 0  0.17875 0 0  0.1833333333333333 0 0  0.1879166666666667 0 0  0.1925 0 0  0.1970833333333333 0 0  0.2016666666666667 0 0  0.20625 0 0  0.2108333333333333 0 0  0.2154166666666666 0 0  0.22 0 0  0.2245833333333334 0 0  0.2291666666666667 0 0  0.23375 0 0  0.2383333333333333 0 0  0.2429166666666667 0 0  0.2475 0 0  0.2520833333333333 0 0  0.2566666666666667 0 0  0.26125 0 0  0.2658333333333334 0 0  0.2704166666666666 0 0  0.275 0 0  0.2795833333333334 0 0  0.2841666666666667 0 0  0.28875 0 0  0.2933333333333333 0 0  0.2979166666666667 0 0  0.3025 0 0  0.3070833333333334 0 0  0.3116666666666666 0 0  0.31625 0 0  0.3208333333333333 0 0  0.3254166666666667 0 0  0.33 0 0  0.3345833333333333 0 0  0.3391666666666667 0 0  0.34375 0 0  0.3483333333333333 0 0  0.3529166666666667 0 0  0.3575 0 0  0.3620833333333333 0 0  0.3666666666666667 0 0  0.37125 0 0  0.3758333333333334 0 0  0.3804166666666667 0 0  0.3850000000000001 0 0  0.3895833333333333 0 0  0.3941666666666667 0 0  0.39875 0 0  0.4033333333333334 0 0  0.4079166666666666 0 0  0.4125 0 0  0.4170833333333334 0 0  0.4216666666666667 0 0  0.42625 0 0  0.4308333333333333 0 0  0.4354166666666667 0 0  0.44 0 0  0.4445833333333333 0 0  0.4491666666666667 0 0  0.45375 0 0  0.4583333333333333 0 0  0.4629166666666666 0 0  0.4675 0 0  0.4720833333333334 0 0  0.4766666666666667 0 0  0.4812500000000001 0 0  0.4858333333333333 0 0  0.4904166666666667 0 0  0.495 0 0  0.4995833333333334 0 0  0.5041666666666667 0 0  0.50875 0 0  0.5133333333333334 0 0  0.5179166666666667 0 0  0.5225 0 0  0.5270833333333333 0 0  0.5316666666666667 0 0  0.53625 0 0  0.5408333333333333 0 0  0.5454166666666667 0 0  0.55 0 0  0.5545833333333333 0 0  0.5591666666666667 0 0  0.5637500000000001 0 0  0.5683333333333334 0 0  0.5729166666666666 0 0  0.5775 0 0  0.5820833333333334 0 0  0.5866666666666667 0 0  0.5912499999999999 0 0  0.5958333333333334 0 0  0.6004166666666667 0 0  0.605 0 0  0.6095833333333334 0 0  0.6141666666666667 0 0  0.61875 0 0  0.6233333333333333 0 0  0.6279166666666667 0 0  0.6325000000000001 0 0  0.6370833333333333 0 0  0.6416666666666666 0 0  0.64625 0 0  0.6508333333333334 0 0  0.6554166666666666 0 0  0.6599999999999999 0 0  0.6645833333333334 0 0  0.6691666666666667 0 0  0.67375 0 0  0.6783333333333333 0 0  0.6829166666666667 0 0  0.6875 0 0  0.6920833333333333 0 0  0.6966666666666667 0 0  0.70125 0 0  0.7058333333333333 0 0  0.7104166666666667 0 0  0.7150000000000001 0 0  0.7195833333333334 0 0  0.7241666666666666 0 0  0.72875 0 0  0.7333333333333334 0 0  0.7379166666666667 0 0  0.7425 0 0  0.7470833333333333 0 0  0.7516666666666667 0 0  0.75625 0 0  0.7608333333333334 0 0  0.7654166666666666 0 0  0.7700000000000001 0 0  0 0.002380952380952381 0  0.004583333333333333 0.002380952380952381 0  0.009166666666666667 0.002380952380952381 0  0.01375 0.002380952380952381 0  0.01833333333333333 0.002380952380952381 0  0.02291666666666667 0.002380952380952381 0  0.0275 0.002380952380952381 0  0.03208333333333334 0.002380952380952381 0  0.03666666666666667 0.002380952380952381 0  0.04125 0.002380952380952381 0  0.04583333333333334 0.002380952380952381 0  0.05041666666666667 0.002380952380952381 0  0.055 0.002380952380952381 0  0.05958333333333334 0.002380952380952381 0  0.06416666666666668 0.002380952380952381 0  0.06875000000000001 0.002380952380952381 0  0.07333333333333333 0.002380952380952381 0  0.07791666666666666 0.002380952380952381 0  0.08249999999999999 0.002380952380952381 0  0.08708333333333333 0.002380952380952381 0  0.09166666666666667 0.002380952380952381 0  0.09625000000000002 0.002380952380952381 0  0.1008333333333333 0.002380952380952381 0  0.1054166666666667 0.002380952380952381 0  0.11 0.002380952380952381 0  0.1145833333333333 0.002380952380952381 0  0.1191666666666667 0.002380952380952381 0  0.12375 0.002380952380952381 0  0.1283333333333334 0.002380952380952381 0  0.1329166666666667 0.002380952380952381 0  0.1375 0.002380952380952381 0  0.1420833333333333 0.002380952380952381 0  0.1466666666666667 0.002380952380952381 0  0.15125 0.002380952380952381 0  0.1558333333333333 0.002380952380952381 0  0.1604166666666667 0.002380952380952381 0  0.165 0.002380952380952381 0  0.1695833333333333 0.002380952380952381 0  0.1741666666666667 0.002380952380952381 0  0.17875 0.002380952380952381 0  0.1833333333333333 0.002380952380952381 0  0.1879166666666667 0.002380952380952381 0  0.1925 0.002380952380952381 0  0.1970833333333333 0.002380952380952381 0  0.2016666666666667 0.002380952380952381 0  0.20625 0.002380952380952381 0  0.2108333333333333 0.002380952380952381 0  0.2154166666666666 0.002380952380952381 0  0.22 0.002380952380952381 0  0.2245833333333334 0.002380952380952381 0  0.2291666666666667 0.002380952380952381 0  0.23375 0.002380952380952381 0  0.2383333333333333 0.002380952380952381 0  0.2429166666666667 0.002380952380952381 0  0.2475 0.002380952380952381 0  0.2520833333333333 0.002380952380952381 0  0.2566666666666667 0.002380952380952381 0  0.26125 0.002380952380952381 0  0.2658333333333334 0.002380952380952381 0  0.2704166666666666 0.002380952380952381 0  0.275 0.002380952380952381 0  0.2795833333333334 0.002380952380952381 0  0.2841666666666667 0.002380952380952381 0  0.28875 0.002380952380952381 0  0.2933333333333333 0.002380952380952381 0  0.2979166666666667 0.002380952380952381 0  0.3025 0.002380952380952381 0  0.3070833333333334 0.002380952380952381 0  0.3116666666666666 0.002380952380952381 0  0.31625 0.002380952380952381 0  0.3208333333333333 0.002380952380952381 0  0.3254166666666667 0.002380952380952381 0  0.33 0.002380952380952381 0  0.3345833333333333 0.002380952380952381 0  0.3391666666666667 0.002380952380952381 0  0.34375 0.002380952380952381 0  0.3483333333333333 0.002380952380952381 0  0.3529166666666667 0.002380952380952381 0  0.3575 0.002380952380952381 0  0.3620833333333333 0.002380952380952381 0  0.3666666666666667 0.002380952380952381 0  0.37125 0.002380952380952381 0  0.3758333333333334 0.002380952380952381 0  0.3804166666666667 0.002380952380952381 0  0.3850000000000001 0.002380952380952381 0  0.3895833333333333 0.002380952380952381 0  0.3941666666666667 0.002380952380952381 0  0.39875 0.002380952380952381 0  0.4033333333333334 0.002380952380952381 0  0.4079166666666666 0.002380952380952381 0  0.4125 0.002380952380952381 0  0.4170833333333334 0.002380952380952381 0  0.4216666666666667 0.002380952380952381 0  0.42625 0.002380952380952381 0  0.4308333333333333 0.002380952380952381 0  0.4354166666666667 0.002380952380952381 0  0.44 0.002380952380952381 0  0.4445833333333333 0.002380952380952381 0  0.4491666666666667 0.002380952380952381 0  0.45375 0.002380952380952381 0  0.4583333333333333 0.002380952380952381 0  0.4629166666666666 0.002380952380952381 0  0.4675 0.002380952380952381 0  0.4720833333333334 0.002380952380952381 0  0.4766666666666667 0.002380952380952381 0  0.4812500000000001 0.002380952380952381 0  0.4858333333333333 0.002380952380952381 0  0.4904166666666667 0.002380952380952381 0  0.495 0.002380952380952381 0  0.4995833333333334 0.002380952380952381 0  0.5041666666666667 0.002380952380952381 0  0.50875 0.002380952380952381 0  0.5133333333333334 0.002380952380952381 0  0.5179166666666667 0.002380952380952381 0  0.5225 0.002380952380952381 0  0.5270833333333333 0.002380952380952381 0  0.5316666666666667 0.002380952380952381 0  0.53625 0.002380952380952381 0  0.5408333333333333 0.002380952380952381 0  0.5454166666666667 0.002380952380952381 0  0.55 0.002380952380952381 0  0.5545833333333333 0.002380952380952381 0  0.5591666666666667 0.002380952380952381 0  0.5637500000000001 0.002380952380952381 0  0.5683333333333334 0.002380952380952381 0  0.5729166666666666 0.002380952380952381 0  0.5775 0.002380952380952381 0  0.5820833333333334 0.002380952380952381 0  0.5866666666666667 0.002380952380952381 0  0.5912499999999999 0.002380952380952381 0  0.5958333333333334 0.002380952380952381 0  0.6004166666666667 0.002380952380952381 0  0.605 0.002380952380952381 0  0.6095833333333334 0.002380952380952381 0  0.6141666666666667 0.002380952380952381 0  0.61875 0.002380952380952381 0  0.6233333333333333 0.002380952380952381 0  0.6279166666666667 0.002380952380952381 0  0.6325000000000001 0.002380952380952381 0  0.6370833333333333 0.002380952380952381 0  0.6416666666666666 0.002380952380952381 0  0.64625 0.002380952380952381 0  0.6508333333333334 0.002380952380952381 0  0.6554166666666666 0.002380952380952381 0  0.6599999999999999 0.002380952380952381 0  0.6645833333333334 0.002380952380952381 0  0.6691666666666667 0.002380952380952381 0  0.67375 0.002380952380952381 0  0.6783333333333333 0.002380952380952381 0  0.6829166666666667 0.002380952380952381 0  0.6875 0.002380952380952381 0  0.6920833333333333 0.002380952380952381 0  0.6966666666666667 0.002380952380952381 0  0.70125 0.002380952380952381 0  0.7058333333333333 0.002380952380952381 0  0.7104166666666667 0.002380952380952381 0  0.7150000000000001 0.002380952380952381 
[...]
<PointData  Scalars="concentration"> 
<DataArray  type="Float64"  Name="concentration"  format="ascii">0.0000000000000000e+00  4.2149592391719988e-10  1.0402380713829294e-09  1.2461325337405043e-09  1.9631252971899026e-09  2.1361564265390521e-09  3.2023185115863744e-09  3.4304268667282348e-09  5.1125847486989003e-09  5.4546340613519677e-09  8.1381895723775863e-09  8.6636425649430046e-09  1.2954058791394632e-08  1.3764196943269695e-08  2.0628202989528846e-08  2.1877674476423334e-08  3.2863657983740401e-08  3.4790677831068537e-08  5.2380839787856766e-08  5.5353124197460161e-08  8.3528792688118296e-08  8.8114630333634591e-08  1.3326498450622719e-07  1.4034373411351802e-07  2.1272779140177656e-07  2.2366218742528449e-07  3.3976287729795244e-07  3.5666851318559904e-07  5.4298668172867184e-07  5.6915486235368278e-07  8.6833032267252965e-07  9.0889400616254505e-07  1.3895924928177615e-06  1.4525793340171584e-06  2.2254835032773818e-06  2.3234884648444791e-06  3.5672005845360714e-06  3.7200556500720935e-06  5.7231280029159976e-06  5.9621861747818778e-06  9.1914557666409234e-06  9.5665056312954032e-06  1.4778448600679397e-05  1.5368946540540645e-05  2.3791612471632208e-05  2.4725059256551500e-05  3.8356227944372020e-05  3.9838477662139152e-05  6.1936019268316988e-05  6.4301736394675645e-05  1.0019343247005045e-04  1.0399101834358971e-04  1.6241852609876519e-04  1.6855496375240125e-04  2.6391723373977863e-04  2.7390915363792147e-04  4.3003346593219535e-04  4.4645114413755839e-04  7.0298591521574547e-04  7.3025840859478758e-04  1.1536245579515281e-03  1.1995465756894635e-03  1.9019471671811211e-03  1.9806147220884428e-03  3.1535993360065346e-03  3.2914319428161555e-03  5.2665174931711646e-03  5.5154800882298372e-03  8.8771013285422577e-03  9.3465270037592259e-03  1.5152012116713928e-02  1.6095649083736240e-02  2.6332347820382386e-02  2.8433135454553671e-02  4.7060148105221043e-02  5.2743132674708024e-02  8.7889249049136725e-02  1.0283186852191148e-01  3.8833841653375684e-01  5.3698004358425255e-01  8.4238088195388738e-01  9.6463291053630162e-01  9.8497489478156286e-01  9.9621798773871317e-01  1.0003184549772288e+00  1.0016755062711276e+00  1.0018579091961002e+00  1.0016098051591054e+00  1.0012546959307953e+00  1.0009220434049118e+00  1.0006528136097026e+00  1.0004505649853064e+00  1.0003053158813624e+00  1.0002040714222518e+00  1.0001349718362733e+00  1.0000885371554387e+00  1.0000576983037839e+00  1.0000374033908370e+00  1.0000241433871950e+00  1.0000155296349720e+00  1.0000099601924182e+00  1.0000063728366941e+00  1.0000040694056633e+00  1.0000025942093300e+00  1.0000016514760901e+00  1.0000010500982044e+00  1.0000006670502897e+00  1.0000004233753423e+00  1.0000002685265028e+00  1.0000001702121615e+00  1.0000001078389227e+00  1.0000000682928847e+00  1.0000000432333145e+00  1.0000000273607863e+00  1.0000000173111439e+00  1.0000000109503266e+00  1.0000000069254356e+00  1.0000000043792303e+00  1.0000000027687899e+00  1.0000000017503770e+00  1.0000000011064485e+00  1.0000000006993492e+00  1.0000000004420038e+00  1.0000000002793388e+00  1.0000000001765288e+00  1.0000000001115532e+00  1.0000000000704912e+00  1.0000000000445433e+00  1.0000000000281448e+00  1.0000000000177836e+00  1.0000000000112375e+00  1.0000000000070999e+00  1.0000000000044862e+00  1.0000000000028362e+00  1.0000000000017912e+00  1.0000000000011329e+00  1.0000000000007168e+00  1.0000000000004532e+00  1.0000000000002864e+00  1.0000000000001816e+00  1.0000000000001146e+00  1.0000000000000735e+00  1.0000000000000471e+00  1.0000000000000295e+00  1.0000000000000202e+00  1.0000000000000129e+00  1.0000000000000095e+00  1.0000000000000073e+00  1.0000000000000056e+00  1.0000000000000044e+00  1.0000000000000040e+00  1.0000000000000036e+00  1.0000000000000020e+00  1.0000000000000018e+00  1.0000000000000011e+00  1.0000000000000020e+00  1.0000000000000022e+00  1.0000000000000013e+00  1.0000000000000024e+00  1.0000000000000013e+00  1.0000000000000020e+00  1.0000000000000018e+00  1.0000000000000024e+00  1.0000000000000011e+00  1.0000000000000022e+00  1.0000000000000009e+00  1.0000000000000016e+00  1.0000000000000009e+00  1.0000000000000004e+00  0.0000000000000000e+00  4.4042804786651596e-10  6.3210534578195011e-10  1.2027390499435993e-09  1.3331214466412347e-09  2.1315890494385886e-09  2.2567277396880187e-09  3.4799998709437254e-09  3.6361863681695268e-09  5.5679276346872522e-09  5.7872540959875238e-09  8.8649020801241458e-09  9.1841152203615537e-09  1.4100224934143363e-08  1.4567753072896253e-08  2.2427686860122379e-08  2.3110366599074869e-08  3.5682711951944416e-08  3.6673191334460328e-08  5.6790282496539692e-08  5.8215390744698748e-08  9.0415464364944418e-08  9.2444937962471284e-08  1.4400278864504084e-07  1.4685620455004141e-07  2.2943857287176184e-07  2.3338542201275760e-07  3.6571161321207501e-07  3.7105386775423649e-07  5.8317516289492428e-07  5.9019115294543633e-07  9.3037955623671763e-07  9.3918831953664929e-07  1.4850358774657699e-06  1.4953048263396778e-06  2.3716257792709412e-06  2.3819777785297876e-06  3.7897172630315481e-06  3.7965708594046086e-06  6.0595502145433373e-06  6.0549025612219147e-06  9.6955229082278089e-06  9.6627734668679040e-06  1.5524833097258858e-05  1.5430988650088048e-05  2.4879337696320296e-05  2.4660538043767686e-05  3.9906393317633542e-05  3.9441090144223843e-05  6.4073509078851239e-05  6.3132745153812126e-05  1.0298956235354906e-04  1.0114456329258648e-04  1.6574463891888411e-04  1.6219428862434385e-04  2.6710240190970280e-04  2.6034903958442802e-04  4.3109907879356418e-04  4.1833395319709152e-04  6.9697253081749718e-04  6.7289765582644490e-04  1.1289666345660652e-03  1.0835028199168062e-03  1.8326026263775824e-03  1.7463444441786109e-03  2.9817514581915727e-03  2.8167235219934061e-03  4.8636198512687539e-03  4.5438333323416132e-03  7.9524963524588727e-03  7.3211808040046225e-03  1.3023820834776290e-02  1.1743771455825211e-02  2.1285642302601666e-02  1.8591879244485118e-02  3.4125961877071447e-02  2.8732838153770753e-02  4.6653250961433711e-02  -1.0436264639869628e-02  -7.3127969315590111e-02  1.0066304396962693e-01  4.6263734122742123e-01  6.5803694947123514e-01  7.8448029954830656e-01  8.6396017056134766e-01  9.1408233862380339e-01  9.4570761095623579e-01  9.6568009609323047e-01  9.7830101113322876e-01  9.8627939343186311e-01  9.9132403920259560e-01  9.9451402593577232e-01  9.9653126596550590e-01  9.9780687385828803e-01  9.9861347044757565e-01  9.9912346924413209e-01  9.9944591226180468e-01  9.9964976074405332e-01  9.9977862533309403e-01  9.9986008318971953e-01  9.9991157138720110e-01  9.9994411456216037e-01  9.9996468255348303e-01  9.9997768142602961e-01  9.9998589634573531e-01  9.9999108777116430e-01  9.9999436840104783e-01  9.9999644148392586e-01  9.9999775146866665e-01  9.9999857923380342e-01  9.9999910228041711e-01  9.9999943277697401e-01  9.9999964160441657e-01  9.9999977355247083e-01  9.9999985692323889e-01  9.9999990960018192e-01  9.9999994288327498e-01  9.9999996391251922e-01  9.9999997719932776e-01  9.9999998559422343e-01  9.9999999089827019e-01  9.9999999424944852e-01  9.9999999636676562e-01  9.9999999770450732e-01  9.9999999854970278e-01  9.9999999908370174e-01  9.9999999942108420e-01  9.9999999963424235e-01  9.9999999976891729e-01  9.9999999985400434e-01  9.9999999990776101e-01  9.9999999994172517e-01  9.9999999996318378e-01  9.9999999997673994e-01  9.9999999998530675e-01  9.9999999999071698e-01  9.9999999999413525e-01  9.9999999999629563e-01  9.9999999999766087e-01  9.9999999999852274e-01  9.9999999999906775e-01  9.9999999999941058e-01  9.9999999999962763e-01  9.9999999999976608e-01  9.9999999999985234e-01  9.9999999999990807e-01  9.9999999999994227e-01  9.9999999999996425e-01  9.9999999999997846e-01  9.9999999999998757e-01  9.9999999999999267e-01  9.9999999999999556e-01  9.9999999999999856e-01  9.9999999999999922e-01  1.0000000000000004e+00  1.0000000000000002e+00  1.0000000000000002e+00  1.0000000000000018e+00  1.0000000000000007e+00  1.0000000000000013e+00  1.0000000000000009e+00  1.0000000000000016e+00  1.0000000000000004e+00  1.0000000000000013e+00  1.0000000000000007e+00  1.0000000000000018e+00  1.0000000000000009e+00  1.0000000000000016e+00  1.0000000000000016e+00  0.0000000000000000e+00  2.3324056901102934e-10  6.9006753723001157e-10  7.6393338511857484e-10  1.3431831555357845e-09  1.3602398626696275e-09  2.2240911717968563e-09  2.2048605564220152e-09  3.5589972690039884e-09  3.4984080733016707e-09  5.6492198876038743e-09  5.5217337405840195e-09  8.9497327390622875e-09  8.7032812246265405e-09  1.4172269499323557e-08  1.3712023851183435e-08  2.2440259541794557e-08  2.1598417732966680e-08  3.5530788911764027e-08  3.4013768639456646e-08  5.6256119044608963e-08  5.3553672821501408e-08  8.9066544422770687e-08  8.4296116844597661e-08  1.4100321558069984e-07  1.3264398909753139e-07  2.2320361481733046e-07  2.0864258673878246e-07  3.5327897253924741e-07  3.2803660803506885e-07  5.5906605986374151e-07  5.1547528230728449e-07  8.8454283189179737e-07  8.0949414190512243e-07  1.3991460768190262e-06  1.2702343588024016e-06  2.2124282457779532e-06  1.9913574357448930e-06  3.4970749854733471e-06  3.1183439643177942e-06  5.5249774231816559e-06  4.8764159559919128e-06  8.7236132689687542e-06  7.6127808986006050e-06  1.3763867838745575e-05  1.1859806463019155e-05  2.1696209390916187e-05  1.8427976993594202e-05  3.4160567413053580e-05  2.8539477316173998e-05  5.3707131767146516e-05  4.4013277115139992e-05  8.4280994706887780e-05  6.7506243466016459e-05  1.3194190471179753e-04  1.0279149836009588e-04  2.0590546268398118e-04  1.5499025376078856e-04  3.1998530754050761e-04  2.3050965033040720e-04  4.9443635139323559e-04  3.3604453130905109e-04  7.5791420656807509e-04  4.7506478678495737e-04  1.1484322683847717e-03  6.3798145515924355e-04  1.7099101357236975e-03  7.7678029481807807e-04  2.4746625133256752e-03  7.4133798186123837e-04  3.4044492111609771e-03  1.1861521248028784e-04  4.2073491309873303e-03  -2.1886693671235211e-03  3.7352337304849140e-03  -9.0941121846930470e-03  -2.8631106973619155e-03  -3.4643590604563734e-02  -6.0914647112588509e-03  1.6321205573128839e-01  4.6730748848727621e-01  6.8124884391554630e-01  8.0057697223892565e-01  8.7542541708302613e-01  9.2193958933067344e-01  9.5097869718816253e-01  9.6916080024743279e-01  9.8057256511759416e-01  9.8774839814398041e-01  9.9226719233632399e-01  9.9511602204806227e-01  9.9691365273644439e-01  9.9804878244678941e-01  9.9876598300740238e-01  9.9921933793327955e-01  9.9950602041865777e-01  9.9968736276205372e-01  9.9980210109380152e-01  9.9987471330474376e-01  9.9992067402165652e-01  9.9994976959935866e-01  9.9996819087024380e-01  9.9997985509362708e-01  9.9998724141912254e-01  9.9999191910882235e-01  9.9999488161816508e-01  9.9999675794824250e-01  9.9999794638610040e-01  9.9999869914959494e-01  9.9999917596804044e-01  9.9999947800351063e-01  9.9999966932844686e-01  9.9999979052562882e-01  9.9999986730058865e-01  9.9999991593591542e-01  9.9999994674567982e-01  9.9999996626337895e-01  9.9999997862774281e-01  9.9999998646055588e-01  9.9999999142265694e-01  9.9999999456617295e-01  9.9999999655761140e-01  9.9999999781920401e-01  9.9999999861843702e-01  9.9999999912476056e-01  9.9999999944552354e-01  9.9999999964873088e-01  9.9999999977746656e-01  9.9999999985902077e-01  9.9999999991068822e-01  9.9999999994342015e-01  9.9999999996415567e-01  9.9999999997729183e-01  9.9999999998561495e-01  9.9999999999088662e-01  9.9999999999422706e-01  9.9999999999634337e-01  9.9999999999768308e-01  9.9999999999853262e-01  9.9999999999907130e-01  9.9999999999941169e-01  9.9999999999962885e-01  9.9999999999976574e-01  9.9999999999985212e-01  9.9999999999990796e-01  9.9999999999994205e-01  9.9999999999996392e-01  9.9999999999997768e-01  9.9999999999998601e-01  9.9999999999999145e-01  9.9999999999999500e-01  9.9999999999999767e-01  9.9999999999999845e-01  1.0000000000000000e+00  1.0000000000000002e+00  1.0000000000000007e+00  1.0000000000000011e+00  9.9999999999999989e-01  1.0000000000000007e+00  1.0000000000000004e+00  1.0000000000000011e+00  1.0000000000000004e+00  1.0000000000000011e+00  1.0000000000000007e+00  1.0000000000000013e+00  1.0000000000000009e+00  1.0000000000000009e+00  1.0000000000000002e+00  1.0000000000000000e+00  0.0000000000000000e+00  3.2281007193022875e-10  3.4923776249804262e-10  7.6001982158872688e-10  7.0588106278242673e-10  1.3006065338028398e-09  1.1679063237067550e-09  2.0899989073204885e-09  1.8486182982266919e-09  3.3064854028902907e-09  2.8917323079351533e-09  5.2087910244940249e-09  4.5062434706428462e-09  8.1939793430784517e-09  7.0094145667292629e-09  1.2880767658517691e-08  1.0887939979608053e-08  2.0236523281410118e-08  1.6889149775983550e-08  3.1773888252202493e-08  2.6158394713296611e-08  4.9856095801051235e-08  4.0445677852332955e-08  7.8170694139594028e-08  6.2414648936089714e-08  1.2246308880482109e-07  9.6100875743692550e-08  1.9166938977066785e-07  1.4758423263932154e-07  2.9966030577544026e-07  2.2596165294258316e-07  4.6791534850477291e-07  3.4472804627050854e-07  7.2960462023879299e-07  5.2368544225805429e-07  1.1357838866442628e-06  7.9148092513500330e-07  1.7647314968995438e-06  1.1887735140409621e-06  2.7358974247180784e-06  1.7717463069501363e-06  4.2305092866990601e-06  2.6150055898468752e-06  6.5215650976225331e-06  3.8114324021166369e-06  1.0016620612691036e-05  5.4634720725238177e-06  1.5317116676904987e-05  7.6541136323077529e-06  2.3297191286148407e-05  1.0373453252049529e-05  3.5201232399372936e-05  1.3352598105768050e-05  5.2749214223326821e-05  1.5710049224766689e-05  7.8214865974025839e-05  1.5226517257868476e-05  1.1439003384855663e-04  6.8951139722726579e-06  1.6424385601943384e-04  -1.9922590713804294e-05  2.2988526889667669e-04  -8.6985236068164740e-05  3.1008507723929415e-04  -2.3758256392155701e-04  3.9509017376607701e-04  -5.5580394646803969e-04  4.5706861453263255e-04  -1.2005948343158756e-03  4.3617633274755486e-04  -2.4594845247304857e-03  2.3537960599154240e-04  -4.8027158147383653e-03  -1.9134593825394721e-04  -8.7491225909636493e-03  -2.1329297140082262e-04  -1.3230633842297605e-02  1.3257420423654180e-02  -3.4313010611930058e-03  -1.3099102194549201e-02  2.6606383618843532e-01  5.5728468902544370e-01  7.2110465782170852e-01  8.2402787415310097e-01  8.8880903297128566e-01  9.2969922843548247e-01  9.5553463778179437e-01  9.7186775226579125e-01  9.8219757170204047e-01  9.8873252597680183e-01  9.9286766616143429e-01  9.9548473710480756e-01  9.9714128030194615e-01  9.9818995254585885e-01  9.9885387404448966e-01  9.9927423832041951e-01  9.9954040929171650e-01  9.9970895447421049e-01  9.9981568501296458e-01  9.9988327377562281e-01  9.9992607646883103e-01  9.9995318315229254e-01  9.9997034992483436e-01  9.9998122185176797e-01  9.9998810724726073e-01  9.9999246793365248e-01  9.9999522967939714e-01  9.9999697878014204e-01  9.9999808654549638e-01  9.9999878813352949e-01  9.9999923247587930e-01  9.9999951389534292e-01  9.9999969212962614e-01  9.9999980501271768e-01  9.9999987650628086e-01  9.9999992178616526e-01  9.9999995046383416e-01  9.9999996862662721e-01  9.9999998012989899e-01  9.9999998741541507e-01  9.9999999202964396e-01  9.9999999495203373e-01  9.9999999680290874e-01  9.9999999797514694e-01  9.9999999871757528e-01  9.9999999918778648e-01  9.9999999948559171e-01  9.9999999967420317e-01  9.9999999979366050e-01  9.9999999986931576e-01  9.9999999991723243e-01  9.9999999994758026e-01  9.9999999996680045e-01  9.9999999997897226e-01  9.9999999998668265e-01  9.9999999999156564e-01  9.9999999999465883e-01  9.9999999999661826e-01  9.9999999999785849e-01  9.9999999999864420e-01  9.9999999999914257e-01  9.9999999999945599e-01  9.9999999999965616e-01  9.9999999999978240e-01  9.9999999999986222e-01  9.9999999999991329e-01  9.9999999999994493e-01  9.9999999999996547e-01  9.9999999999997879e-01  9.9999999999998668e-01  9.9999999999999178e-01  9.9999999999999434e-01  9.9999999999999734e-01  9.9999999999999833e-01  9.9999999999999956e-01  1.0000000000000002e+00  1.0000000000000000e+00  1.0000000000000011e+00  1.0000000000000009e+00  1.0000000000000007e+00  1.0000000000000004e+00  1.0000000000000013e+00  1.0000000000000002e+00  1.0000000000000007e+00  1.0000000000000004e+00  1.0000000000000007e+00  1.0000000000000004e+00  1.0000000000000011e+00  1.0000000000000011e+00  0.0000000000000000e+00  4.2309257531143959e-11  3.5245047798199108e-10  2.7442836269870269e-10  6.8896518958943245e-10  5.0713835633896737e-10  1.1337819748221123e-09  8.1169657943401673e-10  1.7950943196163785e-09  1.2540463131620750e-09  2.8129689557841896e-09  1.9154409376879518e-09  4.3932753698047082e-09  2.9092889234617998e-09  6.8503891808729754e-09  4.3993943773742753e-09  1.0668838079174852e-08  6.6228687663536555e-09  1.6596176680896006e-08  9.9198334911060320e-09  2.5784282097941482e-08  1.4770868198263061e-08  4.0004312509955358e-08  2.1840878843956601e-08  6.1972744986695280e-08  3.2023019220929471e-08  9.5843778947184822e-08  4.6465628502895803e-08  1.4794915946919605e-07  6.6543613649737483e-08  2.2790300245718231e-07  9.3693776731948208e-08  3.5023994839948690e-07  1.2895404398803225e-07  5.3682366099988412e-07  1.7189858625730384e-07  8.2035247961249768e-07  2.1838980721056519e-07  1.2494007697430916e-06  2.5607814309624194e-07  1.8955635628953654e-06  2.5570450315621762e-07  2.8634034370912962e-06  1.5471019036914835e-07  4.3040009919034865e-06  -1.7305432420666748e-07  6.4329338395110585e-06  -9.7242689744299807e-07  9.5534024633882825e-06  -2.7057635192740511e-06  1.4085015503298765e-05  -6.2278945716954115e-06  2.0598833096259169e-05  -1.3091695023900275e-05  2.9861202257025612e-05  -2.6073757667509369e-05  4.2897612541296940e-05  -5.0062012360045675e-05  6.1117222079244430e-05  -9.3517301546409986e-05  8.6626440280103696e-05  -1.7079210493084492e-04  1.2310372872079335e-04  -3.0559014654468075e-04  1.7825531265161382e-04  -5.3555576300556309e-04  2.7053354134548747e-04  -9.1678140226061672e-04  4.4690902014972726e-04  -1.5234896411848108e-03  8.2800509600457596e-04  -2.4300588099531312e-03  1.7155859757096627e-03  -3.6544591197406060e-03  3.8102409590064150e-03  -5.1110372739061882e-03  8.9094946302125666e-03  -1.3850019478122940e-02  -1.8016963881899220e-03  -2.8913933187225835e-02  2.6726253383898269e-01  5.6396120122370585e-01  7.2893586246649589e-01  8.3087078057785879e-01  8.9406155575552848e-01  9.3346271564811134e-01  9.5812652268793319e-01  9.7360950456094175e-01  9.8334946311423221e-01  9.8948608729853615e-01  9.9335689407346583e-01  9.9580060773331547e-01  9.9734439244567230e-01  9.9832015699607091e-01  9.9893714431075908e-01  9.9932739472486998e-01  9.9957429310088819e-01  9.9973052835713305e-01  9.9982940844369406e-01  9.9989199690551733e-01  9.9993161784798990e-01  9.9995670157038652e-01  9.9997258298101888e-01  9.9998263864209225e-01  9.9998900589699524e-01  9.9999303780233229e-01  9.9999559098557089e-01  9.9999720781732870e-01  9.9999823171585955e-01  9.9999888013624005e-01  9.9999929077763861e-01  9.9999955083794290e-01  9.9999971553649525e-01  9.9999981984245945e-01  9.9999988590139344e-01  9.9999992773800594e-01  9.9999995423420984e-01  9.9999997101500349e-01  9.9999998164279591e-01  9.9999998837372073e-01  9.9999999263664507e-01  9.9999999533650596e-01  9.9999999704642673e-01  9.9999999812938412e-01  9.9999999881526247e-01  9.9999999924965666e-01  9.9999999952477536e-01  9.9999999969902109e-01  9.9999999980937648e-01  9.9999999987927068e-01  9.9999999992353639e-01  9.9999999995157207e-01  9.9999999996932898e-01  9.9999999998057576e-01  9.9999999998769784e-01  9.9999999999220890e-01  9.9999999999506528e-01  9.9999999999687450e-01  9.9999999999802103e-01  9.9999999999874689e-01  9.9999999999920575e-01  9.9999999999949829e-01  9.9999999999968259e-01  9.9999999999979960e-01  9.9999999999987377e-01  9.9999999999992017e-01  9.9999999999995015e-01  9.9999999999996891e-01  9.9999999999998057e-01  9.9999999999998834e-01  9.9999999999999323e-01  9.99999999