<?xml version="1.0"?>
<VTKFile type="UnstructuredGrid"  version="0.1"  >
<UnstructuredGrid>
<Piece  NumberOfPoints="21400" NumberOfCells="42336">
<Points>
<DataArray  type="Float64"  NumberOfComponents="3"  format="ascii">0 0 0  0.004583333333333333 0 0  0.009166666666666667 0 0  0.01375 0 0  0.01833333333333333 0 0  0.02291666666666667 0 0  0.0275 0 0  0.03208333333333334 0 0  0.03666666666666667 0 0  0.04125 0 0  0.04583333333333334 0 0  0.05041666666666667 0 0  0.055 0 0  0.05958333333333334 0 0  0.06416666666666668 0 0  0.06875000000000001 0 0  0.07333333333333333 0 0  0.07791666666666666 0 0  0.08249999999999999 0 0  0.08708333333333333 0 0  0.09166666666666667 0 0  0.09625000000000002 0 0  0.1008333333333333 0 0  0.1054166666666667 0 0  0.11 0 0  0.1145833333333333 0 0  0.1191666666666667 0 0  0.12375 0 0  0.1283333333333334 0 0  0.1329166666666667 0 0  0.1375 0 0  0.1420833333333333 0 0  0.1466666666666667 0 0  0.15125 0 0  0.1558333333333333 0 0  0.1604166666666667 0 0  0.165 0 0  0.1695833333333333 0 0  0.1741666666666667 0 0  0.17875 0 0  0.1833333333333333 0 0  0.1879166666666667 0 0  0.1925 0 0  0.1970833333333333 0 0  0.2016666666666667 0 0  0.20625 0 0  0.2108333333333333 0 0  0.2154166666666666 0 0  0.22 0 0  0.2245833333333334 0 0  0.2291666666666667 0 0  0.23375 0 0  0.2383333333333333 0 0  0.2429166666666667 0 0  0.2475 0 0  0.2520833333333333 0 0  0.2566666666666667 0 0  0.26125 0 0  0.2658333333333334 0 0  0.2704166666666666 0 0  0.275 0 0  0.2795833333333334 0 0  0.2841666666666667 0 0  0.28875 0 0  0.2933333333333333 0 0  0.2979166666666667 0 0  0.3025 0 0  0.3070833333333334 0 0  0.3116666666666666 0 0  0.31625 0 0  0.3208333333333333 0 0  0.3254166666666667 0 0  0.33 0 0  0.3345833333333333 0 0  0.3391666666666667 0 0  0.34375 0 0  0.3483333333333333 0 0  0.3529166666666667 0 0  0.3575 0 0  0.3620833333333333 0 0  0.3666666666666667 0 0  0.37125 0 0  0.3758333333333334 0 0  0.3804166666666667 0 0  0.3850000000000001 0 0  0.3895833333333333 0 0  0.3941666666666667 0 0  0.39875 0 0  0.4033333333333334 0 0  0.4079166666666666 0 0  0.4125 0 0  0.4170833333333334 0 0  0.4216666666666667 0 0  0.42625 0 0  0.4308333333333333 0 0  0.4354166666666667 0 0  0.44 0 0  0.4445833333333333 0 0  0.4491666666666667 0 0  0.45375 0 0  0.4583333333333333 0 0  0.4629166666666666 0 0  0.4675 0 0  0.4720833333333334 0 0  0.4766666666666667 0 0  0.4812500000000001 0 0  0.4858333333333333 0 0  0.4904166666666667 0 0  0.495 0 0  0.4995833333333334 0 0  0.5041666666666667 0 0  0.50875 0 0  0.5133333333333334 0 0  0.5179166666666667 0 0  0.5225 0 0  0.5270833333333333 0 0  0.5316666666666667 0 0  0.53625 0 0  0.5408333333333333 0 0  0.5454166666666667 0 0  0.55 0 0  0.5545833333333333 0 0  0.5591666666666667 0 0  0.5637500000000001 0 0  0.5683333333333334 0 0  0.5729166666666666 0 0  0.5775 0 0  0.5820833333333334 0 0  0.5866666666666667 0 0  0.5912499999999999 0 0  0.5958333333333334 0 0  0.6004166666666667 0 0  0.605 0 0  0.6095833333333334 0 0  0.6141666666666667 0 0  0.61875 0 0  0.6233333333333333 0 0  0.6279166666666667 0 0  0.6325000000000001 0 0  0.6370833333333333 0 0  0.6416666666666666 0 0  0.64625 0 0  0.6508333333333334 0 0  0.6554166666666666 0 0  0.6599999999999999 0 0  0.6645833333333334 0 0  0.6691666666666667 0 0  0.67375 0 0  0.6783333333333333 0 0  0.6829166666666667 0 0  0.6875 0 0  0.6920833333333333 0 0  0.6966666666666667 0 0  0.70125 0 0  0.7058333333333333 0 0  0.7104166666666667 0 0  0.7150000000000001 0 0  0.7195833333333334 0 0  0.7241666666666666 0 0  0.72875 0 0  0.7333333333333334 0 0  0.7379166666666667 0 0  0.7425 0 0  0.7470833333333333 0 0  0.7516666666666667 0 0  0.75625 0 0  0.7608333333333334 0 0  0.7654166666666666 0 0  0.7700000000000001 0 0  0 0.002380952380952381 0  0.004583333333333333 0.002380952380952381 0  0.009166666666666667 0.002380952380952381 0  0.01375 0.002380952380952381 0  0.01833333333333333 0.002380952380952381 0  0.02291666666666667 0.002380952380952381 0  0.0275 0.002380952380952381 0  0.03208333333333334 0.002380952380952381 0  0.03666666666666667 0.002380952380952381 0  0.04125 0.002380952380952381 0  0.04583333333333334 0.002380952380952381 0  0.05041666666666667 0.002380952380952381 0  0.055 0.002380952380952381 0  0.05958333333333334 0.002380952380952381 0  0.06416666666666668 0.002380952380952381 0  0.06875000000000001 0.002380952380952381 0  0.07333333333333333 0.002380952380952381 0  0.07791666666666666 0.002380952380952381 0  0.08249999999999999 0.002380952380952381 0  0.08708333333333333 0.002380952380952381 0  0.09166666666666667 0.002380952380952381 0  0.09625000000000002 0.002380952380952381 0  0.1008333333333333 0.002380952380952381 0  0.1054166666666667 0.002380952380952381 0  0.11 0.002380952380952381 0  0.1145833333333333 0.002380952380952381 0  0.1191666666666667 0.002380952380952381 0  0.12375 0.002380952380952381 0  0.1283333333333334 0.002380952380952381 0  0.1329166666666667 0.002380952380952381 0  0.1375 0.002380952380952381 0  0.1420833333333333 0.002380952380952381 0  0.1466666666666667 0.002380952380952381 0  0.15125 0.002380952380952381 0  0.1558333333333333 0.002380952380952381 0  0.1604166666666667 0.002380952380952381 0  0.165 0.002380952380952381 0  0.1695833333333333 0.002380952380952381 0  0.1741666666666667 0.002380952380952381 0  0.17875 0.002380952380952381 0  0.1833333333333333 0.002380952380952381 0  0.1879166666666667 0.002380952380952381 0  0.1925 0.002380952380952381 0  0.1970833333333333 0.002380952380952381 0  0.2016666666666667 0.002380952380952381 0  0.20625 0.002380952380952381 0  0.2108333333333333 0.002380952380952381 0  0.2154166666666666 0.002380952380952381 0  0.22 0.002380952380952381 0  0.2245833333333334 0.002380952380952381 0  0.2291666666666667 0.002380952380952381 0  0.23375 0.002380952380952381 0  0.2383333333333333 0.002380952380952381 0  0.2429166666666667 0.002380952380952381 0  0.2475 0.002380952380952381 0  0.2520833333333333 0.002380952380952381 0  0.2566666666666667 0.002380952380952381 0  0.26125 0.002380952380952381 0  0.2658333333333334 0.002380952380952381 0  0.2704166666666666 0.002380952380952381 0  0.275 0.002380952380952381 0  0.2795833333333334 0.002380952380952381 0  0.2841666666666667 0.002380952380952381 0  0.28875 0.002380952380952381 0  0.2933333333333333 0.002380952380952381 0  0.2979166666666667 0.002380952380952381 0  0.3025 0.002380952380952381 0  0.3070833333333334 0.002380952380952381 0  0.3116666666666666 0.002380952380952381 0  0.31625 0.002380952380952381 0  0.3208333333333333 0.002380952380952381 0  0.3254166666666667 0.002380952380952381 0  0.33 0.002380952380952381 0  0.3345833333333333 0.002380952380952381 0  0.3391666666666667 0.002380952380952381 0  0.34375 0.002380952380952381 0  0.3483333333333333 0.002380952380952381 0  0.3529166666666667 0.002380952380952381 0  0.3575 0.002380952380952381 0  0.3620833333333333 0.002380952380952381 0  0.3666666666666667 0.002380952380952381 0  0.37125 0.002380952380952381 0  0.3758333333333334 0.002380952380952381 0  0.3804166666666667 0.002380952380952381 0  0.3850000000000001 0.002380952380952381 0  0.3895833333333333 0.002380952380952381 0  0.3941666666666667 0.002380952380952381 0  0.39875 0.002380952380952381 0  0.4033333333333334 0.002380952380952381 0  0.4079166666666666 0.002380952380952381 0  0.4125 0.002380952380952381 0  0.4170833333333334 0.002380952380952381 0  0.4216666666666667 0.002380952380952381 0  0.42625 0.002380952380952381 0  0.4308333333333333 0.002380952380952381 0  0.4354166666666667 0.002380952380952381 0  0.44 0.002380952380952381 0  0.4445833333333333 0.002380952380952381 0  0.4491666666666667 0.002380952380952381 0  0.45375 0.002380952380952381 0  0.4583333333333333 0.002380952380952381 0  0.4629166666666666 0.002380952380952381 0  0.4675 0.002380952380952381 0  0.4720833333333334 0.002380952380952381 0  0.4766666666666667 0.002380952380952381 0  0.4812500000000001 0.002380952380952381 0  0.4858333333333333 0.002380952380952381 0  0.4904166666666667 0.002380952380952381 0  0.495 0.002380952380952381 0  0.4995833333333334 0.002380952380952381 0  0.5041666666666667 0.002380952380952381 0  0.50875 0.002380952380952381 0  0.5133333333333334 0.002380952380952381 0  0.5179166666666667 0.002380952380952381 0  0.5225 0.002380952380952381 0  0.5270833333333333 0.002380952380952381 0  0.5316666666666667 0.002380952380952381 0  0.53625 0.002380952380952381 0  0.5408333333333333 0.002380952380952381 0  0.5454166666666667 0.002380952380952381 0  0.55 0.002380952380952381 0  0.5545833333333333 0.002380952380952381 0  0.5591666666666667 0.002380952380952381 0  0.5637500000000001 0.002380952380952381 0  0.5683333333333334 0.002380952380952381 0  0.5729166666666666 0.002380952380952381 0  0.5775 0.002380952380952381 0  0.5820833333333334 0.002380952380952381 0  0.5866666666666667 0.002380952380952381 0  0.5912499999999999 0.002380952380952381 0  0.5958333333333334 0.002380952380952381 0  0.6004166666666667 0.002380952380952381 0  0.605 0.002380952380952381 0  0.6095833333333334 0.002380952380952381 0  0.6141666666666667 0.002380952380952381 0  0.61875 0.002380952380952381 0  0.6233333333333333 0.002380952380952381 0  0.6279166666666667 0.002380952380952381 0  0.6325000000000001 0.002380952380952381 0  0.6370833333333333 0.002380952380952381 0  0.6416666666666666 0.002380952380952381 0  0.64625 0.002380952380952381 0  0.6508333333333334 0.002380952380952381 0  0.6554166666666666 0.002380952380952381 0  0.6599999999999999 0.002380952380952381 0  0.6645833333333334 0.002380952380952381 0  0.6691666666666667 0.002380952380952381 0  0.67375 0.002380952380952381 0  0.6783333333333333 0.002380952380952381 0  0.6829166666666667 0.002380952380952381 0  0.6875 0.002380952380952381 0  0.6920833333333333 0.002380952380952381 0  0.6966666666666667 0.002380952380952381 0  0.70125 0.002380952380952381 0  0.7058333333333333 0.002380952380952381 0  0.7104166666666667 0.002380952380952381 0  0.7150000000000001 0.002380952380952381 
[...]
<PointData  Scalars="concentration"> 
<DataArray  type="Float64"  Name="concentration"  format="ascii">0.0000000000000000e+00  1.3329114628096662e-07  4.0039018860802486e-07  4.3772947957852181e-07  7.6249102843707521e-07  7.6308142448668047e-07  1.2549043300157344e-06  1.2383493335532391e-06  2.0221695832621044e-06  1.9886859104595167e-06  3.2504659879874266e-06  3.1910649987856681e-06  5.2275977226686255e-06  5.1242121682801308e-06  8.4160025507212262e-06  8.2367518704905199e-06  1.3564869094676369e-05  1.3254399621370036e-05  2.1891653820790448e-05  2.1353778558830236e-05  3.5379556911351055e-05  3.4446418062542316e-05  5.7267602364769195e-05  5.5644608762989994e-05  9.2861785239931432e-05  9.0028477974130218e-05  1.5088473540262725e-04  1.4591464085557957e-04  2.4573570896956396e-04  2.3696562747882409e-04  4.0130452731505339e-04  3.8572047448579575e-04  6.5747115058907655e-04  6.2955311778982394e-04  1.0813215213739305e-03  1.0308357555823074e-03  1.7868221373305586e-03  1.6945199850629704e-03  2.9701020863896195e-03  2.7991351777038992e-03  4.9746759127248423e-03  4.6529239753632084e-03  8.4173113757178095e-03  7.7995146755878101e-03  1.4446548984134982e-02  1.3228805964591053e-02  2.5324924358134781e-02  2.2839449742067402e-02  4.5928192456198169e-02  4.0653520646282353e-02  8.9063878360428589e-02  7.2550247260950246e-02  3.9905124061532288e-01  3.3665140545794087e-01  8.4147901848972795e-01  1.1645780027083690e+00  1.0977195808563878e+00  1.0489696034631548e+00  1.0289655242369817e+00  1.0173512558170490e+00  1.0105622930974996e+00  1.0064860587031235e+00  1.0040080615345595e+00  1.0024881922589406e+00  1.0015500716564429e+00  1.0009682740930463e+00  1.0006061411271623e+00  1.0003800922092676e+00  1.0002386700263497e+00  1.0001500327185622e+00  1.0000943979350492e+00  1.0000594367258338e+00  1.0000374459424715e+00  1.0000236028787197e+00  1.0000148832306068e+00  1.0000093879398970e+00  1.0000059232328411e+00  1.0000037380226279e+00  1.0000023594057457e+00  1.0000014894535423e+00  1.0000009403801502e+00  1.0000005937760761e+00  1.0000003749531021e+00  1.0000002367880918e+00  1.0000001495430313e+00  1.0000000944477492e+00  1.0000000596530416e+00  1.0000000376778602e+00  1.0000000237985280e+00  1.0000000150321877e+00  1.0000000094951309e+00  1.0000000059977017e+00  1.0000000037885513e+00  1.0000000023931195e+00  1.0000000015116763e+00  1.0000000009548935e+00  1.0000000006031871e+00  1.0000000003810225e+00  1.0000000002406864e+00  1.0000000001520386e+00  1.0000000000960410e+00  1.0000000000606692e+00  1.0000000000383227e+00  1.0000000000242080e+00  1.0000000000152922e+00  1.0000000000096603e+00  1.0000000000061040e+00  1.0000000000038551e+00  1.0000000000024363e+00  1.0000000000015383e+00  1.0000000000009730e+00  1.0000000000006148e+00  1.0000000000003899e+00  1.0000000000002462e+00  1.0000000000001577e+00  1.0000000000000999e+00  1.0000000000000644e+00  1.0000000000000413e+00  1.0000000000000278e+00  1.0000000000000180e+00  1.0000000000000122e+00  1.0000000000000082e+00  1.0000000000000071e+00  1.0000000000000049e+00  1.0000000000000040e+00  1.0000000000000031e+00  1.0000000000000022e+00  1.0000000000000016e+00  1.0000000000000022e+00  1.0000000000000011e+00  1.0000000000000011e+00  1.0000000000000011e+00  1.0000000000000016e+00  1.0000000000000002e+00  1.0000000000000024e+00  1.0000000000000016e+00  1.0000000000000022e+00  1.0000000000000024e+00  1.0000000000000011e+00  1.0000000000000020e+00  1.0000000000000011e+00  1.0000000000000011e+00  1.0000000000000007e+00  1.0000000000000011e+00  1.0000000000000009e+00  1.0000000000000018e+00  1.0000000000000013e+00  1.0000000000000018e+00  1.0000000000000022e+00  1.0000000000000024e+00  1.0000000000000022e+00  1.0000000000000024e+00  1.0000000000000027e+00  1.0000000000000024e+00  1.0000000000000029e+00  1.0000000000000029e+00  1.0000000000000016e+00  1.0000000000000018e+00  1.0000000000000013e+00  1.0000000000000016e+00  1.0000000000000020e+00  1.0000000000000020e+00  1.0000000000000022e+00  1.0000000000000016e+00  1.0000000000000024e+00  1.0000000000000016e+00  1.0000000000000018e+00  1.0000000000000013e+00  1.0000000000000009e+00  0.0000000000000000e+00  1.7901772811205289e-07  2.0986863701506132e-07  4.5773736359727669e-07  4.4798243162796047e-07  8.0818259992467922e-07  7.6458687769047605e-07  1.3260003681130649e-06  1.2411871596221901e-06  2.1369440521128773e-06  1.9901590685947728e-06  3.4298443739113686e-06  3.1822352890302071e-06  5.5023939638169906e-06  5.0867483619292810e-06  8.8315917483447157e-06  8.1335854058766179e-06  1.4185969333552045e-05  1.3011356529464049e-05  2.2806893217407277e-05  2.0824482778298979e-05  3.6703161273903334e-05  3.3345290890074547e-05  5.9131340763068472e-05  5.3418806782126704e-05  9.5381347134561195e-05  8.5612467606952108e-05  1.5406545481773761e-04  1.3725761763213048e-04  2.4924133901647742e-04  2.2011490413994297e-04  4.0392434103976935e-04  3.5302529875245260e-04  6.5592900398843250e-04  5.6609557559695776e-04  1.0676478702934245e-03  9.0720627605525724e-04  1.7425535802678906e-03  1.4518311762800812e-03  2.8533303999172125e-03  2.3169093170637019e-03  4.6904534744791277e-03  3.6772223845548207e-03  7.7474654824718145e-03  5.7722476821142716e-03  1.2873613160965922e-02  8.8471717787557483e-03  2.1550069900963739e-02  1.2774459691895168e-02  3.6323507708281584e-02  1.5167850355190766e-02  6.0168828383593241e-02  -5.1280756031899799e-02  3.4403167631550075e-02  -4.0556989618032252e-02  1.1608243968612425e-01  5.1004609567837267e-01  6.9297004712414034e-01  8.0773351925914860e-01  8.7915212587566027e-01  9.2393109769678061e-01  9.5207043292495053e-01  9.6978072341901322e-01  9.8093809771462559e-01  9.8797193428421382e-01  9.9240835711708020e-01  9.9520752348886599e-01  9.9697413611286367e-01  9.9808931213311947e-01  9.9879338065214696e-01  9.9923795133837467e-01  9.9951869481905820e-01  9.9969599642600082e-01  9.9980797705632751e-01  9.9987870563922543e-01  9.9992338063334862e-01  9.9995160005441397e-01  9.9996942560571855e-01  9.9998068582574540e-01  9.9998779891083089e-01  9.9999229230870523e-01  9.9999513085701253e-01  9.9999692402618323e-01  9.9999805681510545e-01  9.9999877242909185e-01  9.9999922450379086e-01  9.9999951009359533e-01  9.9999969050996251e-01  9.9999980448496750e-01  9.9999987648679267e-01  9.9999992197275245e-01  9.9999995070774506e-01  9.9999996886057840e-01  9.9999998032830795e-01  9.9999998757283004e-01  9.9999999214941571e-01  9.9999999504058035e-01  9.9999999686701091e-01  9.9999999802081641e-01  9.9999999874970502e-01  9.9999999921016325e-01  9.9999999950104468e-01  9.9999999968480358e-01  9.9999999980088594e-01  9.9999999987421695e-01  9.9999999992054178e-01  9.9999999994980460e-01  9.9999999996829236e-01  9.9999999997996925e-01  9.9999999998734779e-01  9.9999999999200706e-01  9.9999999999495170e-01  9.9999999999681066e-01  9.9999999999798650e-01  9.9999999999872746e-01  9.9999999999919731e-01  9.9999999999949274e-01  9.9999999999968059e-01  9.9999999999979794e-01  9.9999999999987321e-01  9.9999999999992062e-01  9.9999999999995082e-01  9.9999999999996880e-01  9.9999999999998124e-01  9.9999999999998856e-01  9.9999999999999334e-01  9.9999999999999700e-01  9.9999999999999878e-01  9.9999999999999933e-01  1.0000000000000011e+00  1.0000000000000011e+00  1.0000000000000011e+00  1.0000000000000013e+00  1.0000000000000024e+00  1.0000000000000011e+00  1.0000000000000020e+00  1.0000000000000011e+00  1.0000000000000007e+00  1.0000000000000018e+00  1.0000000000000009e+00  1.0000000000000018e+00  1.0000000000000013e+00  1.0000000000000016e+00  1.0000000000000018e+00  1.0000000000000024e+00  1.0000000000000018e+00  1.0000000000000020e+00  1.0000000000000020e+00  1.0000000000000013e+00  1.0000000000000013e+00  1.0000000000000013e+00  1.0000000000000013e+00  1.0000000000000007e+00  1.0000000000000009e+00  1.0000000000000007e+00  1.0000000000000007e+00  1.0000000000000016e+00  1.0000000000000011e+00  1.0000000000000011e+00  1.0000000000000011e+00  1.0000000000000016e+00  1.0000000000000013e+00  1.0000000000000011e+00  1.0000000000000016e+00  1.0000000000000007e+00  1.0000000000000018e+00  1.0000000000000016e+00  1.0000000000000016e+00  1.0000000000000011e+00  0.0000000000000000e+00  4.4617940971694542e-08  2.3279835101783642e-07  2.0254115732293642e-07  4.5394887481850160e-07  3.7108387773747399e-07  7.5372355327725810e-07  6.0407296329354206e-07  1.2094902354356141e-06  9.5696696649431141e-07  1.9248797127647683e-06  1.5044971359495511e-06  3.0567005006386497e-06  2.3580166085453471e-06  4.8503856745151575e-06  3.6876429855735587e-06  7.6931441540373982e-06  5.7537983545767376e-06  1.2196557037910227e-05  8.9530355737644428e-06  1.9325836463584397e-05  1.3883691928718402e-05  3.0601898030161736e-05  2.1436812194255626e-05  4.8415983155486638e-05  3.2914666774436544e-05  7.6516433702166422e-05  5.0167868243340284e-05  1.2075492704340453e-04  7.5710555002470026e-05  1.9021501748131388e-04  1.1269366577719467e-04  2.9888341285443261e-04  1.6442474568058028e-04  4.6804120524524033e-04  2.3266775306249261e-04  7.2947875298079435e-04  3.1287243413220448e-04  1.1292796500483723e-03  3.8185288180166024e-04  1.7307461185060728e-03  3.6683719576087643e-04  2.6115971173746467e-03  6.7394506209716545e-05  3.8407576004098822e-03  -1.0477645928138536e-03  5.3914149919496732e-03  -4.4041288528790324e-03  6.8496984679489994e-03  -1.4072054619504297e-02  6.2523527472309768e-03  -4.9002970576480176e-02  2.3216985760583068e-02  -3.2760855841830291e-02  1.7562183971747161e-01  5.1699518900568475e-01  7.0692746800277395e-01  8.1693570556410888e-01  8.8478197352329924e-01  9.2728864748656803e-01  9.5404944023029459e-01  9.7093756485109806e-01  9.8160931254838268e-01  9.8835834076283580e-01  9.9262881662472235e-01  9.9533195149711384e-01  9.9704342208374863e-01  9.9812722671893772e-01  9.9881364941584128e-01  9.9924843662553120e-01  9.9952385690278200e-01  9.9969833520218432e-01  9.9980887217496750e-01  9.9987890312589922e-01  9.9992327272157555e-01  9.9995138469511791e-01  9.9996919640451387e-01  9.9998048205708534e-01  9.9998763283511483e-01  9.9999216373484645e-01  9.9999503464318129e-01  9.9999685374607739e-01  9.9999800639682734e-01  9.9999873676242790e-01  9.9999919955313810e-01  9.9999949279800493e-01  9.9999967861157479e-01  9.9999979635196845e-01  9.9999987095808085e-01  9.9999991823226941e-01  9.9999994818762183e-01  9.9999996716889217e-01  9.9999997919642925e-01  9.9999998681771773e-01  9.9999999164697917e-01  9.9999999470706202e-01  9.9999999664609807e-01  9.9999999787477933e-01  9.9999999865333999e-01  9.9999999914668025e-01  9.9999999945928697e-01  9.9999999965737363e-01  9.9999999978289011e-01  9.9999999986242616e-01  9.9999999991282551e-01  9.9999999994476074e-01  9.9999999996499789e-01  9.9999999997782030e-01  9.9999999998594680e-01  9.9999999999109423e-01  9.9999999999435740e-01  9.9999999999642442e-01  9.9999999999773481e-01  9.9999999999856415e-01  9.9999999999909150e-01  9.9999999999942379e-01  9.9999999999963540e-01  9.9999999999976863e-01  9.9999999999985434e-01  9.9999999999990796e-01  9.9999999999994182e-01  9.9999999999996358e-01  9.9999999999997768e-01  9.9999999999998579e-01  9.9999999999999134e-01  9.9999999999999456e-01  9.9999999999999678e-01  9.9999999999999789e-01  9.9999999999999922e-01  9.9999999999999933e-01  1.0000000000000002e+00  1.0000000000000002e+00  1.0000000000000004e+00  9.9999999999999956e-01  1.0000000000000009e+00  1.0000000000000000e+00  1.0000000000000011e+00  1.0000000000000013e+00  1.0000000000000007e+00  1.0000000000000018e+00  1.0000000000000009e+00  1.0000000000000016e+00  1.0000000000000011e+00  1.0000000000000009e+00  1.0000000000000002e+00  1.0000000000000013e+00  1.0000000000000009e+00  1.0000000000000009e+00  1.0000000000000011e+00  1.0000000000000007e+00  1.0000000000000007e+00  1.0000000000000009e+00  1.0000000000000011e+00  1.0000000000000009e+00  1.0000000000000013e+00  1.0000000000000018e+00  1.0000000000000016e+00  1.0000000000000018e+00  1.0000000000000020e+00  1.0000000000000018e+00  1.0000000000000013e+00  1.0000000000000011e+00  1.0000000000000011e+00  1.0000000000000002e+00  1.0000000000000004e+00  1.0000000000000002e+00  1.0000000000000002e+00  1.0000000000000002e+00  1.0000000000000000e+00  0.0000000000000000e+00  1.0644091338922427e-07  4.9511247162335911e-08  2.1201851507290058e-07  1.0286599108776506e-07  3.5155150768053698e-07  1.6545194112935240e-07  5.5796824179913862e-07  2.4928442425804390e-07  8.7447459044838377e-07  3.6536479645253044e-07  1.3638989266315771e-06  5.2441744265610777e-07  2.1209389635931021e-06  7.3498800931375093e-07  3.2892874613309588e-06  9.9716002621236302e-07  5.0863647294825356e-06  1.2878615029529350e-06  7.8389895316283477e-06  1.5295538902853685e-06  1.2033990466326501e-05  1.5263151746519171e-06  1.8388078046615314e-05  8.3665988046202769e-07  2.7940379118186775e-05  -1.4752589550403240e-06  4.2167104343402243e-05  -7.3206881269116111e-06  6.3107552465296849e-05  -2.0508755392616565e-05  9.3468479056968594e-05  -4.8505443794873047e-05  1.3663238849786338e-04  -1.0577403330160793e-04  1.9643195344193175e-04  -2.2009808887729816e-04  2.7650158074709425e-04  -4.4450398604589365e-04  3.7917685146100126e-04  -8.7958572432735754e-04  5.0514030796507874e-04  -1.7146493529954633e-03  6.6076724700125000e-04  -3.3005246088404208e-03  9.0465758506954458e-04  -6.2634184695397202e-03  1.5724266231631463e-03  -1.1593521394873976e-02  4.3881160974487982e-03  -2.0129159113841350e-02  2.5632144786680605e-02  -2.1196684438393339e-02  1.3928715487942641e-02  2.2247569648421292e-01  4.8360167880063337e-01  6.6560428794014381e-01  7.8799335983754226e-01  8.6595314851951644e-01  9.1525272607926156e-01  9.4640879192519922e-01  9.6610184379393738e-01  9.7855351461082329e-01  9.8642890756723745e-01  9.9141113375909895e-01  9.9456366472125612e-01  9.9655875329553723e-01  9.9782150479811249e-01  9.9862081541448378e-01  9.9912681100097955e-01  9.9944714620225894e-01  9.9964995375964227e-01  9.9977835847388730e-01  9.9985965871738192e-01  9.9991113582129276e-01  9.9994373041742979e-01  9.9996436922544463e-01  9.9997743784522586e-01  9.9998571306997275e-01  9.9999095310156716e-01  9.9999427121544038e-01  9.9999637233767391e-01  9.9999770283342437e-01  9.9999854534793275e-01  9.9999907885805661e-01  9.9999941669647741e-01  9.9999963062873753e-01  9.9999976609906771e-01  9.9999985188431750e-01  9.9999990620702894e-01  9.9999994060640096e-01  9.9999996238950783e-01  9.9999997618347469e-01  9.9999998491839071e-01  9.9999999044970167e-01  9.9999999395235839e-01  9.9999999617038604e-01  9.9999999757493152e-01  9.9999999846434895e-01  9.9999999902756376e-01  9.9999999938421580e-01  9.9999999961006036e-01  9.9999999975307641e-01  9.9999999984363930e-01  9.9999999990098654e-01  9.9999999993730160e-01  9.9999999996029687e-01  9.9999999997485922e-01  9.9999999998407907e-01  9.9999999998991940e-01  9.9999999999361644e-01  9.9999999999595812e-01  9.9999999999744082e-01  9.9999999999838041e-01  9.9999999999897382e-01  9.9999999999935107e-01  9.9999999999958866e-01  9.9999999999974043e-01  9.9999999999983535e-01  9.9999999999989642e-01  9.9999999999993461e-01  9.9999999999995848e-01  9.9999999999997380e-01  9.9999999999998335e-01  9.9999999999998979e-01  9.9999999999999367e-01  9.9999999999999611e-01  9.9999999999999778e-01  9.9999999999999878e-01  9.9999999999999956e-01  9.9999999999999978e-01  1.0000000000000002e+00  1.0000000000000009e+00  1.0000000000000009e+00  1.0000000000000011e+00  1.0000000000000024e+00  1.0000000000000013e+00  1.0000000000000013e+00  1.0000000000000016e+00  1.0000000000000004e+00  1.0000000000000011e+00  1.0000000000000007e+00  1.0000000000000011e+00  1.0000000000000007e+00  1.0000000000000009e+00  9.9999999999999978e-01  1.0000000000000000e+00  1.0000000000000007e+00  1.0000000000000002e+00  1.0000000000000004e+00  1.0000000000000002e+00  1.0000000000000004e+00  1.0000000000000002e+00  1.0000000000000004e+00  1.0000000000000007e+00  1.0000000000000007e+00  1.0000000000000009e+00  1.0000000000000011e+00  1.0000000000000004e+00  1.0000000000000004e+00  1.0000000000000004e+00  1.0000000000000007e+00  1.0000000000000009e+00  1.0000000000000013e+00  1.0000000000000009e+00  1.0000000000000011e+00  1.0000000000000009e+00  1.0000000000000007e+00  1.0000000000000004e+00  0.0000000000000000e+00  -5.1267358948581193e-08  5.9518088959030442e-08  -5.0763782499748665e-08  1.1325349138221599e-07  -7.4708075664930145e-08  1.8159743159914916e-07  -1.2847159180045091e-07  2.7860164004250976e-07  -2.2914955485395340e-07  4.2052955653800812e-07  -4.1006749185062333e-07  6.2870467697546350e-07  -7.3078986041233004e-07  9.3196299532928761e-07  -1.2955157732937274e-06  1.3688691069396997e-06  -2.2852789023832048e-06  1.9893620670043327e-06  -4.0135682931950167e-06  2.8548408728489127e-06  -7.0219632882670471e-06  4.0347868648424807e-06  -1.2244109437087532e-05  5.5968725815880214e-06  -2.1286083830803579e-05  7.5866480604326498e-06  -3.6904082479190203e-05  9.9943697221967086e-06  -6.3814432996998549e-05  1.2716632058245154e-05  -1.1005786938061679e-04  1.5556852132568471e-05  -1.8927465052865128e-04  1.8418918332609110e-05  -3.2444201756391325e-04  2.2157910032715761e-05  -5.5387007871434486e-04  3.1388937621195967e-05  -9.4044970398833789e-04  6.2777459633069749e-05  -1.5849490290164858e-03  1.6818228519699041e-04  -2.6426297539703719e-03  4.9728822688976731e-04  -4.3379897684668366e-03  1.4632927794898370e-03  -6.9687106057689805e-03  4.1673492811434227e-03  -1.1002998208546095e-02  1.1702392868852215e-02  -2.3535389760244080e-02  2.7603231988368635e-03  -1.7357604967675969e-02  1.3628258519918776e-01  4.7867530750240694e-01  6.7235561141638567e-01  7.9371371122083734e-01  8.6993096118796664e-01  9.1788952770339405e-01  9.4812071115782304e-01  9.6720206205058790e-01  9.7925654784982885e-01  9.8687658032721737e-01  9.9169556662941727e-01  9.9474411493975967e-01  9.9667311871467501e-01  9.9789393524461356e-01  9.9866666363589063e-01  9.9915582162002425e-01  9.9946549743093605e-01  9.9966155957362202e-01  9.9978569700297393e-01  9.9986429831697921e-01  9.9991406874837296e-01  9.9994558428939007e-01  9.9996554094131807e-01  9.9997817836030234e-01  9.9998618104028814e-01  9.9999124882004475e-01  9.9999445807558596e-01  9.9999649040637240e-01  9.9999777743262330e-01  9.9999859247994372e-01  9.9999910863506491e-01  9.9999943550826820e-01  9.9999964251276507e-01  9.9999977360633963e-01  9.9999985662658231e-01  9.9999990920256632e-01  9.9999994249852553e-01  9.9999996358462317e-01  9.9999997693831821e-01  9.9999998539513724e-01  9.9999999075079804e-01  9.9999999414251339e-01  9.9999999629047265e-01  9.9999999765076897e-01  9.9999999851223709e-01  9.9999999905780457e-01  9.9999999940330886e-01  9.9999999962211816e-01  9.9999999976068743e-01  9.9999999984844301e-01  9.9999999990401944e-01  9.9999999993921540e-01  9.9999999996150568e-01  9.9999999997562172e-01  9.9999999998456246e-01  9.9999999999022293e-01  9.9999999999380884e-01  9.9999999999607958e-01  9.9999999999751732e-01  9.9999999999842715e-01  9.9999999999900469e-01  9.9999999999936895e-01  9.9999999999960154e-01  9.9999999999974731e-01  9.9999999999984091e-01  9.9999999999989930e-01  9.9999999999993672e-01  9.9999999999996081e-01  9.9999999999997624e-01  9.9999999999998568e-01  9.9999999999999145e-01  9.9999999999999512e-01  9.9999999999999734e-01  9.9999999999999878e-01  9.9999999999999933e-01  1.0000000000000000e+00  1.0000000000000004e+00  1.0000000000000000e+00  1.0000000000000004e+00  1.0000000000000007e+00  1.0000000000000002e+00  9.9999999999999933e-01  1.0000000000000007e+00  1.0000000000000009e+00  1.0000000000000007e+00  1.0000000000000016e+00  1.0000000000000004e+00  1.0000000000000009e+00  9.9999999999999989e-01  1.0000000000000004e+00  1.0000000000000000e+00  1.0000000000000016e+00  1.0000000000000011e+00  1.0000000000000007e+00  1.0000000000000007e+00  1.0000000000000002e+00  1.0000000000000007e+00  1