<?xml version="1.0"?>
<VTKFile type="UnstructuredGrid"  version="0.1"  >
<UnstructuredGrid>
<Piece  NumberOfPoints="21400" NumberOfCells="42336">
<Points>
<DataArray  type="Float64"  NumberOfComponents="3"  format="ascii">0 0 0  0.004583333333333333 0 0  0.009166666666666667 0 0  0.01375 0 0  0.01833333333333333 0 0  0.02291666666666667 0 0  0.0275 0 0  0.03208333333333334 0 0  0.03666666666666667 0 0  0.04125 0 0  0.04583333333333334 0 0  0.05041666666666667 0 0  0.055 0 0  0.05958333333333334 0 0  0.06416666666666668 0 0  0.06875000000000001 0 0  0.07333333333333333 0 0  0.07791666666666666 0 0  0.08249999999999999 0 0  0.08708333333333333 0 0  0.09166666666666667 0 0  0.09625000000000002 0 0  0.1008333333333333 0 0  0.1054166666666667 0 0  0.11 0 0  0.1145833333333333 0 0  0.1191666666666667 0 0  0.12375 0 0  0.1283333333333334 0 0  0.1329166666666667 0 0  0.1375 0 0  0.1420833333333333 0 0  0.1466666666666667 0 0  0.15125 0 0  0.1558333333333333 0 0  0.1604166666666667 0 0  0.165 0 0  0.1695833333333333 0 0  0.1741666666666667 0 0  0.17875 0 0  0.1833333333333333 0 0  0.1879166666666667 0 0  0.1925 0 0  0.1970833333333333 0 0  0.2016666666666667 0 0  0.20625 0 0  0.2108333333333333 0 0  0.2154166666666666 0 0  0.22 0 0  0.2245833333333334 0 0  0.2291666666666667 0 0  0.23375 0 0  0.2383333333333333 0 0  0.2429166666666667 0 0  0.2475 0 0  0.2520833333333333 0 0  0.2566666666666667 0 0  0.26125 0 0  0.2658333333333334 0 0  0.2704166666666666 0 0  0.275 0 0  0.2795833333333334 0 0  0.2841666666666667 0 0  0.28875 0 0  0.2933333333333333 0 0  0.2979166666666667 0 0  0.3025 0 0  0.3070833333333334 0 0  0.3116666666666666 0 0  0.31625 0 0  0.3208333333333333 0 0  0.3254166666666667 0 0  0.33 0 0  0.3345833333333333 0 0  0.3391666666666667 0 0  0.34375 0 0  0.3483333333333333 0 0  0.3529166666666667 0 0  0.3575 0 0  0.3620833333333333 0 0  0.3666666666666667 0 0  0.37125 0 0  0.3758333333333334 0 0  0.3804166666666667 0 0  0.3850000000000001 0 0  0.3895833333333333 0 0  0.3941666666666667 0 0  0.39875 0 0  0.4033333333333334 0 0  0.4079166666666666 0 0  0.4125 0 0  0.4170833333333334 0 0  0.4216666666666667 0 0  0.42625 0 0  0.4308333333333333 0 0  0.4354166666666667 0 0  0.44 0 0  0.4445833333333333 0 0  0.4491666666666667 0 0  0.45375 0 0  0.4583333333333333 0 0  0.4629166666666666 0 0  0.4675 0 0  0.4720833333333334 0 0  0.4766666666666667 0 0  0.4812500000000001 0 0  0.4858333333333333 0 0  0.4904166666666667 0 0  0.495 0 0  0.4995833333333334 0 0  0.5041666666666667 0 0  0.50875 0 0  0.5133333333333334 0 0  0.5179166666666667 0 0  0.5225 0 0  0.5270833333333333 0 0  0.5316666666666667 0 0  0.53625 0 0  0.5408333333333333 0 0  0.5454166666666667 0 0  0.55 0 0  0.5545833333333333 0 0  0.5591666666666667 0 0  0.5637500000000001 0 0  0.5683333333333334 0 0  0.5729166666666666 0 0  0.5775 0 0  0.5820833333333334 0 0  0.5866666666666667 0 0  0.5912499999999999 0 0  0.5958333333333334 0 0  0.6004166666666667 0 0  0.605 0 0  0.6095833333333334 0 0  0.6141666666666667 0 0  0.61875 0 0  0.6233333333333333 0 0  0.6279166666666667 0 0  0.6325000000000001 0 0  0.6370833333333333 0 0  0.6416666666666666 0 0  0.64625 0 0  0.6508333333333334 0 0  0.6554166666666666 0 0  0.6599999999999999 0 0  0.6645833333333334 0 0  0.6691666666666667 0 0  0.67375 0 0  0.6783333333333333 0 0  0.6829166666666667 0 0  0.6875 0 0  0.6920833333333333 0 0  0.6966666666666667 0 0  0.70125 0 0  0.7058333333333333 0 0  0.7104166666666667 0 0  0.7150000000000001 0 0  0.7195833333333334 0 0  0.7241666666666666 0 0  0.72875 0 0  0.7333333333333334 0 0  0.7379166666666667 0 0  0.7425 0 0  0.7470833333333333 0 0  0.7516666666666667 0 0  0.75625 0 0  0.7608333333333334 0 0  0.7654166666666666 0 0  0.7700000000000001 0 0  0 0.002380952380952381 0  0.004583333333333333 0.002380952380952381 0  0.009166666666666667 0.002380952380952381 0  0.01375 0.002380952380952381 0  0.01833333333333333 0.002380952380952381 0  0.02291666666666667 0.002380952380952381 0  0.0275 0.002380952380952381 0  0.03208333333333334 0.002380952380952381 0  0.03666666666666667 0.002380952380952381 0  0.04125 0.002380952380952381 0  0.04583333333333334 0.002380952380952381 0  0.05041666666666667 0.002380952380952381 0  0.055 0.002380952380952381 0  0.05958333333333334 0.002380952380952381 0  0.06416666666666668 0.002380952380952381 0  0.06875000000000001 0.002380952380952381 0  0.07333333333333333 0.002380952380952381 0  0.07791666666666666 0.002380952380952381 0  0.08249999999999999 0.002380952380952381 0  0.08708333333333333 0.002380952380952381 0  0.09166666666666667 0.002380952380952381 0  0.09625000000000002 0.002380952380952381 0  0.1008333333333333 0.002380952380952381 0  0.1054166666666667 0.002380952380952381 0  0.11 0.002380952380952381 0  0.1145833333333333 0.002380952380952381 0  0.1191666666666667 0.002380952380952381 0  0.12375 0.002380952380952381 0  0.1283333333333334 0.002380952380952381 0  0.1329166666666667 0.002380952380952381 0  0.1375 0.002380952380952381 0  0.1420833333333333 0.002380952380952381 0  0.1466666666666667 0.002380952380952381 0  0.15125 0.002380952380952381 0  0.1558333333333333 0.002380952380952381 0  0.1604166666666667 0.002380952380952381 0  0.165 0.002380952380952381 0  0.1695833333333333 0.002380952380952381 0  0.1741666666666667 0.002380952380952381 0  0.17875 0.002380952380952381 0  0.1833333333333333 0.002380952380952381 0  0.1879166666666667 0.002380952380952381 0  0.1925 0.002380952380952381 0  0.1970833333333333 0.002380952380952381 0  0.2016666666666667 0.002380952380952381 0  0.20625 0.002380952380952381 0  0.2108333333333333 0.002380952380952381 0  0.2154166666666666 0.002380952380952381 0  0.22 0.002380952380952381 0  0.2245833333333334 0.002380952380952381 0  0.2291666666666667 0.002380952380952381 0  0.23375 0.002380952380952381 0  0.2383333333333333 0.002380952380952381 0  0.2429166666666667 0.002380952380952381 0  0.2475 0.002380952380952381 0  0.2520833333333333 0.002380952380952381 0  0.2566666666666667 0.002380952380952381 0  0.26125 0.002380952380952381 0  0.2658333333333334 0.002380952380952381 0  0.2704166666666666 0.002380952380952381 0  0.275 0.002380952380952381 0  0.2795833333333334 0.002380952380952381 0  0.2841666666666667 0.002380952380952381 0  0.28875 0.002380952380952381 0  0.2933333333333333 0.002380952380952381 0  0.2979166666666667 0.002380952380952381 0  0.3025 0.002380952380952381 0  0.3070833333333334 0.002380952380952381 0  0.3116666666666666 0.002380952380952381 0  0.31625 0.002380952380952381 0  0.3208333333333333 0.002380952380952381 0  0.3254166666666667 0.002380952380952381 0  0.33 0.002380952380952381 0  0.3345833333333333 0.002380952380952381 0  0.3391666666666667 0.002380952380952381 0  0.34375 0.002380952380952381 0  0.3483333333333333 0.002380952380952381 0  0.3529166666666667 0.002380952380952381 0  0.3575 0.002380952380952381 0  0.3620833333333333 0.002380952380952381 0  0.3666666666666667 0.002380952380952381 0  0.37125 0.002380952380952381 0  0.3758333333333334 0.002380952380952381 0  0.3804166666666667 0.002380952380952381 0  0.3850000000000001 0.002380952380952381 0  0.3895833333333333 0.002380952380952381 0  0.3941666666666667 0.002380952380952381 0  0.39875 0.002380952380952381 0  0.4033333333333334 0.002380952380952381 0  0.4079166666666666 0.002380952380952381 0  0.4125 0.002380952380952381 0  0.4170833333333334 0.002380952380952381 0  0.4216666666666667 0.002380952380952381 0  0.42625 0.002380952380952381 0  0.4308333333333333 0.002380952380952381 0  0.4354166666666667 0.002380952380952381 0  0.44 0.002380952380952381 0  0.4445833333333333 0.002380952380952381 0  0.4491666666666667 0.002380952380952381 0  0.45375 0.002380952380952381 0  0.4583333333333333 0.002380952380952381 0  0.4629166666666666 0.002380952380952381 0  0.4675 0.002380952380952381 0  0.4720833333333334 0.002380952380952381 0  0.4766666666666667 0.002380952380952381 0  0.4812500000000001 0.002380952380952381 0  0.4858333333333333 0.002380952380952381 0  0.4904166666666667 0.002380952380952381 0  0.495 0.002380952380952381 0  0.4995833333333334 0.002380952380952381 0  0.5041666666666667 0.002380952380952381 0  0.50875 0.002380952380952381 0  0.5133333333333334 0.002380952380952381 0  0.5179166666666667 0.002380952380952381 0  0.5225 0.002380952380952381 0  0.5270833333333333 0.002380952380952381 0  0.5316666666666667 0.002380952380952381 0  0.53625 0.002380952380952381 0  0.5408333333333333 0.002380952380952381 0  0.5454166666666667 0.002380952380952381 0  0.55 0.002380952380952381 0  0.5545833333333333 0.002380952380952381 0  0.5591666666666667 0.002380952380952381 0  0.5637500000000001 0.002380952380952381 0  0.5683333333333334 0.002380952380952381 0  0.5729166666666666 0.002380952380952381 0  0.5775 0.002380952380952381 0  0.5820833333333334 0.002380952380952381 0  0.5866666666666667 0.002380952380952381 0  0.5912499999999999 0.002380952380952381 0  0.5958333333333334 0.002380952380952381 0  0.6004166666666667 0.002380952380952381 0  0.605 0.002380952380952381 0  0.6095833333333334 0.002380952380952381 0  0.6141666666666667 0.002380952380952381 0  0.61875 0.002380952380952381 0  0.6233333333333333 0.002380952380952381 0  0.6279166666666667 0.002380952380952381 0  0.6325000000000001 0.002380952380952381 0  0.6370833333333333 0.002380952380952381 0  0.6416666666666666 0.002380952380952381 0  0.64625 0.002380952380952381 0  0.6508333333333334 0.002380952380952381 0  0.6554166666666666 0.002380952380952381 0  0.6599999999999999 0.002380952380952381 0  0.6645833333333334 0.002380952380952381 0  0.6691666666666667 0.002380952380952381 0  0.67375 0.002380952380952381 0  0.6783333333333333 0.002380952380952381 0  0.6829166666666667 0.002380952380952381 0  0.6875 0.002380952380952381 0  0.6920833333333333 0.002380952380952381 0  0.6966666666666667 0.002380952380952381 0  0.70125 0.002380952380952381 0  0.7058333333333333 0.002380952380952381 0  0.7104166666666667 0.002380952380952381 0  0.7150000000000001 0.002380952380952381 
[...]
<PointData  Scalars="concentration"> 
<DataArray  type="Float64"  Name="concentration"  format="ascii">0.0000000000000000e+00  2.6183827961058598e-14  3.5487335976135426e-14  6.0000499348631045e-14  6.5928365857250262e-14  1.0017192594327912e-13  1.0692237130470363e-13  1.6029789227160242e-13  1.7002139166978666e-13  2.5492202155829953e-13  2.6962009248985458e-13  4.0514687308807603e-13  4.2750098986637543e-13  6.4400044830031907e-13  6.7795934423678529e-13  1.0239016532429915e-12  1.0753707329139589e-12  1.6282496756047642e-12  1.7060586889257370e-12  2.5898042437266979e-12  2.7071128737776866e-12  4.1199489085383600e-12  4.2962899769775518e-12  6.5553193121726101e-12  6.8195495227059201e-12  1.0432124482459587e-11  1.0826647186845808e-11  1.6604637543201560e-11  1.7191378086960427e-11  2.6434152316396082e-11  2.7302895350239632e-11  4.2090388798019366e-11  4.3370204032874319e-11  6.7032395729521892e-11  6.8906927475624226e-11  1.0677606421584710e-10  1.0950332326015733e-10  1.7011943437252818e-10  1.7405617865340366e-10  2.7109946851840340e-10  2.7672885970461042e-10  4.3211799505434097e-10  4.4007618093144496e-10  6.8893716997538994e-10  7.0002834900041324e-10  1.0986655533793698e-09  1.1138434208670984e-09  1.7525302998997964e-09  1.7728021756034781e-09  2.7963125603186846e-09  2.8224833735399793e-09  4.4630589432272261e-09  4.4951625731181873e-09  7.1254693320493668e-09  7.1616122888274803e-09  1.1379841054486464e-08  1.1413970201013028e-08  1.8180654582545031e-08  1.8198392082550270e-08  2.9056485128385324e-08  2.9027540710392377e-08  4.6456615615303371e-08  4.6321203000921026e-08  7.4307878172907258e-08  7.3952713845022268e-08  1.1890994870133533e-07  1.1812625997257297e-07  1.9037607354857915e-07  1.8878667058962543e-07  3.0495375889145873e-07  3.0188705319338039e-07  4.8876687816905571e-07  4.8304002741607879e-07  7.8385696547428909e-07  7.7340333615161679e-07  1.2579492090907684e-06  1.2391787239975004e-06  2.0202628715051777e-06  1.9869627671790618e-06  3.2471496107177850e-06  3.1885912665933306e-06  5.2237465609237089e-06  5.1214137985840903e-06  8.4117911531650411e-06  8.2337002382754897e-06  1.3560296492214475e-05  1.3251079350837765e-05  2.1886677404929002e-05  2.1350153731886627e-05  3.5374123647877368e-05  3.4442446485186124e-05  5.7261654373321608e-05  5.5640243609411800e-05  9.2855259536852816e-05  9.0023666601207300e-05  1.5087756257672864e-04  1.4590932296000165e-04  2.4572781183343804e-04  2.3695973291509907e-04  4.0129581979097222e-04  3.8571392066953110e-04  6.5746153708609947e-04  6.2954580658520012e-04  1.0813108972239358e-03  1.0308275697086232e-03  1.7868103915642209e-03  1.6945107844432545e-03  2.9700891097222898e-03  2.7991247971729766e-03  4.9746616174014373e-03  4.6529122278556280e-03  8.4172957435209913e-03  7.7995013727280458e-03  1.4446532185966600e-02  1.3228790992281605e-02  2.5324907076324159e-02  2.2839433327519774e-02  4.5928176883428866e-02  4.0653504450283193e-02  8.9063871856546920e-02  7.2550242022811254e-02  3.9905132943564192e-01  3.3665146687897379e-01  8.4147918075102113e-01  1.1645780915149939e+00  1.0977195859219699e+00  1.0489695924485429e+00  1.0289655102220949e+00  1.0173512440190673e+00  1.0105622843920534e+00  1.0064860526994350e+00  1.0040080575543116e+00  1.0024881896858608e+00  1.0015500700208935e+00  1.0009682730654241e+00  1.0006061404866857e+00  1.0003800918123054e+00  1.0002386697812469e+00  1.0001500325676047e+00  1.0000943978422185e+00  1.0000594366688040e+00  1.0000374459074475e+00  1.0000236028572191e+00  1.0000148832173994e+00  1.0000093879317888e+00  1.0000059232278475e+00  1.0000037380195574e+00  1.0000023594038310e+00  1.0000014894523515e+00  1.0000009403793637e+00  1.0000005937755589e+00  1.0000003749526849e+00  1.0000002367877736e+00  1.0000001495426660e+00  1.0000000944474199e+00  1.0000000596525562e+00  1.0000000376773985e+00  1.0000000237977722e+00  1.0000000150314770e+00  1.0000000094939092e+00  1.0000000059965943e+00  1.0000000037865480e+00  1.0000000023914211e+00  1.0000000015083104e+00  1.0000000009525369e+00  1.0000000005966250e+00  1.0000000003822576e+00  1.0000000002055172e+00  1.0000000002795413e+00  0.0000000000000000e+00  8.4736001672047513e-15  3.0532815234983812e-14  3.6924149748569556e-14  6.4050537219860760e-14  6.8725852127369712e-14  1.0837939940914429e-13  1.1314237086611412e-13  1.7488301433135491e-13  1.8096136090835099e-13  2.7891055100095224e-13  2.8736431048232167e-13  4.4357046479798192e-13  4.5556001006073559e-13  7.0504645095372721e-13  7.2198122940153661e-13  1.1206534902637890e-12  1.1442522269014800e-12  1.7814725194312132e-12  1.8137078838106668e-12  2.8323818370584798e-12  2.8752098586107241e-12  4.5039162700848180e-12  4.5585803720180393e-12  7.1629876482586841e-12  7.2284998341918633e-12  1.1393664723641807e-11  1.1463739552012046e-11  1.8125858823192868e-11  1.8183005158919288e-11  2.8840368929080346e-11  2.8844854216695243e-11  4.5895665337680636e-11  4.5765359958675327e-11  7.3048803578382155e-11  7.2622987033376275e-11  1.1628598313593373e-10  1.1526120511608123e-10  1.8514712739019713e-10  1.8296474848310099e-10  2.9483885997774535e-10  2.9048957656961664e-10  4.6960602236286721e-10  4.6129254414259367e-10  7.4811284474771940e-10  7.3267132756958945e-10  1.1920341808894682e-09  1.1639470030089764e-09  1.8997759919383451e-09  1.8494946537524850e-09  3.0283946474317435e-09  2.9395014540133092e-09  4.8286266513262707e-09  4.6730466355152642e-09  7.7008914677371610e-09  7.4308372609894897e-09  1.2284860558500151e-08  1.1819311984111578e-08  1.9602773041972783e-08  1.8804825678486158e-08  3.1288855946205940e-08  2.9927827411806398e-08  4.9956766113191223e-08  4.7644870450500289e-08  7.9788410794859004e-08  7.5875001103588026e-08  1.2747808610045543e-07  1.2087307283542645e-07  2.0374733025101298e-07  1.9262627798874409e-07  3.2577720979476449e-07  3.0708848119206316e-07  5.2111671773926066e-07  4.8975678337788913e-07  8.3396853635291795e-07  7.8139957836083837e-07  1.3353079133127336e-06  1.2472350624050201e-06  2.1391894122599137e-06  1.9916461587079214e-06  3.4290566084230714e-06  3.1817830419006027e-06  5.5002468498269958e-06  5.0854389156750551e-06  8.8287617058083341e-06  8.1318562033953099e-06  1.4182719134694374e-05  1.3009379731564662e-05  2.2803316700399719e-05  2.0822323050117613e-05  3.6699284403598662e-05  3.3342970296150603e-05  5.9127163168149475e-05  5.3416331459497380e-05  9.5376859503786384e-05  8.5609838995516643e-05  1.5406064689183272e-04  1.3725483767564915e-04  2.4923620440983380e-04  2.2011197839552383e-04  4.0391888178282223e-04  3.5302223919512837e-04  6.5592323658990174e-04  5.6609240420378961e-04  1.0676418351809125e-03  9.0720303029762106e-04  1.7425473574872302e-03  1.4518279183239043e-03  2.8533241364585523e-03  2.3169061500269567e-03  4.6904474340630021e-03  3.6772194822034926e-03  7.7474601406993006e-03  5.7722453433481560e-03  1.2873609395404073e-02  8.8471705196326005e-03  2.1550069381021025e-02  1.2774460331020147e-02  3.6323513654557070e-02  1.5167853484727486e-02  6.0168846537537388e-02  -5.1280773667380923e-02  3.4403169719525374e-02  -4.0556993704713717e-02  1.1608252623714256e-01  5.1004621829632468e-01  6.9297015724634536e-01  8.0773360519015003e-01  8.7915218873492129e-01  9.2393114196001414e-01  9.5207046336030288e-01  9.6978074402513825e-01  9.8093811152680410e-01  9.8797194348531581e-01  9.9240836322620096e-01  9.9520752754086650e-01  9.9697413880275243e-01  9.9808931392322686e-01  9.9879338184812116e-01  9.9923795214155331e-01  9.9951869536183935e-01  9.9969599679547072e-01  9.9980797730983717e-01  9.9987870581467564e-01  9.9992338075585852e-01  9.9995160014075379e-01  9.9996942566710900e-01  9.9998068586980060e-01  9.9998779894269163e-01  9.9999229233195230e-01  9.9999513087405822e-01  9.9999692403879525e-01  9.9999805682441723e-01  9.9999877243605040e-01  9.9999922450888434e-01  9.9999951009741295e-01  9.9999969051260629e-01  9.9999980448693104e-01  9.9999987648785382e-01  9.9999992197350296e-01  9.9999995070756753e-01  9.9999996886039866e-01  9.9999998032685422e-01  9.9999998757181552e-01  9.9999999214622259e-01  9.9999999503883896e-01  9.9999999686072349e-01  9.9999999801763062e-01  9.9999999874225165e-01  0.0000000000000000e+00  1.8091105991252411e-14  2.1620019449106184e-14  4.1052963351535752e-14  4.1925340214150048e-14  6.9939940545998881e-14  6.9249934549540014e-14  1.1281027088899563e-13  1.1058145657185148e-13  1.7968348696432719e-13  1.7516915596843554e-13  2.8535734697853469e-13  2.7694212462972302e-13  4.5289433326051739e-13  4.3764441909723705e-13  7.1874121493055393e-13  6.9153022493217393e-13  1.1406981452371644e-12  1.0926831914570060e-12  1.8105122955634992e-12  1.7265423341050585e-12  2.8738545115220460e-12  2.7280968432379656e-12  4.5620376393794308e-12  4.3106250321758796e-12  7.2423916524402651e-12  6.8110928028053598e-12  1.1498277763175979e-11  1.0761867870272925e-11  1.8256187498348592e-11  1.7003998143935637e-11  2.8987643343753041e-11  2.6866131697334132e-11  4.6029936332063350e-11  4.2447092414528989e-11  7.3095664288649809e-11  6.7062120068841494e-11  1.1608223097415610e-10  1.0594748759507564e-10  1.8435792123112463e-10  1.6737295143305373e-10  2.9280516275761031e-10  2.6439781809495874e-10  4.6506680921226606e-10  4.1764249567410600e-10  7.3870376900032502e-10  6.5966183322860759e-10  1.1733892927273114e-09  1.0418442743625414e-09  1.8639276037038094e-09  1.6452924373574697e-09  2.9609366026912760e-09  2.5979768827934476e-09  4.7037051382571726e-09  4.1017689428476034e-09  7.4723882670731778e-09  6.4750217307444707e-09  1.1870915624587193e-08  1.0219604013701930e-08  1.8858672836099348e-08  1.6126358315089232e-08  2.9959623121457028e-08  2.5440874836403930e-08  4.7594361828518172e-08  4.0123827239526475e-08  7.5607275279308520e-08  6.3259336963753769e-08  1.2010325633137795e-07  9.9694638209387779e-08  1.9077539718564672e-07  1.5704034660419931e-07  3.0301107192281490e-07  2.4723135627876613e-07  4.8123142505272072e-07  3.8895632483394053e-07  7.6418401213217213e-07  6.1142700263147618e-07  1.2133258804166790e-06  9.6020284502911483e-07  1.9260917363856881e-06  1.5061456305878138e-06  3.0568743107496420e-06  2.3590953404092148e-06  4.8501605911440189e-06  3.6885754977305122e-06  7.6927881405390111e-06  5.7547752542349303e-06  1.2196193444801786e-05  8.9541579017190584e-06  1.9325534597409305e-05  1.3885028979016362e-05  3.0601710190909608e-05  2.1438425578458329e-05  4.8415960664162189e-05  3.2916621158746016e-05  7.6516634836119678e-05  5.0170236833456345e-05  1.2075542207188759e-04  7.5713422903212922e-05  1.9021589291763353e-04  1.1269713226737744e-04  2.9888477576781654e-04  1.6442892537727962e-04  4.6804318784571036e-04  2.3267277506240606e-04  7.2948151716997550e-04  3.1287843692520527e-04  1.1292833908469896e-03  3.8185999922070647e-04  1.7307510636821524e-03  3.6684552361259900e-04  2.6116035168422696e-03  6.7404025331429507e-05  3.8407656883648073e-03  -1.0477542007029566e-03  5.3914248685863501e-03  -4.4041186928162317e-03  6.8497096984095202e-03  -1.4072048137710791e-02  6.2523627445305536e-03  -4.9002982795551812e-02  2.3216986932751149e-02  -3.2760863982053953e-02  1.7562188611396920e-01  5.1699529613174822e-01  7.0692757564637809e-01  8.1693579383238157e-01  8.8478204019931872e-01  9.2728869547437787e-01  9.5404947373864879e-01  9.7093758778091954e-01  9.8160932802283829e-01  9.8835835110588588e-01  9.9262882349279458e-01  9.9533195603853686e-01  9.9704342507972377e-01  9.9812722869391557e-01  9.9881365071861561e-01  9.9924843748654302e-01  9.9952385747358918e-01  9.9969833558219623e-01  9.9980887242928318e-01  9.9987890329716134e-01  9.9992327283772031e-01  9.9995138477451262e-01  9.9996919645923554e-01  9.9998048209514923e-01  9.9998763286181425e-01  9.9999216375376143e-01  9.9999503465666906e-01  9.9999685375580039e-01  9.9999800640383441e-01  9.9999873676755013e-01  9.9999919955680661e-01  9.9999949280070488e-01  9.9999967861340255e-01  9.9999979635330383e-01  9.9999987095876630e-01  9.9999991823274748e-01  9.9999994818744253e-01  9.9999996716873429e-01  9.9999997919538819e-01  9.9999998681699931e-01  9.9999999164481446e-01  9.9999999470583845e-01  9.9999999664210359e-01  9.9999999787338767e-01  9.9999999864814559e-01  9.9999999914189719e-01  0.0000000000000000e+00  3.6801530109411930e-15  1.9228579443937868e-14  1.8784684858924343e-14  3.8767220948125148e-14  3.4855840377219042e-14  6.4786651462427673e-14  5.6967088576665112e-14  1.0393976413967113e-13  9.0399805613182833e-14  1.6507203377918041e-13  1.4235405658014073e-13  2.6147386059803218e-13  2.2366820042877091e-13  4.1388110779447513e-13  3.5114142057226931e-13  6.5497775671085645e-13  5.5101076090829571e-13  1.0364141129281261e-12  8.6432132313290437e-13  1.6398605420437111e-12  1.3552879129427318e-12  2.5944629058753503e-12  2.1243357501422308e-12  4.1044220164643184e-12  3.3284356767252256e-12  6.4925680982465607e-12  5.2127931217888047e-12  1.0269194333916886e-11  8.1601874234905762e-12  1.6240765478581544e-11  1.2767716825012355e-11  2.5681553621073713e-11  1.9966040294049239e-11  4.0604543506993699e-11  3.1204421127322405e-11  6.4188875768492668e-11  4.8737490551035312e-11  1.0145402436931167e-10  7.6068964508938367e-11  1.6032268271937626e-10  1.1863702866844176e-10  2.5329568989024381e-10  1.8487093682633798e-10  4.0009005161959878e-10  2.8781623271674155e-10  6.3179143171535464e-10  4.4762819385633441e-10  9.9738633165407646e-10  6.9538597939571736e-10  1.5740302698658083e-09  1.0789068884041293e-09  2.4831756603666033e-09  1.6715736447173884e-09  3.9158803306291663e-09  2.5856716299315151e-09  6.1724821359330695e-09  3.9924238408401383e-09  9.7247228447320072e-09  6.1518754244467666e-09  1.5312897232129700e-08  9.4570822326254655e-09  2.4097549948051966e-08  1.4498732740332828e-08  3.7895948978522452e-08  2.2158311301825367e-08  5.9550002795310139e-08  3.3739869340336248e-08  9.3497414202018853e-08  5.1151516425700890e-08  1.4665606203756300e-07  7.7145784586591431e-08  2.2978929338108991e-07  1.1561853927317742e-07  3.5960623841643103e-07  1.7193979288869225e-07  5.6197943116094696e-07  2.5322797464769153e-07  8.7684962019586898e-07  3.6834534978681240e-07  1.3656575339113385e-06  5.2711563824222578e-07  2.1225215237209676e-06  7.3771006715352846e-07  3.2908948505228521e-06  1.0000577454428287e-06  5.0880996447818500e-06  1.2910235357763478e-06  7.8409149423457851e-06  1.5330434202637023e-06  1.2036153673830888e-05  1.5301852152402772e-06  1.8390520352606888e-05  8.4095892778880902e-07  2.7943139189533285e-05  -1.4704859359374853e-06  4.2170218362559355e-05  -7.3154017502418390e-06  6.3111051965616366e-05  -2.0502926928490555e-05  9.3472386219185569e-05  -4.8499064346580511e-05  1.3663670786126229e-04  -1.0576712926605148e-04  1.9643665807703509e-04  -2.2009074741075692e-04  2.7650658972340020e-04  -4.4449639662882663e-04  3.7918199387833562e-04  -8.7957824616124428e-04  5.0514526743371930e-04  -1.7146426229807884e-03  6.6077148215470081e-04  -3.3005197087536166e-03  9.0466023940460600e-04  -6.2634171569469965e-03  1.5724265314210261e-03  -1.1593526274908575e-02  4.3881125287338878e-03  -2.0129173010121158e-02  2.5632146802775622e-02  -2.1196683717258125e-02  1.3928717185487874e-02  2.2247576331299390e-01  4.8360178949039556e-01  6.6560439256472970e-01  7.8799344334262666e-01  8.6595321030199968e-01  9.1525276996636140e-01  9.4640882232400547e-01  9.6610186450787439e-01  9.7855352857428335e-01  9.8642891691573564e-01  9.9141113999314634e-01  9.9456366887149183e-01  9.9655875605911426e-01  9.9782150664173674e-01  9.9862081664842761e-01  9.9912681183062113e-01  9.9944714676324098e-01  9.9964995414148949e-01  9.9977835873575371e-01  9.9985965889842321e-01  9.9991113594753833e-01  9.9994373050623431e-01  9.9996436928847932e-01  9.9997743789034599e-01  9.9998571310255835e-01  9.9999095312526354e-01  9.9999427123282125e-01  9.9999637235046679e-01  9.9999770284293044e-01  9.9999854535496235e-01  9.9999907886333006e-01  9.9999941670032544e-01  9.9999963063163833e-01  9.9999976610104813e-01  9.9999985188581053e-01  9.9999990620778756e-01  9.9999994060697772e-01  9.9999996238929989e-01  9.9999997618336267e-01  9.9999998491718245e-01  9.9999999044898857e-01  9.9999999394981476e-01  9.9999999616915358e-01  9.9999999757054114e-01  9.9999999846093879e-01  9.9999999902193115e-01  0.0000000000000000e+00  9.6370282031128316e-15  6.4771852239442950e-15  1.9313078702886773e-14  1.2774419345072873e-14  3.2256817832598123e-14  2.0931549862705159e-14  5.1614391693120952e-14  3.2851619952708311e-14  8.1676576685629592e-14  5.0922103683153960e-14  1.2883688855966843e-13  7.8561543176492332e-14  2.0300180301217017e-13  1.2087958752487080e-13  3.1968487396890952e-13  1.8558978520536132e-13  5.0324095913327215e-13  2.8433873417144219e-13  7.9191780138645534e-13  4.3466240884209375e-13  1.2457662585837816e-12  6.6285825423876403e-13  1.9590291833839686e-12  1.0081705826437560e-12  3.0795356938420232e-12  1.5288272216824234e-12  4.8390415097824742e-12  2.3106312738655995e-12  7.6006560302416494e-12  3.4789801622466992e-12  1.1932914351199711e-11  5.2152944354081465e-12  1.8725352833362901e-11  7.7787553955331003e-12  2.9368653416042918e-11  1.1533692069345974e-11  4.6035103951654080e-11  1.6981368161505076e-11  7.2114678558352299e-11  2.4791233863136949e-11  1.1289212804746515e-10  3.5818934098039492e-11  1.7659663036532979e-10  5.1082840340341981e-11  2.7602615621570488e-10  7.1640945138183617e-11  4.3105632560050684e-10  9.8253670324382414e-11  6.7250691768282424e-10  1.3061417675763169e-10  1.0480861017815885e-09  1.6573837999953994e-10  1.6315035706442843e-09  1.9476559637569246e-10  2.5363980431842396e-09  1.9681102052035416e-10  3.9375462697023201e-09  1.2742950840333471e-10  6.1030277216983965e-09  -1.0265800853673320e-10  9.4427728195680998e-09  -6.6627416462157517e-10  1.4581435488179468e-08  -1.8894877573577223e-09  2.2467068913352236e-08  -4.3760767434846460e-09  3.4531950588972857e-08  -9.2282661236823005e-09  5.2928388317151112e-08  -1.8436029284897811e-08  8.0870587941815346e-08  -3.5560498553934211e-08  1.2312340285917711e-07  -6.6929038862897486e-08  1.8668878526250149e-07  -1.2371825398095438e-07  2.8174784240860774e-07  -2.2557460597198939e-07  4.2291370778028958e-07  -4.0689269899845698e-07  6.3082455704717592e-07  -7.2767939200659715e-07  9.3403268812324559e-07  -1.2923181579001743e-06  1.3709834859467486e-06  -2.2819217295445927e-06  1.9915636571621686e-06  -4.0100156699802667e-06  2.8571466028128636e-06  -7.0181992833584585e-06  4.0371981224849025e-06  -1.2240132630484438e-05  5.5993780439347934e-06  -2.1281907027610959e-05  7.5892231052070466e-06  -3.6899735304481074e-05  9.9969739593554898e-06  -6.3809966582136689e-05  1.2719205695524983e-05  -1.1005336290466237e-04  1.5559311796443883e-05  -1.8927021939976150e-04  1.8421153484150504e-05  -3.2443782248628666e-04  2.2159782550998820e-05  -5.5386633336521746e-04  3.1390290359362424e-05  -9.4044667550444660e-04  6.2778146728585798e-05  -1.5849470177956770e-03  1.6818225173069264e-04  -2.6426290230880567e-03  4.9728769619676323e-04  -4.3379903603422698e-03  1.4632926676439229e-03  -6.9687119240477097e-03  4.1673520792046732e-03  -1.1002998203312178e-02  1.1702405001211939e-02  -2.3535385879043812e-02  2.7603214067270202e-03  -1.7357602962177664e-02  1.3628266333019867e-01  4.7867541952840142e-01  6.7235571969786090e-01  7.9371380017299664e-01  8.6993102840287317e-01  9.1788957608974153e-01  9.4812074494783405e-01  9.6720208517721407e-01  9.7925656346291956e-01  9.8687659076988488e-01  9.9169557357084814e-01  9.9474411953648645e-01  9.9667312175314482e-01  9.9789393725268216e-01  9.9866666496463974e-01  9.9915582250149970e-01  9.9946549801787821e-01  9.9966155996633854e-01  9.9978569726726918e-01  9.9986429849605551e-01  9.9991406887061729e-01  9.9994558437352998e-01  9.9996554099971990e-01  9.9997817840121384e-01  9.9998618106918524e-01  9.9999124884065382e-01  9.9999445809037790e-01  9.9999649041709926e-