<?xml version="1.0"?>
<VTKFile type="UnstructuredGrid"  version="0.1"  >
<UnstructuredGrid>
<Piece  NumberOfPoints="21400" NumberOfCells="42336">
<Points>
<DataArray  type="Float64"  NumberOfComponents="3"  format="ascii">0 0 0  0.004583333333333333 0 0  0.009166666666666667 0 0  0.01375 0 0  0.01833333333333333 0 0  0.02291666666666667 0 0  0.0275 0 0  0.03208333333333334 0 0  0.03666666666666667 0 0  0.04125 0 0  0.04583333333333334 0 0  0.05041666666666667 0 0  0.055 0 0  0.05958333333333334 0 0  0.06416666666666668 0 0  0.06875000000000001 0 0  0.07333333333333333 0 0  0.07791666666666666 0 0  0.08249999999999999 0 0  0.08708333333333333 0 0  0.09166666666666667 0 0  0.09625000000000002 0 0  0.1008333333333333 0 0  0.1054166666666667 0 0  0.11 0 0  0.1145833333333333 0 0  0.1191666666666667 0 0  0.12375 0 0  0.1283333333333334 0 0  0.1329166666666667 0 0  0.1375 0 0  0.1420833333333333 0 0  0.1466666666666667 0 0  0.15125 0 0  0.1558333333333333 0 0  0.1604166666666667 0 0  0.165 0 0  0.1695833333333333 0 0  0.1741666666666667 0 0  0.17875 0 0  0.1833333333333333 0 0  0.1879166666666667 0 0  0.1925 0 0  0.1970833333333333 0 0  0.2016666666666667 0 0  0.20625 0 0  0.2108333333333333 0 0  0.2154166666666666 0 0  0.22 0 0  0.2245833333333334 0 0  0.2291666666666667 0 0  0.23375 0 0  0.2383333333333333 0 0  0.2429166666666667 0 0  0.2475 0 0  0.2520833333333333 0 0  0.2566666666666667 0 0  0.26125 0 0  0.2658333333333334 0 0  0.2704166666666666 0 0  0.275 0 0  0.2795833333333334 0 0  0.2841666666666667 0 0  0.28875 0 0  0.2933333333333333 0 0  0.2979166666666667 0 0  0.3025 0 0  0.3070833333333334 0 0  0.3116666666666666 0 0  0.31625 0 0  0.3208333333333333 0 0  0.3254166666666667 0 0  0.33 0 0  0.3345833333333333 0 0  0.3391666666666667 0 0  0.34375 0 0  0.3483333333333333 0 0  0.3529166666666667 0 0  0.3575 0 0  0.3620833333333333 0 0  0.3666666666666667 0 0  0.37125 0 0  0.3758333333333334 0 0  0.3804166666666667 0 0  0.3850000000000001 0 0  0.3895833333333333 0 0  0.3941666666666667 0 0  0.39875 0 0  0.4033333333333334 0 0  0.4079166666666666 0 0  0.4125 0 0  0.4170833333333334 0 0  0.4216666666666667 0 0  0.42625 0 0  0.4308333333333333 0 0  0.4354166666666667 0 0  0.44 0 0  0.4445833333333333 0 0  0.4491666666666667 0 0  0.45375 0 0  0.4583333333333333 0 0  0.4629166666666666 0 0  0.4675 0 0  0.4720833333333334 0 0  0.4766666666666667 0 0  0.4812500000000001 0 0  0.4858333333333333 0 0  0.4904166666666667 0 0  0.495 0 0  0.4995833333333334 0 0  0.5041666666666667 0 0  0.50875 0 0  0.5133333333333334 0 0  0.5179166666666667 0 0  0.5225 0 0  0.5270833333333333 0 0  0.5316666666666667 0 0  0.53625 0 0  0.5408333333333333 0 0  0.5454166666666667 0 0  0.55 0 0  0.5545833333333333 0 0  0.5591666666666667 0 0  0.5637500000000001 0 0  0.5683333333333334 0 0  0.5729166666666666 0 0  0.5775 0 0  0.5820833333333334 0 0  0.5866666666666667 0 0  0.5912499999999999 0 0  0.5958333333333334 0 0  0.6004166666666667 0 0  0.605 0 0  0.6095833333333334 0 0  0.6141666666666667 0 0  0.61875 0 0  0.6233333333333333 0 0  0.6279166666666667 0 0  0.6325000000000001 0 0  0.6370833333333333 0 0  0.6416666666666666 0 0  0.64625 0 0  0.6508333333333334 0 0  0.6554166666666666 0 0  0.6599999999999999 0 0  0.6645833333333334 0 0  0.6691666666666667 0 0  0.67375 0 0  0.6783333333333333 0 0  0.6829166666666667 0 0  0.6875 0 0  0.6920833333333333 0 0  0.6966666666666667 0 0  0.70125 0 0  0.7058333333333333 0 0  0.7104166666666667 0 0  0.7150000000000001 0 0  0.7195833333333334 0 0  0.7241666666666666 0 0  0.72875 0 0  0.7333333333333334 0 0  0.7379166666666667 0 0  0.7425 0 0  0.7470833333333333 0 0  0.7516666666666667 0 0  0.75625 0 0  0.7608333333333334 0 0  0.7654166666666666 0 0  0.7700000000000001 0 0  0 0.002380952380952381 0  0.004583333333333333 0.002380952380952381 0  0.009166666666666667 0.002380952380952381 0  0.01375 0.002380952380952381 0  0.01833333333333333 0.002380952380952381 0  0.02291666666666667 0.002380952380952381 0  0.0275 0.002380952380952381 0  0.03208333333333334 0.002380952380952381 0  0.03666666666666667 0.002380952380952381 0  0.04125 0.002380952380952381 0  0.04583333333333334 0.002380952380952381 0  0.05041666666666667 0.002380952380952381 0  0.055 0.002380952380952381 0  0.05958333333333334 0.002380952380952381 0  0.06416666666666668 0.002380952380952381 0  0.06875000000000001 0.002380952380952381 0  0.07333333333333333 0.002380952380952381 0  0.07791666666666666 0.002380952380952381 0  0.08249999999999999 0.002380952380952381 0  0.08708333333333333 0.002380952380952381 0  0.09166666666666667 0.002380952380952381 0  0.09625000000000002 0.002380952380952381 0  0.1008333333333333 0.002380952380952381 0  0.1054166666666667 0.002380952380952381 0  0.11 0.002380952380952381 0  0.1145833333333333 0.002380952380952381 0  0.1191666666666667 0.002380952380952381 0  0.12375 0.002380952380952381 0  0.1283333333333334 0.002380952380952381 0  0.1329166666666667 0.002380952380952381 0  0.1375 0.002380952380952381 0  0.1420833333333333 0.002380952380952381 0  0.1466666666666667 0.002380952380952381 0  0.15125 0.002380952380952381 0  0.1558333333333333 0.002380952380952381 0  0.1604166666666667 0.002380952380952381 0  0.165 0.002380952380952381 0  0.1695833333333333 0.002380952380952381 0  0.1741666666666667 0.002380952380952381 0  0.17875 0.002380952380952381 0  0.1833333333333333 0.002380952380952381 0  0.1879166666666667 0.002380952380952381 0  0.1925 0.002380952380952381 0  0.1970833333333333 0.002380952380952381 0  0.2016666666666667 0.002380952380952381 0  0.20625 0.002380952380952381 0  0.2108333333333333 0.002380952380952381 0  0.2154166666666666 0.002380952380952381 0  0.22 0.002380952380952381 0  0.2245833333333334 0.002380952380952381 0  0.2291666666666667 0.002380952380952381 0  0.23375 0.002380952380952381 0  0.2383333333333333 0.002380952380952381 0  0.2429166666666667 0.002380952380952381 0  0.2475 0.002380952380952381 0  0.2520833333333333 0.002380952380952381 0  0.2566666666666667 0.002380952380952381 0  0.26125 0.002380952380952381 0  0.2658333333333334 0.002380952380952381 0  0.2704166666666666 0.002380952380952381 0  0.275 0.002380952380952381 0  0.2795833333333334 0.002380952380952381 0  0.2841666666666667 0.002380952380952381 0  0.28875 0.002380952380952381 0  0.2933333333333333 0.002380952380952381 0  0.2979166666666667 0.002380952380952381 0  0.3025 0.002380952380952381 0  0.3070833333333334 0.002380952380952381 0  0.3116666666666666 0.002380952380952381 0  0.31625 0.002380952380952381 0  0.3208333333333333 0.002380952380952381 0  0.3254166666666667 0.002380952380952381 0  0.33 0.002380952380952381 0  0.3345833333333333 0.002380952380952381 0  0.3391666666666667 0.002380952380952381 0  0.34375 0.002380952380952381 0  0.3483333333333333 0.002380952380952381 0  0.3529166666666667 0.002380952380952381 0  0.3575 0.002380952380952381 0  0.3620833333333333 0.002380952380952381 0  0.3666666666666667 0.002380952380952381 0  0.37125 0.002380952380952381 0  0.3758333333333334 0.002380952380952381 0  0.3804166666666667 0.002380952380952381 0  0.3850000000000001 0.002380952380952381 0  0.3895833333333333 0.002380952380952381 0  0.3941666666666667 0.002380952380952381 0  0.39875 0.002380952380952381 0  0.4033333333333334 0.002380952380952381 0  0.4079166666666666 0.002380952380952381 0  0.4125 0.002380952380952381 0  0.4170833333333334 0.002380952380952381 0  0.4216666666666667 0.002380952380952381 0  0.42625 0.002380952380952381 0  0.4308333333333333 0.002380952380952381 0  0.4354166666666667 0.002380952380952381 0  0.44 0.002380952380952381 0  0.4445833333333333 0.002380952380952381 0  0.4491666666666667 0.002380952380952381 0  0.45375 0.002380952380952381 0  0.4583333333333333 0.002380952380952381 0  0.4629166666666666 0.002380952380952381 0  0.4675 0.002380952380952381 0  0.4720833333333334 0.002380952380952381 0  0.4766666666666667 0.002380952380952381 0  0.4812500000000001 0.002380952380952381 0  0.4858333333333333 0.002380952380952381 0  0.4904166666666667 0.002380952380952381 0  0.495 0.002380952380952381 0  0.4995833333333334 0.002380952380952381 0  0.5041666666666667 0.002380952380952381 0  0.50875 0.002380952380952381 0  0.5133333333333334 0.002380952380952381 0  0.5179166666666667 0.002380952380952381 0  0.5225 0.002380952380952381 0  0.5270833333333333 0.002380952380952381 0  0.5316666666666667 0.002380952380952381 0  0.53625 0.002380952380952381 0  0.5408333333333333 0.002380952380952381 0  0.5454166666666667 0.002380952380952381 0  0.55 0.002380952380952381 0  0.5545833333333333 0.002380952380952381 0  0.5591666666666667 0.002380952380952381 0  0.5637500000000001 0.002380952380952381 0  0.5683333333333334 0.002380952380952381 0  0.5729166666666666 0.002380952380952381 0  0.5775 0.002380952380952381 0  0.5820833333333334 0.002380952380952381 0  0.5866666666666667 0.002380952380952381 0  0.5912499999999999 0.002380952380952381 0  0.5958333333333334 0.002380952380952381 0  0.6004166666666667 0.002380952380952381 0  0.605 0.002380952380952381 0  0.6095833333333334 0.002380952380952381 0  0.6141666666666667 0.002380952380952381 0  0.61875 0.002380952380952381 0  0.6233333333333333 0.002380952380952381 0  0.6279166666666667 0.002380952380952381 0  0.6325000000000001 0.002380952380952381 0  0.6370833333333333 0.002380952380952381 0  0.6416666666666666 0.002380952380952381 0  0.64625 0.002380952380952381 0  0.6508333333333334 0.002380952380952381 0  0.6554166666666666 0.002380952380952381 0  0.6599999999999999 0.002380952380952381 0  0.6645833333333334 0.002380952380952381 0  0.6691666666666667 0.002380952380952381 0  0.67375 0.002380952380952381 0  0.6783333333333333 0.002380952380952381 0  0.6829166666666667 0.002380952380952381 0  0.6875 0.002380952380952381 0  0.6920833333333333 0.002380952380952381 0  0.6966666666666667 0.002380952380952381 0  0.70125 0.002380952380952381 0  0.7058333333333333 0.002380952380952381 0  0.7104166666666667 0.002380952380952381 0  0.7150000000000001 0.002380952380952381 
[...]
<PointData  Scalars="concentration"> 
<DataArray  type="Float64"  Name="concentration"  format="ascii">0.0000000000000000e+00  1.2562465518203608e-12  1.8033758143634474e-12  2.9375495124697839e-12  3.3517013135754898e-12  4.9081406444767770e-12  5.4286265406976202e-12  7.8422627092455686e-12  8.6180743716553008e-12  1.2448078821867580e-11  1.3643496160838841e-11  1.9745753224200197e-11  2.1596733091407402e-11  3.1327538357586079e-11  3.4194055665183773e-11  4.9716010593852247e-11  5.4153025593728268e-11  7.8918456384198031e-11  8.5782689353224547e-11  1.2530479647099129e-10  1.3591860530687759e-10  1.9900380537870616e-10  2.1540751946829071e-10  3.1612579860204044e-10  3.4146638757658229e-10  5.0230260614036860e-10  5.4143229471194526e-10  7.9832771286620885e-10  8.5872587528148410e-10  1.2691461154720704e-09  1.3623390466493690e-09  2.0181893770009907e-09  2.1619370870877789e-09  3.2102443639665034e-09  3.4319096321343007e-09  5.1079534458368118e-09  5.4496944237878435e-09  8.1301018022786427e-09  8.6568798737420307e-09  1.2944748719989713e-08  1.3756687666794160e-08  2.0618122349536628e-08  2.1869602566650065e-08  3.2852822433278329e-08  3.4782017781719675e-08  5.2369168535868331e-08  5.5343807568115424e-08  8.3516186483851350e-08  8.8104581219091090e-08  1.3325133953112470e-07  1.4033287386904845e-07  2.1271299916395535e-07  2.2365043329295834e-07  3.3974682225451410e-07  3.5665577622857104e-07  5.4296923892011351e-07  5.6914104556554876e-07  8.6831135556719339e-07  9.0887900270249721e-07  1.3895718512092723e-06  1.4525630254167378e-06  2.2254610210836442e-06  2.3234707190539048e-06  3.5671760773629060e-06  3.7200363192302901e-06  5.7231012652899886e-06  5.9621650926133724e-06  9.1914265687788032e-06  9.5664826100169178e-06  1.4778416684681847e-05  1.5368921367136225e-05  2.3791577546922257e-05  2.4725031688232711e-05  3.8356189682245039e-05  3.9838447420747872e-05  6.1935977295174944e-05  6.4301703159683006e-05  1.0019338635924198e-04  1.0399098174334330e-04  1.6241847536047963e-04  1.6855492335300613e-04  2.6391717780860943e-04  2.7390910892904517e-04  4.3003340415208926e-04  4.4645109451458772e-04  7.0298584682296488e-04  7.3025835333722473e-04  1.1536244820573324e-03  1.1995465139365261e-03  1.9019470827606449e-03  1.9806146528191398e-03  3.1535992419162201e-03  3.2914318648535495e-03  5.2665173882392178e-03  5.5154800003263619e-03  8.8771012118788930e-03  9.3465269049191595e-03  1.5152011988563054e-02  1.6095648974163185e-02  2.6332347684457646e-02  2.8433135338412359e-02  4.7060147975382369e-02  5.2743132569057452e-02  8.7889248973635814e-02  1.0283186852113464e-01  3.8833841715792522e-01  5.3698004443473035e-01  8.4238088273857747e-01  9.6463291089231662e-01  9.8497489493395884e-01  9.9621798778871418e-01  1.0003184549856430e+00  1.0016755062645655e+00  1.0018579091860889e+00  1.0016098051499691e+00  1.0012546959237409e+00  1.0009220433999158e+00  1.0006528136063513e+00  1.0004505649831423e+00  1.0003053158800137e+00  1.0002040714214340e+00  1.0001349718357935e+00  1.0000885371551662e+00  1.0000576983036378e+00  1.0000374033907620e+00  1.0000241433871637e+00  1.0000155296349633e+00  1.0000099601924217e+00  1.0000063728367006e+00  1.0000040694056749e+00  1.0000025942093409e+00  1.0000016514761001e+00  1.0000010500982142e+00  1.0000006670502946e+00  1.0000004233753470e+00  1.0000002685265084e+00  1.0000001702121657e+00  1.0000001078389267e+00  1.0000000682928882e+00  1.0000000432333163e+00  1.0000000273607890e+00  1.0000000173111430e+00  1.0000000109503284e+00  1.0000000069254347e+00  1.0000000043792299e+00  1.0000000027687870e+00  1.0000000017503776e+00  1.0000000011064474e+00  1.0000000006993492e+00  1.0000000004420044e+00  1.0000000002793394e+00  1.0000000001765297e+00  1.0000000001115532e+00  1.0000000000704918e+00  1.0000000000445419e+00  1.0000000000281462e+00  1.0000000000177836e+00  1.0000000000112383e+00  1.0000000000071008e+00  1.0000000000044860e+00  1.0000000000028331e+00  1.0000000000017903e+00  1.0000000000011293e+00  1.0000000000007137e+00  1.0000000000004514e+00  1.0000000000002833e+00  1.0000000000001816e+00  1.0000000000000979e+00  1.0000000000001328e+00  0.0000000000000000e+00  4.8137073717620122e-13  1.5116623766728330e-12  1.9243195513722153e-12  3.1653970292444068e-12  3.5492141190087825e-12  5.3460162415881375e-12  5.8234283288407924e-12  8.6087371498660350e-12  9.2935314386148451e-12  1.3700613166026932e-11  1.4729727316029501e-11  2.1743044481651961e-11  2.3308543162359224e-11  3.4487963306922305e-11  3.6874331241800736e-11  5.4704953828340344e-11  5.8339903870313847e-11  8.6787127975818992e-11  9.2315319346660037e-11  1.3771006461019143e-10  1.4610199264232351e-10  2.1855463559629393e-10  2.3126784973759363e-10  3.4692794187194368e-10  3.6614509758136867e-10  5.5081391754931786e-10  5.7979266622952002e-10  8.7469997660397877e-10  9.1828429294541701e-10  1.3893281192798271e-09  1.4546904712218836e-09  2.2072196946911230e-09  2.3049295579695631e-09  3.5074007935291356e-09  3.6529479929557486e-09  5.5747951019552965e-09  5.7907354677170329e-09  8.8630091649894988e-09  9.1819407895229122e-09  1.4094441852107464e-08  1.4563051486573581e-08  2.2419975944520206e-08  2.3104391340536317e-08  3.5673832507839932e-08  3.6666425264793218e-08  5.6780501659322817e-08  5.8208003029269023e-08  9.0404848820734823e-08  9.2436970631909269e-08  1.4399132286257784e-07  1.4684764789044271e-07  2.2942620644261155e-07  2.3337624474341101e-07  3.6569827951201517e-07  3.7104402899113138e-07  5.8316078625995752e-07  5.9018060691082992e-07  9.3036405460802224e-07  9.3917701744594908e-07  1.4850191633103083e-06  1.4952927172597569e-06  2.3716077599175639e-06  2.3819648099528968e-06  3.7896978409108689e-06  3.7965569778666954e-06  6.0595292875625758e-06  6.0548877131625626e-06  9.6955003704436869e-06  9.6627575998784020e-06  1.5524808839995648e-05  1.5430971714715426e-05  2.4879311609951174e-05  2.4660519996093620e-05  3.9906365294301332e-05  3.9441070949573498e-05  6.4073479016530361e-05  6.3132724791993043e-05  1.0298953016205418e-04  1.0114454176529778e-04  1.6574460452887526e-04  1.6219426596585391e-04  2.6710236528605701e-04  2.6034901587693025e-04  4.3109903995582386e-04  4.1833392859324283e-04  6.9697248987176177e-04  6.7289763058333326e-04  1.1289665917564090e-03  1.0835027944491797e-03  1.8326025821728841e-03  1.7463444191454403e-03  2.9817514134393465e-03  2.8167234984493397e-03  4.8636198074873144e-03  4.5438333120176944e-03  7.9524963124256269e-03  7.3211807898754680e-03  1.3023820803808395e-02  1.1743771453337224e-02  2.1285642291483487e-02  1.8591879264225977e-02  3.4125961908411308e-02  2.8732838214144334e-02  4.6653251072774266e-02  -1.0436264688838645e-02  -7.3127969498346324e-02  1.0066304462570695e-01  4.6263734224846353e-01  6.5803695045697785e-01  7.8448030035585714e-01  8.6396017117698976e-01  9.1408233907487435e-01  9.4570761127930270e-01  9.6568009632167473e-01  9.7830101129371017e-01  9.8627939354435568e-01  9.9132403928151569e-01  9.9451402599131633e-01  9.9653126600477659e-01  9.9780687388621414e-01  9.9861347046756155e-01  9.9912346925853190e-01  9.9944591227224866e-01  9.9964976075167988e-01  9.9977862533869544e-01  9.9986008319385766e-01  9.9991157139027376e-01  9.9994411456445509e-01  9.9996468255520032e-01  9.9997768142732213e-01  9.9998589634671053e-01  9.9999108777190060e-01  9.9999436840160894e-01  9.9999644148435207e-01  9.9999775146898906e-01  9.9999857923405044e-01  9.9999910228060518e-01  9.9999943277711667e-01  9.9999964160452692e-01  9.9999977355255454e-01  9.9999985692330540e-01  9.9999990960023044e-01  9.9999994288331362e-01  9.9999996391254753e-01  9.9999997719935063e-01  9.9999998559423819e-01  9.9999999089828351e-01  9.9999999424945818e-01  9.9999999636677250e-01  9.9999999770451242e-01  9.9999999854970656e-01  9.9999999908370540e-01  9.9999999942108631e-01  9.9999999963424602e-01  9.9999999976891762e-01  9.9999999985400501e-01  9.9999999990776023e-01  9.9999999994172484e-01  9.9999999996318312e-01  9.9999999997674027e-01  9.9999999998530420e-01  9.9999999999071643e-01  9.9999999999413469e-01  9.9999999999629374e-01  9.9999999999765876e-01  9.9999999999851907e-01  9.9999999999906541e-01  9.9999999999940692e-01  0.0000000000000000e+00  8.8888463596448176e-13  1.1712864828387423e-12  2.0786871637986625e-12  2.2690894728891062e-12  3.5511180300673141e-12  3.7412545994045482e-12  5.7197956617553624e-12  5.9619911528797723e-12  9.0889581411525543e-12  9.4242806765151444e-12  1.4396787047241912e-11  1.4868101412417482e-11  2.2788617555123742e-11  2.3445671128558717e-11  3.6068717007281219e-11  3.6967936202605794e-11  5.7090267534430691e-11  5.8287722520209018e-11  9.0369567507944300e-11  9.1901552759875916e-11  1.4305738076500582e-10  1.4489729938179946e-10  2.2647668971454206e-10  2.2844720987237265e-10  3.5855775250162775e-10  3.6016024502993105e-10  5.6769428066423634e-10  5.6778791029505931e-10  8.9885011884665346e-10  8.9506140603537283e-10  1.4232296102509868e-09  1.4108840390025391e-09  2.2535906765886443e-09  2.2238041216018496e-09  3.5684917211627812e-09  3.5047953590383799e-09  5.6506813669999113e-09  5.5231015433262855e-09  8.9478739871614055e-09  8.7026160915356083e-09  1.4168951866950740e-08  1.3710520179761098e-08  2.2436219253481823e-08  2.1596561699206111e-08  3.5526317185304480e-08  3.4011766863719098e-08  5.6251331624536875e-08  5.3551623044134802e-08  8.9061489103135929e-08  8.4294076547954770e-08  1.4099791557838900e-07  1.3264200366717367e-07  2.2319808674657596e-07  2.0864070163030175e-07  3.5327323441536316e-07  3.2803487472570544e-07  5.5906013532508679e-07  5.1547376198479818e-07  8.8453675315913100e-07  8.0949290852778183e-07  1.3991398874587656e-06  1.2702335022552694e-06  2.2124220037752868e-06  1.9913570654691031e-06  3.4970687669103990e-06  3.1183442136728419e-06  5.5249713267631335e-06  4.8764169875815698e-06  8.7236074216368649e-06  7.6127829108387390e-06  1.3763862402692294e-05  1.1859809698232434e-05  2.1696204572315793e-05  1.8427981748006212e-05  3.4160563473021712e-05  2.8539483952318506e-05  5.3707129035340497e-05  4.4013286077013892e-05  8.4280993598541090e-05  6.7506255297643405e-05  1.3194190574871946e-04  1.0279151372768805e-04  2.0590546652013488e-04  1.5499027347848905e-04  3.1998531499264282e-04  2.3050967538791402e-04  4.9443636347534152e-04  3.3604456289727282e-04  7.5791422452626243e-04  4.7506482630708577e-04  1.1484322937220374e-03  6.3798150420058008e-04  1.7099101701871821e-03  7.7678035500602883e-04  2.4746625587903082e-03  7.4133805445435728e-04  3.4044492692372717e-03  1.1861529726426601e-04  4.2073492018908157e-03  -2.1886692748196903e-03  3.7352338096396064e-03  -9.0941121029675630e-03  -2.8631106307063395e-03  -3.4643590620380221e-02  -6.0914646991187763e-03  1.6321205606943420e-01  4.6730748913879910e-01  6.8124884471468339e-01  8.0057697293395291e-01  8.7542541762219417e-01  9.2193958972721368e-01  9.5097869747149766e-01  9.6916080044660757e-01  9.8057256525633640e-01  9.8774839824021099e-01  9.9226719240300298e-01  9.9511602209433869e-01  9.9691365276866750e-01  9.9804878246933781e-01  9.9876598302327457e-01  9.9921933794452678e-01  9.9950602042668379e-01  9.9968736276782433e-01  9.9980210109797896e-01  9.9987471330779165e-01  9.9992067402389373e-01  9.9994976960101234e-01  9.9996819087147004e-01  9.9997985509454468e-01  9.9998724141981032e-01  9.9999191910934038e-01  9.9999488161855821e-01  9.9999675794853782e-01  9.9999794638632600e-01  9.9999869914976791e-01  9.9999917596817034e-01  9.9999947800361044e-01  9.9999966932852380e-01  9.9999979052568655e-01  9.9999986730063428e-01  9.9999991593594884e-01  9.9999994674570769e-01  9.9999996626339904e-01  9.9999997862776036e-01  9.9999998646056787e-01  9.9999999142266771e-01  9.9999999456617883e-01  9.9999999655761640e-01  9.9999999781920879e-01  9.9999999861844102e-01  9.9999999912476378e-01  9.9999999944552442e-01  9.9999999964873243e-01  9.9999999977746590e-01  9.9999999985902210e-01  9.9999999991068722e-01  9.9999999994342093e-01  9.9999999996415534e-01  9.9999999997729172e-01  9.9999999998561406e-01  9.9999999999088729e-01  9.9999999999422595e-01  9.9999999999634193e-01  9.9999999999768241e-01  9.9999999999853084e-01  9.9999999999906997e-01  9.9999999999940847e-01  9.9999999999962552e-01  0.0000000000000000e+00  3.0151386584086557e-13  1.0576707818448605e-12  1.1825442189884650e-12  2.1217938098956446e-12  2.1449131542218165e-12  3.5327491727121188e-12  3.4833941002662545e-12  5.6484506629151524e-12  5.5121520089386523e-12  8.9408501993603599e-12  8.6637411264969249e-12  1.4115562351946771e-11  1.3590670114981802e-11  2.2269102195202856e-11  2.1303700838000219e-11  3.5123243568502599e-11  3.3379186744408798e-11  5.5388498516347342e-11  5.2278914130035790e-11  8.7333984252802754e-11  8.1847060214671932e-11  1.3768318194510690e-10  1.2808329523904016e-10  2.1702247744449095e-10  2.0034493833667915e-10  3.4201549012436820e-10  3.1321446268869538e-10  5.3888262081909295e-10  4.8939706363940601e-10  8.4886578958697905e-10  7.6421012059676770e-10  1.3368056836761191e-09  1.1925279739251611e-09  2.1045949069071570e-09  1.8595051990784055e-09  3.3122622379203715e-09  2.8970994621387424e-09  5.2109872496771915e-09  4.5094690427247884e-09  8.1947438531427621e-09  7.0119020891414334e-09  1.2880991674199463e-08  1.0890291074740393e-08  2.0236588520301597e-08  1.6891642471322780e-08  3.1773971523263005e-08  2.6161178384091235e-08  4.9856293084242936e-08  4.0448853026743546e-08  7.8171071465965700e-08  6.2418300441921441e-08  1.2246370352551251e-07  9.6105086982212226e-08  1.9167029987691902e-07  1.4758909224447497e-07  2.9966157441844737e-07  2.2596725838487807e-07  4.6791704660515501e-07  3.4473450624828249e-07  7.2960682834899712e-07  5.2369287861121067e-07  1.1357866965146721e-06  7.9148947454936206e-07  1.7647350128918090e-06  1.1887833295988594e-06  2.7359017650563530e-06  1.7717575594605424e-06  4.2305145844520699e-06  2.6150184687805951e-06  6.5215715011759230e-06  3.8114471158280928e-06  1.0016628285354399e-05  5.4634888472845829e-06  1.5317125795060965e-05  7.6541327093380018e-06  2.3297202034983945e-05  1.0373474881337377e-05  3.5201244964855831e-05  1.3352622534754487e-05  5.2749228778096056e-05  1.5710076678882946e-05  7.8214882653930489e-05  1.5226547908303776e-05  1.1439005271458530e-04  6.8951478833760644e-06  1.6424387699723474e-04  -1.9922553668418889e-05  2.2988529168154918e-04  -8.6985196339151990e-05  3.1008510115048511e-04  -2.3758252249343555e-04  3.9509019752671825e-04  -5.5580390518579384e-04  4.5706863595109119e-04  -1.2005947963827787e-03  4.3617634828759476e-04  -2.4594844954480364e-03  2.3537961029075757e-04  -4.8027158025376535e-03  -1.9134595255606147e-04  -8.7491226084642510e-03  -2.1329301123386411e-04  -1.3230633906568586e-02  1.3257420407239217e-02  -3.4313010321031100e-03  -1.3099102009024302e-02  2.6606383712561299e-01  5.5728468978783430e-01  7.2110465847097793e-01  8.2402787466862715e-01  8.8880903336320582e-01  9.2969922872568556e-01  9.5553463799336469e-01  9.7186775241876500e-01  9.8219757181227285e-01  9.8873252605623474e-01  9.9286766621879574e-01  9.9548473714638819e-01  9.9714128033222582e-01  9.9818995256802134e-01  9.9885387406079496e-01  9.9927423833247908e-01  9.9954040930067700e-01  9.9970895448089969e-01  9.9981568501797635e-01  9.9988327377939290e-01  9.9992607647167442e-01  9.9995318315444637e-01  9.9997034992646694e-01  9.9998122185300986e-01  9.9998810724820597e-01  9.9999246793437324e-01  9.9999522967995058e-01  9.9999697878056404e-01  9.9999808654581857e-01  9.9999878813377885e-01  9.9999923247607003e-01  9.9999951389548869e-01  9.9999969212973905e-01  9.9999980501280361e-01  9.9999987650634836e-01  9.9999992178621511e-01  9.9999995046387413e-01  9.9999996862665608e-01  9.9999998012992219e-01  9.9999998741543217e-01  9.9999999202965895e-01  9.9999999495204461e-01  9.9999999680291773e-01  9.9999999797515260e-01  9.9999999871757950e-01  9.9999999918779048e-01  9.9999999948559348e-01  9.9999999967420672e-01  9.9999999979366205e-01  9.9999999986931898e-01  9.9999999991723287e-01  9.9999999994758082e-01  9.9999999996680089e-01  9.9999999997897371e-01  9.9999999998668243e-01  9.9999999999156575e-01  9.9999999999465805e-01  9.9999999999661648e-01  9.9999999999785716e-01  9.9999999999864164e-01  9.9999999999913936e-01  9.9999999999945288e-01  0.0000000000000000e+00  5.4903526335966991e-13  5.7074626715769290e-13  1.2199565606400921e-12  1.1197423890484050e-12  2.0664281914356271e-12  1.8378677792838339e-12  3.3087293955324507e-12  2.8985014385426012e-12  5.2245437480054018e-12  4.5227923300708737e-12  8.2186036208573335e-12  7.0331646803063541e-12  1.2912957611402654e-11  1.0919520499608862e-11  2.0277494985258134e-11  1.6933923555216490e-11  3.1829603507499079e-11  2.6232661499293834e-11  4.9944382176354332e-11  4.0591887897620576e-11  7.8338341290122087e-11  6.2735274337190658e-11  1.2282383596101675e-10  9.6830766835345318e-11  1.9248504739909463e-10  1.4924117753509667e-10  3.0150937984358429e-10  2.2965362331148464e-10  4.7203650159455170e-10  3.5277071647609139e-10  7.3858517042762996e-10  5.4082827058623668e-10  1.1549224095859057e-09  8.2731758908923166e-10  1.8047066484765635e-09  1.2624426888037409e-09  2.8179508845245646e-09  1.9210387797605372e-09  4.3964411571326222e-09  2.9139133380706756e-09  6.8528999126547952e-09  4.4038175597021816e-09  1.0671185220773443e-08  6.6274361560978370e-09  1.6598579653304214e-08  9.9247172023571376e-09  2.5786849171113228e-08  1.4776169886519362e-08  4.0007106065575030e-08  2.1846671638384203e-08  6.1975808017603373e-08  3.2029364854164388e-08  9.5847145707920327e-08  4.6472584197222200e-08  1.4795285949792916e-07  6.6551234608524960e-08  2.2790706165348606e-07  9.3702116552731943e-08  3.5024438858995646e-07  1.2896315386409496e-07  5.3682849848755346e-07  1.7190851321756850e-07  8.2035772279463556e-07  2.1840059136147806e-07  1.2494064156769144e-06  2.5608981366110124e-07  1.8955695925521737e-06  2.5571707297995686e-07  2.8634098089192658e-06  1.5472364843399162e-07  4.3040076332018469e-06  -1.7304002287453634e-07  6.4329406349438044e-06  -9.7241184524925478e-07  9.5534092398471727e-06  -2.7057478738567917e-06  1.4085022010173697e-05  -6.2278785792203349e-06  2.0598838980084921e-05  -1.3091679048950696e-05  2.9861207029725907e-05  -2.6073742230552809e-05  4.2897615542031665e-05  -5.0061998182270232e-05  6.1117222432098759e-05  -9.3517289599038942e-05  8.6626436854761723e-05  -1.7079209647902465e-04  1.2310372011565751e-04  -3.0559014316190036e-04  1.7825529724316806e-04  -5.3555576650144701e-04  2.7053351750210599e-04  -9.1678141439907590e-04  4.4690898681681737e-04  -1.5234896629376551e-03  8.2800505409168104e-04  -2.4300588397937989e-03  1.7155859311211853e-03  -3.6544591501499490e-03  3.8102409288413861e-03  -5.1110372857955328e-03  8.9094946599914907e-03  -1.3850019460071323e-02  -1.8016964440631146e-03  -2.8913933601915132e-02  2.6726253400504751e-01  5.6396120215809642e-01  7.2893586337951388e-01  8.3087078131746439e-01  8.9406155630936623e-01  9.3346271604586140e-01  9.5812652296669509e-01  9.7360950475343278e-01  9.8334946324598760e-01  9.8948608738829680e-01  9.9335689413452199e-01  9.9580060777487600e-01  9.9734439247403828e-01  9.9832015701551202e-01  9.9893714432415748e-01  9.9932739473416077e-01  9.9957429310737900e-01  9.9973052836170062e-01  9.9982940844693524e-01  9.9989199690783359e-01  9.9993161784965967e-01  9.9995670157159644e-01  9.9997258298190461e-01  9.9998263864274328e-01  9.9998900589747686e-01  9.9999303780268944e-01  9.9999559098583524e-01  9.9999720781752865e-01  9.9999823171601065e-01  9.9999888013635263e-01  9.9999929077772443e-01  9.9999955083800851e-01  9.9999971553654476e-01  9.9999981984249797e-01  9.9999988590142097e-01  9.9999992773802870e-01  9.9999995423422527e-01  9.9999997101501736e-01  9.9999998164280557e-01  9.9999998837372872e-01  9.9999999263665029e-01  9.9999999533651129e-01  9.9999999704642950e-01  9.9999999812938811e-01  9.99999998