<?xml version="1.0"?>
<VTKFile type="UnstructuredGrid"  version="0.1"  >
<UnstructuredGrid>
<Piece  NumberOfPoints="21400" NumberOfCells="42336">
<Points>
<DataArray  type="Float64"  NumberOfComponents="3"  format="ascii">0 0 0  0.004583333333333333 0 0  0.009166666666666667 0 0  0.01375 0 0  0.01833333333333333 0 0  0.02291666666666667 0 0  0.0275 0 0  0.03208333333333334 0 0  0.03666666666666667 0 0  0.04125 0 0  0.04583333333333334 0 0  0.05041666666666667 0 0  0.055 0 0  0.05958333333333334 0 0  0.06416666666666668 0 0  0.06875000000000001 0 0  0.07333333333333333 0 0  0.07791666666666666 0 0  0.08249999999999999 0 0  0.08708333333333333 0 0  0.09166666666666667 0 0  0.09625000000000002 0 0  0.1008333333333333 0 0  0.1054166666666667 0 0  0.11 0 0  0.1145833333333333 0 0  0.1191666666666667 0 0  0.12375 0 0  0.1283333333333334 0 0  0.1329166666666667 0 0  0.1375 0 0  0.1420833333333333 0 0  0.1466666666666667 0 0  0.15125 0 0  0.1558333333333333 0 0  0.1604166666666667 0 0  0.165 0 0  0.1695833333333333 0 0  0.1741666666666667 0 0  0.17875 0 0  0.1833333333333333 0 0  0.1879166666666667 0 0  0.1925 0 0  0.1970833333333333 0 0  0.2016666666666667 0 0  0.20625 0 0  0.2108333333333333 0 0  0.2154166666666666 0 0  0.22 0 0  0.2245833333333334 0 0  0.2291666666666667 0 0  0.23375 0 0  0.2383333333333333 0 0  0.2429166666666667 0 0  0.2475 0 0  0.2520833333333333 0 0  0.2566666666666667 0 0  0.26125 0 0  0.2658333333333334 0 0  0.2704166666666666 0 0  0.275 0 0  0.2795833333333334 0 0  0.2841666666666667 0 0  0.28875 0 0  0.2933333333333333 0 0  0.2979166666666667 0 0  0.3025 0 0  0.3070833333333334 0 0  0.3116666666666666 0 0  0.31625 0 0  0.3208333333333333 0 0  0.3254166666666667 0 0  0.33 0 0  0.3345833333333333 0 0  0.3391666666666667 0 0  0.34375 0 0  0.3483333333333333 0 0  0.3529166666666667 0 0  0.3575 0 0  0.3620833333333333 0 0  0.3666666666666667 0 0  0.37125 0 0  0.3758333333333334 0 0  0.3804166666666667 0 0  0.3850000000000001 0 0  0.3895833333333333 0 0  0.3941666666666667 0 0  0.39875 0 0  0.4033333333333334 0 0  0.4079166666666666 0 0  0.4125 0 0  0.4170833333333334 0 0  0.4216666666666667 0 0  0.42625 0 0  0.4308333333333333 0 0  0.4354166666666667 0 0  0.44 0 0  0.4445833333333333 0 0  0.4491666666666667 0 0  0.45375 0 0  0.4583333333333333 0 0  0.4629166666666666 0 0  0.4675 0 0  0.4720833333333334 0 0  0.4766666666666667 0 0  0.4812500000000001 0 0  0.4858333333333333 0 0  0.4904166666666667 0 0  0.495 0 0  0.4995833333333334 0 0  0.5041666666666667 0 0  0.50875 0 0  0.5133333333333334 0 0  0.5179166666666667 0 0  0.5225 0 0  0.5270833333333333 0 0  0.5316666666666667 0 0  0.53625 0 0  0.5408333333333333 0 0  0.5454166666666667 0 0  0.55 0 0  0.5545833333333333 0 0  0.5591666666666667 0 0  0.5637500000000001 0 0  0.5683333333333334 0 0  0.5729166666666666 0 0  0.5775 0 0  0.5820833333333334 0 0  0.5866666666666667 0 0  0.5912499999999999 0 0  0.5958333333333334 0 0  0.6004166666666667 0 0  0.605 0 0  0.6095833333333334 0 0  0.6141666666666667 0 0  0.61875 0 0  0.6233333333333333 0 0  0.6279166666666667 0 0  0.6325000000000001 0 0  0.6370833333333333 0 0  0.6416666666666666 0 0  0.64625 0 0  0.6508333333333334 0 0  0.6554166666666666 0 0  0.6599999999999999 0 0  0.6645833333333334 0 0  0.6691666666666667 0 0  0.67375 0 0  0.6783333333333333 0 0  0.6829166666666667 0 0  0.6875 0 0  0.6920833333333333 0 0  0.6966666666666667 0 0  0.70125 0 0  0.7058333333333333 0 0  0.7104166666666667 0 0  0.7150000000000001 0 0  0.7195833333333334 0 0  0.7241666666666666 0 0  0.72875 0 0  0.7333333333333334 0 0  0.7379166666666667 0 0  0.7425 0 0  0.7470833333333333 0 0  0.7516666666666667 0 0  0.75625 0 0  0.7608333333333334 0 0  0.7654166666666666 0 0  0.7700000000000001 0 0  0 0.002380952380952381 0  0.004583333333333333 0.002380952380952381 0  0.009166666666666667 0.002380952380952381 0  0.01375 0.002380952380952381 0  0.01833333333333333 0.002380952380952381 0  0.02291666666666667 0.002380952380952381 0  0.0275 0.002380952380952381 0  0.03208333333333334 0.002380952380952381 0  0.03666666666666667 0.002380952380952381 0  0.04125 0.002380952380952381 0  0.04583333333333334 0.002380952380952381 0  0.05041666666666667 0.002380952380952381 0  0.055 0.002380952380952381 0  0.05958333333333334 0.002380952380952381 0  0.06416666666666668 0.002380952380952381 0  0.06875000000000001 0.002380952380952381 0  0.07333333333333333 0.002380952380952381 0  0.07791666666666666 0.002380952380952381 0  0.08249999999999999 0.002380952380952381 0  0.08708333333333333 0.002380952380952381 0  0.09166666666666667 0.002380952380952381 0  0.09625000000000002 0.002380952380952381 0  0.1008333333333333 0.002380952380952381 0  0.1054166666666667 0.002380952380952381 0  0.11 0.002380952380952381 0  0.1145833333333333 0.002380952380952381 0  0.1191666666666667 0.002380952380952381 0  0.12375 0.002380952380952381 0  0.1283333333333334 0.002380952380952381 0  0.1329166666666667 0.002380952380952381 0  0.1375 0.002380952380952381 0  0.1420833333333333 0.002380952380952381 0  0.1466666666666667 0.002380952380952381 0  0.15125 0.002380952380952381 0  0.1558333333333333 0.002380952380952381 0  0.1604166666666667 0.002380952380952381 0  0.165 0.002380952380952381 0  0.1695833333333333 0.002380952380952381 0  0.1741666666666667 0.002380952380952381 0  0.17875 0.002380952380952381 0  0.1833333333333333 0.002380952380952381 0  0.1879166666666667 0.002380952380952381 0  0.1925 0.002380952380952381 0  0.1970833333333333 0.002380952380952381 0  0.2016666666666667 0.002380952380952381 0  0.20625 0.002380952380952381 0  0.2108333333333333 0.002380952380952381 0  0.2154166666666666 0.002380952380952381 0  0.22 0.002380952380952381 0  0.2245833333333334 0.002380952380952381 0  0.2291666666666667 0.002380952380952381 0  0.23375 0.002380952380952381 0  0.2383333333333333 0.002380952380952381 0  0.2429166666666667 0.002380952380952381 0  0.2475 0.002380952380952381 0  0.2520833333333333 0.002380952380952381 0  0.2566666666666667 0.002380952380952381 0  0.26125 0.002380952380952381 0  0.2658333333333334 0.002380952380952381 0  0.2704166666666666 0.002380952380952381 0  0.275 0.002380952380952381 0  0.2795833333333334 0.002380952380952381 0  0.2841666666666667 0.002380952380952381 0  0.28875 0.002380952380952381 0  0.2933333333333333 0.002380952380952381 0  0.2979166666666667 0.002380952380952381 0  0.3025 0.002380952380952381 0  0.3070833333333334 0.002380952380952381 0  0.3116666666666666 0.002380952380952381 0  0.31625 0.002380952380952381 0  0.3208333333333333 0.002380952380952381 0  0.3254166666666667 0.002380952380952381 0  0.33 0.002380952380952381 0  0.3345833333333333 0.002380952380952381 0  0.3391666666666667 0.002380952380952381 0  0.34375 0.002380952380952381 0  0.3483333333333333 0.002380952380952381 0  0.3529166666666667 0.002380952380952381 0  0.3575 0.002380952380952381 0  0.3620833333333333 0.002380952380952381 0  0.3666666666666667 0.002380952380952381 0  0.37125 0.002380952380952381 0  0.3758333333333334 0.002380952380952381 0  0.3804166666666667 0.002380952380952381 0  0.3850000000000001 0.002380952380952381 0  0.3895833333333333 0.002380952380952381 0  0.3941666666666667 0.002380952380952381 0  0.39875 0.002380952380952381 0  0.4033333333333334 0.002380952380952381 0  0.4079166666666666 0.002380952380952381 0  0.4125 0.002380952380952381 0  0.4170833333333334 0.002380952380952381 0  0.4216666666666667 0.002380952380952381 0  0.42625 0.002380952380952381 0  0.4308333333333333 0.002380952380952381 0  0.4354166666666667 0.002380952380952381 0  0.44 0.002380952380952381 0  0.4445833333333333 0.002380952380952381 0  0.4491666666666667 0.002380952380952381 0  0.45375 0.002380952380952381 0  0.4583333333333333 0.002380952380952381 0  0.4629166666666666 0.002380952380952381 0  0.4675 0.002380952380952381 0  0.4720833333333334 0.002380952380952381 0  0.4766666666666667 0.002380952380952381 0  0.4812500000000001 0.002380952380952381 0  0.4858333333333333 0.002380952380952381 0  0.4904166666666667 0.002380952380952381 0  0.495 0.002380952380952381 0  0.4995833333333334 0.002380952380952381 0  0.5041666666666667 0.002380952380952381 0  0.50875 0.002380952380952381 0  0.5133333333333334 0.002380952380952381 0  0.5179166666666667 0.002380952380952381 0  0.5225 0.002380952380952381 0  0.5270833333333333 0.002380952380952381 0  0.5316666666666667 0.002380952380952381 0  0.53625 0.002380952380952381 0  0.5408333333333333 0.002380952380952381 0  0.5454166666666667 0.002380952380952381 0  0.55 0.002380952380952381 0  0.5545833333333333 0.002380952380952381 0  0.5591666666666667 0.002380952380952381 0  0.5637500000000001 0.002380952380952381 0  0.5683333333333334 0.002380952380952381 0  0.5729166666666666 0.002380952380952381 0  0.5775 0.002380952380952381 0  0.5820833333333334 0.002380952380952381 0  0.5866666666666667 0.002380952380952381 0  0.5912499999999999 0.002380952380952381 0  0.5958333333333334 0.002380952380952381 0  0.6004166666666667 0.002380952380952381 0  0.605 0.002380952380952381 0  0.6095833333333334 0.002380952380952381 0  0.6141666666666667 0.002380952380952381 0  0.61875 0.002380952380952381 0  0.6233333333333333 0.002380952380952381 0  0.6279166666666667 0.002380952380952381 0  0.6325000000000001 0.002380952380952381 0  0.6370833333333333 0.002380952380952381 0  0.6416666666666666 0.002380952380952381 0  0.64625 0.002380952380952381 0  0.6508333333333334 0.002380952380952381 0  0.6554166666666666 0.002380952380952381 0  0.6599999999999999 0.002380952380952381 0  0.6645833333333334 0.002380952380952381 0  0.6691666666666667 0.002380952380952381 0  0.67375 0.002380952380952381 0  0.6783333333333333 0.002380952380952381 0  0.6829166666666667 0.002380952380952381 0  0.6875 0.002380952380952381 0  0.6920833333333333 0.002380952380952381 0  0.6966666666666667 0.002380952380952381 0  0.70125 0.002380952380952381 0  0.7058333333333333 0.002380952380952381 0  0.7104166666666667 0.002380952380952381 0  0.7150000000000001 0.002380952380952381 
[...]
<PointData  Scalars="concentration"> 
<DataArray  type="Float64"  Name="concentration"  format="ascii">0.0000000000000000e+00  1.0648691752701399e-10  2.5909606863204679e-10  3.1253230911488749e-10  4.8857396602190666e-10  5.3501422768815305e-10  7.9633106542157587e-10  8.5835212905466037e-10  1.2702695309655687e-09  1.3635594424384534e-09  2.0201675182834697e-09  2.1636073140937089e-09  3.2125211914374345e-09  3.4337619296339619e-09  5.1104161824417013e-09  5.4516827752230583e-09  8.1327458726408482e-09  8.6590101013943865e-09  1.2947593305478681e-08  1.3758976059124893e-08  2.0621191017988986e-08  2.1872067076724993e-08  3.2856139684276607e-08  3.4784676845990448e-08  5.2372759806585974e-08  5.5346680423452658e-08  8.3520078704970131e-08  8.8107688378407460e-08  1.3325556166780973e-07  1.4033623754090627e-07  2.1271758269214649e-07  2.2365407775622867e-07  3.3975180160978159e-07  3.5665972819898687e-07  5.4297465195411557e-07  5.6914533458241647e-07  8.6831724403966294e-07  9.0888366155987725e-07  1.3895782613374262e-06  1.4525680906541057e-06  2.2254680041655031e-06  2.3234762315270135e-06  3.5671836905024140e-06  3.7200423247854098e-06  5.7231095722489090e-06  5.9621716428955625e-06  9.1914356409711380e-06  9.5664897634414160e-06  1.4778426602396414e-05  1.5368929190073909e-05  2.3791588400772306e-05  2.4725040256461469e-05  3.8356201574956518e-05  3.9838456821278078e-05  6.1935990343864257e-05  6.4301713493067952e-05  1.0019340069808864e-04  1.0399099312666691e-04  1.6241849114437257e-04  1.6855493592368899e-04  2.6391719521755438e-04  2.7390912284984501e-04  4.3003342339698920e-04  4.4645110998000774e-04  7.0298586815246739e-04  7.3025837058206678e-04  1.1536245057654764e-03  1.1995465332456355e-03  1.9019471091950206e-03  1.9806146745374033e-03  3.1535992714768193e-03  3.2914318893886873e-03  5.2665174213602801e-03  5.5154800281306850e-03  8.8771012489410554e-03  9.3465269363955054e-03  1.5152012029638192e-02  1.6095649009374113e-02  2.6332347728590545e-02  2.8433135376175922e-02  4.7060148018465579e-02  5.2743132603946745e-02  8.7889249000706299e-02  1.0283186852211285e-01  3.8833841696882510e-01  5.3698004418215373e-01  8.4238088247792797e-01  9.6463291075555524e-01  9.8497489486000911e-01  9.9621798775051762e-01  1.0003184549653916e+00  1.0016755062535245e+00  1.0018579091797966e+00  1.0016098051461835e+00  1.0012546959213393e+00  1.0009220433983059e+00  1.0006528136052304e+00  1.0004505649823408e+00  1.0003053158794273e+00  1.0002040714210028e+00  1.0001349718354742e+00  1.0000885371549304e+00  1.0000576983034635e+00  1.0000374033906339e+00  1.0000241433870687e+00  1.0000155296348932e+00  1.0000099601923698e+00  1.0000063728366617e+00  1.0000040694056462e+00  1.0000025942093180e+00  1.0000016514760828e+00  1.0000010500982000e+00  1.0000006670502868e+00  1.0000004233753397e+00  1.0000002685265039e+00  1.0000001702121606e+00  1.0000001078389245e+00  1.0000000682928838e+00  1.0000000432333180e+00  1.0000000273607885e+00  1.0000000173111443e+00  1.0000000109503275e+00  1.0000000069254338e+00  1.0000000043792296e+00  1.0000000027687883e+00  1.0000000017503770e+00  1.0000000011064476e+00  1.0000000006993492e+00  1.0000000004420049e+00  1.0000000002793403e+00  1.0000000001765295e+00  1.0000000001115532e+00  1.0000000000704912e+00  1.0000000000445417e+00  1.0000000000281490e+00  1.0000000000177849e+00  1.0000000000112377e+00  1.0000000000071008e+00  1.0000000000044862e+00  1.0000000000028368e+00  1.0000000000017919e+00  1.0000000000011333e+00  1.0000000000007156e+00  1.0000000000004541e+00  1.0000000000002875e+00  1.0000000000001823e+00  1.0000000000001166e+00  1.0000000000000735e+00  1.0000000000000482e+00  1.0000000000000309e+00  1.0000000000000191e+00  1.0000000000000122e+00  1.0000000000000084e+00  1.0000000000000051e+00  1.0000000000000040e+00  1.0000000000000022e+00  1.0000000000000022e+00  1.0000000000000013e+00  1.0000000000000002e+00  1.0000000000000020e+00  1.0000000000000007e+00  1.0000000000000022e+00  1.0000000000000013e+00  1.0000000000000013e+00  1.0000000000000020e+00  1.0000000000000011e+00  1.0000000000000020e+00  1.0000000000000009e+00  1.0000000000000004e+00  0.0000000000000000e+00  1.0925906246372913e-10  1.5926987319329945e-10  2.9997747395603965e-10  3.3557938510116827e-10  5.3177904753260823e-10  5.6767943423334845e-10  8.6779080456713414e-10  9.1407432042914786e-10  1.3875780065882304e-09  1.4538174746679386e-09  2.2076686276914191e-09  2.3054772361465273e-09  3.5088245784347960e-09  3.6541302876316515e-09  5.5767004731190617e-09  5.7922375784362711e-09  8.8652051697802115e-09  9.1836415484003506e-09  1.4096861198308551e-08  1.4564908549754276e-08  2.2422601707181012e-08  2.3106394330307696e-08  3.5676668436188519e-08  3.6668576847549121e-08  5.6783560299397890e-08  5.8210311356163530e-08  9.0408146847899037e-08  9.2439446360534334e-08  1.4399487930664895e-07  1.4685030303671688e-07  2.2943004206099598e-07  2.3337909225366398e-07  3.6570241660963855e-07  3.7104708258801168e-07  5.8316524867417790e-07  5.9018388103206301e-07  9.3036886774373353e-07  9.3918052720056737e-07  1.4850243541759440e-06  1.4952964783659051e-06  2.3716133571369004e-06  2.3819688386332584e-06  3.7897038746902816e-06  3.7965612906828849e-06  6.0595357895890296e-06  6.0548923267665840e-06  9.6955073736945680e-06  9.6627625306372638e-06  1.5524816378423968e-05  1.5430976978185424e-05  2.4879319717980372e-05  2.4660525606261918e-05  3.9906374006080094e-05  3.9441076917768694e-05  6.4073488364796731e-05  6.3132731125457693e-05  1.0298954017654141e-04  1.0114454846500740e-04  1.6574461523390733e-04  1.6219427302361167e-04  2.6710237669689678e-04  2.6034902327107078e-04  4.3109905207349948e-04  4.1833393628253523e-04  6.9697250267456703e-04  6.7289763849789105e-04  1.1289666051864618e-03  1.0835028024758870e-03  1.8326025961124838e-03  1.7463444271040914e-03  2.9817514276690637e-03  2.8167235060491797e-03  4.8636198216011443e-03  4.5438333187751718e-03  7.9524963256539811e-03  7.3211807949352808e-03  1.3023820814618992e-02  1.1743771455067810e-02  2.1285642296645112e-02  1.8591879259288766e-02  3.4125961900945322e-02  2.8732838196235979e-02  4.6653251040909852e-02  -1.0436264679320260e-02  -7.3127969458107567e-02  1.0066304440360009e-01  4.6263734188539479e-01  6.5803695009494989e-01  7.8448030004661407e-01  8.6396017092991051e-01  9.1408233888428758e-01  9.4570761113507062e-01  9.6568009621362072e-01  9.7830101121313751e-01  9.8627939348436366e-01  9.9132403923682433e-01  9.9451402595796390e-01  9.9653126597983110e-01  9.9780687386750677e-01  9.9861347045349524e-01  9.9912346924792816e-01  9.9944591226423629e-01  9.9964976074561152e-01  9.9977862533409156e-01  9.9986008319035891e-01  9.9991157138761078e-01  9.9994411456242560e-01  9.9996468255365156e-01  9.9997768142614030e-01  9.9998589634580681e-01  9.9999108777121115e-01  9.9999436840107836e-01  9.9999644148394740e-01  9.9999775146867842e-01  9.9999857923381386e-01  9.9999910228042177e-01  9.9999943277697922e-01  9.9999964160441668e-01  9.9999977355247116e-01  9.9999985692323978e-01  9.9999990960018192e-01  9.9999994288327732e-01  9.9999996391251933e-01  9.9999997719932820e-01  9.9999998559422243e-01  9.9999999089827063e-01  9.9999999424944841e-01  9.9999999636676440e-01  9.9999999770450665e-01  9.9999999854970256e-01  9.9999999908370218e-01  9.9999999942108442e-01  9.9999999963424402e-01  9.9999999976891374e-01  9.9999999985400334e-01  9.9999999990776067e-01  9.9999999994172462e-01  9.9999999996318334e-01  9.9999999997673938e-01  9.9999999998530620e-01  9.9999999999071665e-01  9.9999999999413691e-01  9.9999999999629541e-01  9.9999999999766020e-01  9.9999999999852252e-01  9.9999999999906608e-01  9.9999999999941114e-01  9.9999999999962763e-01  9.9999999999976563e-01  9.9999999999985312e-01  9.9999999999990774e-01  9.9999999999994205e-01  9.9999999999996436e-01  9.9999999999997768e-01  9.9999999999998690e-01  9.9999999999999223e-01  9.9999999999999634e-01  9.9999999999999889e-01  9.9999999999999911e-01  1.0000000000000009e+00  1.0000000000000002e+00  1.0000000000000007e+00  1.0000000000000011e+00  1.0000000000000007e+00  1.0000000000000016e+00  1.0000000000000002e+00  1.0000000000000009e+00  1.0000000000000011e+00  0.0000000000000000e+00  6.0587830461120862e-11  1.7386048120060817e-10  1.9543475448103009e-10  3.3840109214326409e-10  3.4744266067590220e-10  5.6028445986620133e-10  5.6306670820271492e-10  8.9648694980495994e-10  8.9351045407537018e-10  1.4228949623159719e-09  1.4106040793835518e-09  2.2540971196910872e-09  2.2240434840599181e-09  3.5693710681736072e-09  3.5052544770531936e-09  5.6517493454432997e-09  5.5236596261966721e-09  8.9490587411375416e-09  8.7032230622552741e-09  1.4170226027931722e-08  1.3711153693689961e-08  2.2437572887162891e-08  2.1597209914217227e-08  3.5527746931840113e-08  3.4012421428152059e-08  5.6252836260243635e-08  5.3552276134948612e-08  8.9063067636103955e-08  8.4294719497054287e-08  1.4099956632276825e-07  1.3264262618600404e-07  2.2319980674674387e-07  2.0864129122725136e-07  3.5327501895991108e-07  3.2803541614444316e-07  5.5906197743460721e-07  5.1547423657868275e-07  8.8453864298536958e-07  8.0949329352355071e-07  1.3991418115559516e-06  1.2702337698611400e-06  2.2124239441994799e-06  1.9913571817877823e-06  3.4970707001023220e-06  3.1183441373693985e-06  5.5249732221633377e-06  4.8764166682464268e-06  8.7236092399621743e-06  7.6127822869602945e-06  1.3763864093784290e-05  1.1859808694700323e-05  2.1696206072485479e-05  1.8427980273053846e-05  3.4160564701715644e-05  2.8539481893714815e-05  5.3707129891038591e-05  4.4013283297407736e-05  8.4280993953610240e-05  6.7506251628887689e-05  1.3194190544324707e-04  1.0279150896423916e-04  2.0590546535434695e-04  1.5499026736948168e-04  3.1998531271810831e-04  2.3050966762902910e-04  4.9443635978515556e-04  3.3604455312298711e-04  7.5791421904560061e-04  4.7506481408805806e-04  1.1484322860024422e-03  6.3798148905315662e-04  1.7099101597129610e-03  7.7678033643552259e-04  2.4746625450143998e-03  7.4133803207724930e-04  3.4044492517014283e-03  1.1861527113374476e-04  4.2073491805475205e-03  -2.1886693033523891e-03  3.7352337858391092e-03  -9.0941121286749020e-03  -2.8631106507845329e-03  -3.4643590617819062e-02  -6.0914647007047230e-03  1.6321205594935848e-01  4.6730748888535728e-01  6.8124884442524714e-01  8.0057697267802108e-01  8.7542541741704627e-01  9.2193958957003252e-01  9.5097869735392015e-01  9.6916080035975583e-01  9.8057256519257419e-01  9.8774839819350235e-01  9.9226719236877281e-01  9.9511602206919891e-01  9.9691365275014909e-01  9.9804878245564466e-01  9.9876598301310937e-01  9.9921933793695039e-01  9.9950602042101566e-01  9.9968736276356729e-01  9.9980210109477230e-01  9.9987471330536737e-01  9.9992067402205664e-01  9.9994976959961757e-01  9.9996819087040956e-01  9.9997985509373688e-01  9.9998724141919304e-01  9.9999191910886920e-01  9.9999488161819561e-01  9.9999675794826226e-01  9.9999794638611228e-01  9.9999869914960460e-01  9.9999917596804400e-01  9.9999947800351452e-01  9.9999966932844742e-01  9.9999979052563148e-01  9.9999986730059109e-01  9.9999991593591697e-01  9.9999994674568260e-01  9.9999996626337961e-01  9.9999997862774503e-01  9.9999998646055699e-01  9.9999999142265805e-01  9.9999999456617272e-01  9.9999999655761118e-01  9.9999999781920501e-01  9.9999999861843758e-01  9.9999999912476012e-01  9.9999999944552231e-01  9.9999999964872999e-01  9.9999999977746457e-01  9.9999999985902310e-01  9.9999999991068733e-01  9.9999999994341993e-01  9.9999999996415545e-01  9.9999999997729139e-01  9.9999999998561462e-01  9.9999999999088640e-01  9.9999999999422773e-01  9.9999999999634182e-01  9.9999999999768374e-01  9.9999999999853251e-01  9.9999999999907063e-01  9.9999999999941203e-01  9.9999999999962697e-01  9.9999999999976441e-01  9.9999999999985090e-01  9.9999999999990541e-01  9.9999999999994060e-01  9.9999999999996292e-01  9.9999999999997602e-01  9.9999999999998523e-01  9.9999999999999001e-01  9.9999999999999400e-01  9.9999999999999556e-01  9.9999999999999678e-01  9.9999999999999845e-01  9.9999999999999833e-01  1.0000000000000002e+00  1.0000000000000004e+00  1.0000000000000007e+00  1.0000000000000011e+00  1.0000000000000002e+00  1.0000000000000009e+00  1.0000000000000004e+00  1.0000000000000004e+00  0.0000000000000000e+00  8.1485039286350897e-11  9.1715445062119204e-11  1.9398028357140256e-10  1.8527968279703152e-10  3.3267096420847858e-10  3.0691754989497542e-10  5.3515626762468715e-10  4.8667438241738251e-10  8.4743450608085317e-10  7.6292829547628183e-10  1.3363097709848130e-09  1.1918116530048272e-09  2.1044780572211808e-09  1.8589923063979376e-09  3.3122950256718571e-09  2.8966363147707116e-09  5.2110726846496631e-09  4.5089861085724794e-09  8.1948382912558668e-09  7.0113634118315075e-09  1.2881072646392533e-08  1.0889673613059574e-08  2.0236641577247976e-08  1.6890927554181995e-08  3.1773984768293471e-08  2.6160348062220445e-08  4.9856254806366904e-08  4.0447888396943485e-08  7.8170969015492629e-08  6.2417180758280240e-08  1.2246352267946703e-07  9.6103789072525502e-08  1.9167002438819025e-07  1.4758759003512358e-07  2.9966118562385272e-07  2.2596552245374548e-07  4.6791652304319038e-07  3.4473250337634888e-07  7.2960614536920030e-07  5.2369057132249536e-07  1.1357858258799316e-06  7.9148682064930709e-07  1.7647339223858543e-06  1.1887802817314082e-06  2.7359004181244638e-06  1.7717540647166599e-06  4.2305129399152217e-06  2.6150144684208160e-06  6.5215695131096317e-06  3.8114425452284771e-06  1.0016625903239596e-05  5.4634836362418319e-06  1.5317122964379170e-05  7.6541267829955433e-06  2.3297198698600448e-05  1.0373468162072432e-05  3.5201241065559262e-05  1.3352614945733678e-05  5.2749224263073999e-05  1.5710068149988142e-05  7.8214877482145546e-05  1.5226538386002692e-05  1.1439004686872522e-04  6.8951373468573913e-06  1.6424387050259303e-04  -1.9922565181881313e-05  2.2988528463545099e-04  -8.6985208693649989e-05  3.1008509376727951e-04  -2.3758253539141294e-04  3.9509019020511198e-04  -5.5580391807070616e-04  4.5706862937035003e-04  -1.2005948082902745e-03  4.3617634353786019e-04  -2.4594845047855789e-03  2.3537960902120903e-04  -4.8027158067633947e-03  -1.9134594805320020e-04  -8.7491226037147412e-03  -2.1329299861051786e-04  -1.3230633887346004e-02  1.3257420414750807e-02  -3.4313010381255005e-03  -1.3099102033625109e-02  2.6606383688024549e-01  5.5728468950815058e-01  7.2110465820727010e-01  8.2402787444278636e-01  8.8880903317953841e-01  9.2969922858059850e-01  9.5553463788067960e-01  9.7186775233209810e-01  9.8219757174597988e-01  9.8873252600566730e-01  9.9286766618027378e-01  9.9548473711704544e-01  9.9714128030986904e-01  9.9818995255097620e-01  9.9885387404779002e-01  9.9927423832254769e-01  9.9954040929308852e-01  9.9970895447509611e-01  9.9981568501353602e-01  9.9988327377599318e-01  9.9992607646907050e-01  9.9995318315244974e-01  9.9997034992493594e-01  9.9998122185183613e-01  9.9998810724730469e-01  9.9999246793368279e-01  9.9999522967941790e-01  9.9999697878015714e-01  9.9999808654550493e-01  9.9999878813353726e-01  9.9999923247588329e-01  9.9999951389534680e-01  9.9999969212962891e-01  9.9999980501271934e-01  9.9999987650628275e-01  9.9999992178616548e-01  9.9999995046383561e-01  9.9999996862662788e-01  9.9999998012989988e-01  9.9999998741541618e-01  9.9999999202964629e-01  9.9999999495203529e-01  9.9999999680290930e-01  9.9999999797514683e-01  9.9999999871757550e-01  9.9999999918778626e-01  9.9999999948559015e-01  9.9999999967420228e-01  9.9999999979365672e-01  9.9999999986931531e-01  9.9999999991723121e-01  9.9999999994757971e-01  9.9999999996680089e-01  9.9999999997897304e-01  9.9999999998668321e-01  9.9999999999156508e-01  9.9999999999465949e-01  9.9999999999661671e-01  9.9999999999785760e-01  9.9999999999864320e-01  9.9999999999914024e-01  9.9999999999945677e-01  9.9999999999965594e-01  9.9999999999978251e-01  9.9999999999986322e-01  9.9999999999991340e-01  9.9999999999994515e-01  9.9999999999996669e-01  9.9999999999997935e-01  9.9999999999998768e-01  9.9999999999999190e-01  9.9999999999999545e-01  9.9999999999999756e-01  9.9999999999999833e-01  9.9999999999999989e-01  9.9999999999999967e-01  1.0000000000000004e+00  1.0000000000000000e+00  1.0000000000000000e+00  1.0000000000000007e+00  1.0000000000000002e+00  1.0000000000000013e+00  1.0000000000000007e+00  0.0000000000000000e+00  1.4042626458086584e-11  9.1750966544402479e-11  7.6535181646266304e-11  1.7963510986567401e-10  1.4057251667029034e-10  2.9607345001951501e-10  2.2569012637662377e-10  4.6960186197445471e-10  3.5069115667282863e-10  7.3735762648698877e-10  5.3948240240824818e-10  1.1541707066313655e-09  8.2623199119451097e-10  1.8041296255527384e-09  1.2614177468084201e-09  2.8174214436899524e-09  1.9199857277684052e-09  4.3959027928311960e-09  2.9127883149676542e-09  6.8523248357374666e-09  4.4025948328002082e-09  1.0670557351404168e-08  6.6260971779891710e-09  1.6597887677189234e-08  9.9232460937174338e-09  2.5786083691413086e-08  1.4774551551099993e-08  4.0006258445126326e-08  2.1844890981086508e-08  6.1974869944094504e-08  3.2027406488788425e-08  9.5846109097414634e-08  4.6470432403876847e-08  1.4795171659136566e-07  6.6548873455467005e-08  2.2790580526189749e-07  9.3699530166435239e-08  3.5024301249051494e-07  1.2896032686460430e-07  5.3682699800083230e-07  1.7190543136061462e-07  8.2035609559101352e-07  2.1839724244822485e-07  1.2494046628823214e-06  2.5608618879809747e-07  1.8955677202480145e-06  2.5571316830766514e-07  2.8634078301657197e-06  1.5471946745761619e-07  4.3040055707331624e-06  -1.7304446614847455e-07  6.4329385247542467e-06  -9.7241652213162744e-07  9.5534071359069953e-06  -2.7057527354853259e-06  1.4085019990600443e-05  -6.2278835493537511e-06  2.0598837154997717e-05  -1.3091684014809339e-05  2.9861205551150713e-05  -2.6073747031358287e-05  4.2897614615765284e-05  -5.0062002595685754e-05  6.1117222330706936e-05  -9.3517293326448897e-05  8.6626437929643592e-05  -1.7079209913302505e-04  1.2310372280172356e-04  -3.0559014426374776e-04  1.7825530204239844e-04  -5.3555576550692451e-04  2.7053352491555486e-04  -9.1678141079030442e-04  4.4690899716088998e-04  -1.5234896564606320e-03  8.2800506706942156e-04  -2.4300588309843223e-03  1.7155859449049548e-03  -3.6544591413756838e-03  3.8102409382607624e-03  -5.1110372827895597e-03  8.9094946515654201e-03  -1.3850019466600395e-02  -1.8016964309681210e-03  -2.8913933515260875e-02  2.6726253387581045e-01  5.6396120184886156e-01  7.2893586308001534e-01  8.3087078107085577e-01  8.9406155611980265e-01  9.3346271590524943e-01  9.5812652286439104e-01  9.7360950467975893e-01  9.8334946319317440e-01  9.8948608735047305e-01  9.9335689410738581e-01  9.9580060775534540e-01  9.9734439245991879e-01  9.9832015700525378e-01  9.9893714431666325e-01  9.9932739472865828e-01  9.9957429310331591e-01  9.9973052835868648e-01  9.9982940844468837e-01  9.9989199690615360e-01  9.9993161784839701e-01  9.9995670157064576e-01  9.9997258298118652e-01  9.9998263864219916e-01  9.9998900589706485e-01  9.9999303780237525e-01  9.9999559098559854e-01  9.9999720781734536e-01  9.9999823171587132e-01  9.9999888013624672e-01  9.9999929077764360e-01  9.9999955083794501e-01  9.9999971553649658e-01  9.9999981984246089e-01  9.9999988590139366e-01  9.9999992773800672e-01  9.9999995423420962e-01  9.9999997101500437e-01  9.9999998164279547e-01  9.9999998837372017e-01  9.9999999263664430e-01  9.9999999533650585e-01  9.9999999704642673e-01  9.9999999812938445e-01  9.9999999881526280e-01  9.9999999924965732e-01  9.9999999952477758e-01  9.9999999969902176e-01  9.9999999980937948e-01  9.9999999987927124e-01  9.9999999992353850e-01  9.9999999995157340e-01  9.9999999996932942e-01  9.9999999998057565e-01  9.9999999998769773e-01  9.9999999999220945e-01  9.9999999999506539e-01  9.9999999999687617e-01  9.9999999999802147e-01  9.9999999999874722e-01  9.9999999999920686e-01  9.9999999999949729e-01  9.9999999999968170e-01  9.9999999999979827e-01  9.9999999999987166e-01  9.99999999