<?xml version="1.0"?>
<VTKFile type="UnstructuredGrid"  version="0.1"  >
<UnstructuredGrid>
<Piece  NumberOfPoints="21400" NumberOfCells="42336">
<Points>
<DataArray  type="Float64"  NumberOfComponents="3"  format="ascii">0 0 0  0.004583333333333333 0 0  0.009166666666666667 0 0  0.01375 0 0  0.01833333333333333 0 0  0.02291666666666667 0 0  0.0275 0 0  0.03208333333333334 0 0  0.03666666666666667 0 0  0.04125 0 0  0.04583333333333334 0 0  0.05041666666666667 0 0  0.055 0 0  0.05958333333333334 0 0  0.06416666666666668 0 0  0.06875000000000001 0 0  0.07333333333333333 0 0  0.07791666666666666 0 0  0.08249999999999999 0 0  0.08708333333333333 0 0  0.09166666666666667 0 0  0.09625000000000002 0 0  0.1008333333333333 0 0  0.1054166666666667 0 0  0.11 0 0  0.1145833333333333 0 0  0.1191666666666667 0 0  0.12375 0 0  0.1283333333333334 0 0  0.1329166666666667 0 0  0.1375 0 0  0.1420833333333333 0 0  0.1466666666666667 0 0  0.15125 0 0  0.1558333333333333 0 0  0.1604166666666667 0 0  0.165 0 0  0.1695833333333333 0 0  0.1741666666666667 0 0  0.17875 0 0  0.1833333333333333 0 0  0.1879166666666667 0 0  0.1925 0 0  0.1970833333333333 0 0  0.2016666666666667 0 0  0.20625 0 0  0.2108333333333333 0 0  0.2154166666666666 0 0  0.22 0 0  0.2245833333333334 0 0  0.2291666666666667 0 0  0.23375 0 0  0.2383333333333333 0 0  0.2429166666666667 0 0  0.2475 0 0  0.2520833333333333 0 0  0.2566666666666667 0 0  0.26125 0 0  0.2658333333333334 0 0  0.2704166666666666 0 0  0.275 0 0  0.2795833333333334 0 0  0.2841666666666667 0 0  0.28875 0 0  0.2933333333333333 0 0  0.2979166666666667 0 0  0.3025 0 0  0.3070833333333334 0 0  0.3116666666666666 0 0  0.31625 0 0  0.3208333333333333 0 0  0.3254166666666667 0 0  0.33 0 0  0.3345833333333333 0 0  0.3391666666666667 0 0  0.34375 0 0  0.3483333333333333 0 0  0.3529166666666667 0 0  0.3575 0 0  0.3620833333333333 0 0  0.3666666666666667 0 0  0.37125 0 0  0.3758333333333334 0 0  0.3804166666666667 0 0  0.3850000000000001 0 0  0.3895833333333333 0 0  0.3941666666666667 0 0  0.39875 0 0  0.4033333333333334 0 0  0.4079166666666666 0 0  0.4125 0 0  0.4170833333333334 0 0  0.4216666666666667 0 0  0.42625 0 0  0.4308333333333333 0 0  0.4354166666666667 0 0  0.44 0 0  0.4445833333333333 0 0  0.4491666666666667 0 0  0.45375 0 0  0.4583333333333333 0 0  0.4629166666666666 0 0  0.4675 0 0  0.4720833333333334 0 0  0.4766666666666667 0 0  0.4812500000000001 0 0  0.4858333333333333 0 0  0.4904166666666667 0 0  0.495 0 0  0.4995833333333334 0 0  0.5041666666666667 0 0  0.50875 0 0  0.5133333333333334 0 0  0.5179166666666667 0 0  0.5225 0 0  0.5270833333333333 0 0  0.5316666666666667 0 0  0.53625 0 0  0.5408333333333333 0 0  0.5454166666666667 0 0  0.55 0 0  0.5545833333333333 0 0  0.5591666666666667 0 0  0.5637500000000001 0 0  0.5683333333333334 0 0  0.5729166666666666 0 0  0.5775 0 0  0.5820833333333334 0 0  0.5866666666666667 0 0  0.5912499999999999 0 0  0.5958333333333334 0 0  0.6004166666666667 0 0  0.605 0 0  0.6095833333333334 0 0  0.6141666666666667 0 0  0.61875 0 0  0.6233333333333333 0 0  0.6279166666666667 0 0  0.6325000000000001 0 0  0.6370833333333333 0 0  0.6416666666666666 0 0  0.64625 0 0  0.6508333333333334 0 0  0.6554166666666666 0 0  0.6599999999999999 0 0  0.6645833333333334 0 0  0.6691666666666667 0 0  0.67375 0 0  0.6783333333333333 0 0  0.6829166666666667 0 0  0.6875 0 0  0.6920833333333333 0 0  0.6966666666666667 0 0  0.70125 0 0  0.7058333333333333 0 0  0.7104166666666667 0 0  0.7150000000000001 0 0  0.7195833333333334 0 0  0.7241666666666666 0 0  0.72875 0 0  0.7333333333333334 0 0  0.7379166666666667 0 0  0.7425 0 0  0.7470833333333333 0 0  0.7516666666666667 0 0  0.75625 0 0  0.7608333333333334 0 0  0.7654166666666666 0 0  0.7700000000000001 0 0  0 0.002380952380952381 0  0.004583333333333333 0.002380952380952381 0  0.009166666666666667 0.002380952380952381 0  0.01375 0.002380952380952381 0  0.01833333333333333 0.002380952380952381 0  0.02291666666666667 0.002380952380952381 0  0.0275 0.002380952380952381 0  0.03208333333333334 0.002380952380952381 0  0.03666666666666667 0.002380952380952381 0  0.04125 0.002380952380952381 0  0.04583333333333334 0.002380952380952381 0  0.05041666666666667 0.002380952380952381 0  0.055 0.002380952380952381 0  0.05958333333333334 0.002380952380952381 0  0.06416666666666668 0.002380952380952381 0  0.06875000000000001 0.002380952380952381 0  0.07333333333333333 0.002380952380952381 0  0.07791666666666666 0.002380952380952381 0  0.08249999999999999 0.002380952380952381 0  0.08708333333333333 0.002380952380952381 0  0.09166666666666667 0.002380952380952381 0  0.09625000000000002 0.002380952380952381 0  0.1008333333333333 0.002380952380952381 0  0.1054166666666667 0.002380952380952381 0  0.11 0.002380952380952381 0  0.1145833333333333 0.002380952380952381 0  0.1191666666666667 0.002380952380952381 0  0.12375 0.002380952380952381 0  0.1283333333333334 0.002380952380952381 0  0.1329166666666667 0.002380952380952381 0  0.1375 0.002380952380952381 0  0.1420833333333333 0.002380952380952381 0  0.1466666666666667 0.002380952380952381 0  0.15125 0.002380952380952381 0  0.1558333333333333 0.002380952380952381 0  0.1604166666666667 0.002380952380952381 0  0.165 0.002380952380952381 0  0.1695833333333333 0.002380952380952381 0  0.1741666666666667 0.002380952380952381 0  0.17875 0.002380952380952381 0  0.1833333333333333 0.002380952380952381 0  0.1879166666666667 0.002380952380952381 0  0.1925 0.002380952380952381 0  0.1970833333333333 0.002380952380952381 0  0.2016666666666667 0.002380952380952381 0  0.20625 0.002380952380952381 0  0.2108333333333333 0.002380952380952381 0  0.2154166666666666 0.002380952380952381 0  0.22 0.002380952380952381 0  0.2245833333333334 0.002380952380952381 0  0.2291666666666667 0.002380952380952381 0  0.23375 0.002380952380952381 0  0.2383333333333333 0.002380952380952381 0  0.2429166666666667 0.002380952380952381 0  0.2475 0.002380952380952381 0  0.2520833333333333 0.002380952380952381 0  0.2566666666666667 0.002380952380952381 0  0.26125 0.002380952380952381 0  0.2658333333333334 0.002380952380952381 0  0.2704166666666666 0.002380952380952381 0  0.275 0.002380952380952381 0  0.2795833333333334 0.002380952380952381 0  0.2841666666666667 0.002380952380952381 0  0.28875 0.002380952380952381 0  0.2933333333333333 0.002380952380952381 0  0.2979166666666667 0.002380952380952381 0  0.3025 0.002380952380952381 0  0.3070833333333334 0.002380952380952381 0  0.3116666666666666 0.002380952380952381 0  0.31625 0.002380952380952381 0  0.3208333333333333 0.002380952380952381 0  0.3254166666666667 0.002380952380952381 0  0.33 0.002380952380952381 0  0.3345833333333333 0.002380952380952381 0  0.3391666666666667 0.002380952380952381 0  0.34375 0.002380952380952381 0  0.3483333333333333 0.002380952380952381 0  0.3529166666666667 0.002380952380952381 0  0.3575 0.002380952380952381 0  0.3620833333333333 0.002380952380952381 0  0.3666666666666667 0.002380952380952381 0  0.37125 0.002380952380952381 0  0.3758333333333334 0.002380952380952381 0  0.3804166666666667 0.002380952380952381 0  0.3850000000000001 0.002380952380952381 0  0.3895833333333333 0.002380952380952381 0  0.3941666666666667 0.002380952380952381 0  0.39875 0.002380952380952381 0  0.4033333333333334 0.002380952380952381 0  0.4079166666666666 0.002380952380952381 0  0.4125 0.002380952380952381 0  0.4170833333333334 0.002380952380952381 0  0.4216666666666667 0.002380952380952381 0  0.42625 0.002380952380952381 0  0.4308333333333333 0.002380952380952381 0  0.4354166666666667 0.002380952380952381 0  0.44 0.002380952380952381 0  0.4445833333333333 0.002380952380952381 0  0.4491666666666667 0.002380952380952381 0  0.45375 0.002380952380952381 0  0.4583333333333333 0.002380952380952381 0  0.4629166666666666 0.002380952380952381 0  0.4675 0.002380952380952381 0  0.4720833333333334 0.002380952380952381 0  0.4766666666666667 0.002380952380952381 0  0.4812500000000001 0.002380952380952381 0  0.4858333333333333 0.002380952380952381 0  0.4904166666666667 0.002380952380952381 0  0.495 0.002380952380952381 0  0.4995833333333334 0.002380952380952381 0  0.5041666666666667 0.002380952380952381 0  0.50875 0.002380952380952381 0  0.5133333333333334 0.002380952380952381 0  0.5179166666666667 0.002380952380952381 0  0.5225 0.002380952380952381 0  0.5270833333333333 0.002380952380952381 0  0.5316666666666667 0.002380952380952381 0  0.53625 0.002380952380952381 0  0.5408333333333333 0.002380952380952381 0  0.5454166666666667 0.002380952380952381 0  0.55 0.002380952380952381 0  0.5545833333333333 0.002380952380952381 0  0.5591666666666667 0.002380952380952381 0  0.5637500000000001 0.002380952380952381 0  0.5683333333333334 0.002380952380952381 0  0.5729166666666666 0.002380952380952381 0  0.5775 0.002380952380952381 0  0.5820833333333334 0.002380952380952381 0  0.5866666666666667 0.002380952380952381 0  0.5912499999999999 0.002380952380952381 0  0.5958333333333334 0.002380952380952381 0  0.6004166666666667 0.002380952380952381 0  0.605 0.002380952380952381 0  0.6095833333333334 0.002380952380952381 0  0.6141666666666667 0.002380952380952381 0  0.61875 0.002380952380952381 0  0.6233333333333333 0.002380952380952381 0  0.6279166666666667 0.002380952380952381 0  0.6325000000000001 0.002380952380952381 0  0.6370833333333333 0.002380952380952381 0  0.6416666666666666 0.002380952380952381 0  0.64625 0.002380952380952381 0  0.6508333333333334 0.002380952380952381 0  0.6554166666666666 0.002380952380952381 0  0.6599999999999999 0.002380952380952381 0  0.6645833333333334 0.002380952380952381 0  0.6691666666666667 0.002380952380952381 0  0.67375 0.002380952380952381 0  0.6783333333333333 0.002380952380952381 0  0.6829166666666667 0.002380952380952381 0  0.6875 0.002380952380952381 0  0.6920833333333333 0.002380952380952381 0  0.6966666666666667 0.002380952380952381 0  0.70125 0.002380952380952381 0  0.7058333333333333 0.002380952380952381 0  0.7104166666666667 0.002380952380952381 0  0.7150000000000001 0.002380952380952381 
[...]
<PointData  Scalars="concentration"> 
<DataArray  type="Float64"  Name="concentration"  format="ascii">0.0000000000000000e+00  4.0489215035777817e-05  4.6972216458614599e-05  8.8834670924935885e-05  8.8113776274167263e-05  1.5027906180124730e-04  1.4574306522111696e-04  2.4600858733591724e-04  2.3723390854940671e-04  4.0180552155253752e-04  3.8610720564092389e-04  6.5804957319646768e-04  6.2999009703541343e-04  1.0819518715335186e-03  1.0313166705507434e-03  1.7875074722294231e-03  1.6950525599349166e-03  2.9708502965344183e-03  2.7997302506256967e-03  4.9754936888356310e-03  4.6535932357883326e-03  8.4182007980701436e-03  7.8002693279240407e-03  1.4447500856526591e-02  1.3229652555160121e-02  2.5325900177276133e-02  2.2840375111242622e-02  4.5929068268508705e-02  4.0654430086858574e-02  8.9064239092708899e-02  7.2550532630419856e-02  3.9904622415944208e-01  3.3664793206888549e-01  8.4146983873132730e-01  1.1645729616655405e+00  1.0977193214701106e+00  1.0489702528240099e+00  1.0289663371872315e+00  1.0173519374908149e+00  1.0105627952775424e+00  1.0064864048111455e+00  1.0040082909716366e+00  1.0024883406249687e+00  1.0015501660219515e+00  1.0009683334380812e+00  1.0006061781605751e+00  1.0003801151989944e+00  1.0002386842496498e+00  1.0001500415003841e+00  1.0000944033516965e+00  1.0000594400660279e+00  1.0000374480028984e+00  1.0000236041506680e+00  1.0000148840166383e+00  1.0000093884262504e+00  1.0000059235341876e+00  1.0000037382096134e+00  1.0000023595219396e+00  1.0000014895258502e+00  1.0000009404252108e+00  1.0000005938041936e+00  1.0000003749706690e+00  1.0000002367990801e+00  1.0000001495499131e+00  1.0000000944520615e+00  1.0000000596557486e+00  1.0000000376795601e+00  1.0000000237995952e+00  1.0000000150328610e+00  1.0000000094955523e+00  1.0000000059979690e+00  1.0000000037887182e+00  1.0000000023932258e+00  1.0000000015117425e+00  1.0000000009549348e+00  1.0000000006032128e+00  1.0000000003810396e+00  1.0000000002406957e+00  1.0000000001520448e+00  1.0000000000960452e+00  1.0000000000606706e+00  1.0000000000383251e+00  1.0000000000242097e+00  1.0000000000152935e+00  1.0000000000096620e+00  1.0000000000061042e+00  1.0000000000038571e+00  1.0000000000024372e+00  1.0000000000015394e+00  1.0000000000009732e+00  1.0000000000006151e+00  1.0000000000003890e+00  1.0000000000002462e+00  1.0000000000001552e+00  1.0000000000000995e+00  1.0000000000000644e+00  1.0000000000000404e+00  1.0000000000000273e+00  1.0000000000000167e+00  1.0000000000000111e+00  1.0000000000000078e+00  1.0000000000000062e+00  1.0000000000000040e+00  1.0000000000000033e+00  1.0000000000000020e+00  1.0000000000000027e+00  1.0000000000000020e+00  1.0000000000000022e+00  1.0000000000000000e+00  1.0000000000000027e+00  1.0000000000000024e+00  1.0000000000000013e+00  1.0000000000000020e+00  1.0000000000000018e+00  1.0000000000000018e+00  1.0000000000000018e+00  1.0000000000000016e+00  1.0000000000000022e+00  1.0000000000000011e+00  1.0000000000000018e+00  1.0000000000000016e+00  1.0000000000000020e+00  1.0000000000000013e+00  1.0000000000000011e+00  1.0000000000000022e+00  1.0000000000000009e+00  1.0000000000000009e+00  1.0000000000000013e+00  1.0000000000000009e+00  1.0000000000000013e+00  1.0000000000000033e+00  1.0000000000000022e+00  1.0000000000000020e+00  1.0000000000000016e+00  1.0000000000000047e+00  1.0000000000000024e+00  1.0000000000000020e+00  1.0000000000000027e+00  1.0000000000000016e+00  1.0000000000000018e+00  1.0000000000000007e+00  1.0000000000000011e+00  1.0000000000000016e+00  1.0000000000000020e+00  1.0000000000000016e+00  1.0000000000000024e+00  1.0000000000000016e+00  1.0000000000000018e+00  1.0000000000000018e+00  1.0000000000000020e+00  1.0000000000000013e+00  1.0000000000000011e+00  1.0000000000000016e+00  1.0000000000000016e+00  1.0000000000000022e+00  1.0000000000000018e+00  1.0000000000000024e+00  1.0000000000000020e+00  1.0000000000000022e+00  1.0000000000000018e+00  1.0000000000000020e+00  1.0000000000000031e+00  1.0000000000000029e+00  1.0000000000000033e+00  1.0000000000000020e+00  1.0000000000000018e+00  1.0000000000000016e+00  1.0000000000000009e+00  1.0000000000000011e+00  0.0000000000000000e+00  5.8987757624743742e-06  4.1220468981150377e-05  4.1618982525152119e-05  8.7919221518374102e-05  8.0759286786649933e-05  1.5114623103726292e-04  1.3535600513551465e-04  2.4823356771736590e-04  2.1944223748944077e-04  4.0371215599233241e-04  3.5285942968122763e-04  6.5604892428250210e-04  5.6613807422796199e-04  1.0679085681756372e-03  9.0733395995378017e-04  1.7428740846260474e-03  1.4519916023773931e-03  2.8536717552500174e-03  2.3170769828660155e-03  4.6907885578570405e-03  3.6773795483149661e-03  7.7477625150185123e-03  5.7723741862045763e-03  1.2873820509780975e-02  8.8472369795045778e-03  2.1550092384612092e-02  1.2774416471974843e-02  3.6323163532075591e-02  1.5167664522265990e-02  6.0167796309978719e-02  -5.1279772187977725e-02  3.4403048339180425e-02  -4.0556710168639779e-02  1.1607767213132125e-01  5.1003930413496978e-01  6.9296397381778585e-01  8.0772881025214260e-01  8.7914870859265826e-01  9.2392871473616511e-01  9.5206881362926776e-01  9.6977964254384397e-01  9.8093738544065212e-01  9.8797146934744462e-01  9.9240805579737346e-01  9.9520732927707556e-01  9.9697401146790776e-01  9.9808923240188918e-01  9.9879332978410884e-01  9.9923791895199754e-01  9.9951867423333129e-01  9.9969598335820598e-01  9.9980796876954847e-01  9.9987870038863547e-01  9.9992337730873304e-01  9.9995159795041932e-01  9.9996942427476310e-01  9.9998068498408887e-01  9.9998779837873653e-01  9.9999229197238781e-01  9.9999513064447598e-01  9.9999692389188832e-01  9.9999805673025810e-01  9.9999877237548851e-01  9.9999922446993039e-01  9.9999951007220533e-01  9.9999969049645132e-01  9.9999980447643455e-01  9.9999987648140110e-01  9.9999992196934973e-01  9.9999995070559466e-01  9.9999996885922104e-01  9.9999998032744941e-01  9.9999998757228770e-01  9.9999999214907309e-01  9.9999999504036419e-01  9.9999999686687324e-01  9.9999999802073025e-01  9.9999999874965040e-01  9.9999999921012772e-01  9.9999999950102270e-01  9.9999999968478748e-01  9.9999999980087517e-01  9.9999999987421073e-01  9.9999999992053734e-01  9.9999999994980349e-01  9.9999999996829081e-01  9.9999999997996958e-01  9.9999999998734745e-01  9.9999999999200784e-01  9.9999999999495204e-01  9.9999999999681188e-01  9.9999999999798606e-01  9.9999999999872891e-01  9.9999999999919686e-01  9.9999999999949252e-01  9.9999999999968081e-01  9.9999999999979750e-01  9.9999999999987388e-01  9.9999999999992062e-01  9.9999999999995037e-01  9.9999999999996847e-01  9.9999999999998090e-01  9.9999999999998779e-01  9.9999999999999367e-01  9.9999999999999545e-01  9.9999999999999833e-01  9.9999999999999867e-01  1.0000000000000011e+00  9.9999999999999967e-01  1.0000000000000002e+00  1.0000000000000009e+00  1.0000000000000004e+00  1.0000000000000009e+00  1.0000000000000009e+00  1.0000000000000011e+00  1.0000000000000013e+00  1.0000000000000009e+00  1.0000000000000018e+00  1.0000000000000016e+00  1.0000000000000018e+00  1.0000000000000016e+00  1.0000000000000018e+00  1.0000000000000016e+00  1.0000000000000004e+00  1.0000000000000018e+00  1.0000000000000016e+00  1.0000000000000013e+00  1.0000000000000022e+00  1.0000000000000018e+00  1.0000000000000004e+00  1.0000000000000016e+00  1.0000000000000018e+00  1.0000000000000020e+00  9.9999999999999911e-01  1.0000000000000004e+00  1.0000000000000009e+00  1.0000000000000000e+00  1.0000000000000011e+00  1.0000000000000004e+00  1.0000000000000018e+00  1.0000000000000009e+00  1.0000000000000007e+00  1.0000000000000007e+00  1.0000000000000016e+00  1.0000000000000007e+00  1.0000000000000018e+00  1.0000000000000011e+00  1.0000000000000013e+00  1.0000000000000007e+00  1.0000000000000016e+00  1.0000000000000018e+00  1.0000000000000009e+00  1.0000000000000011e+00  1.0000000000000009e+00  1.0000000000000013e+00  1.0000000000000007e+00  1.0000000000000016e+00  1.0000000000000013e+00  1.0000000000000016e+00  1.0000000000000016e+00  1.0000000000000011e+00  1.0000000000000011e+00  1.0000000000000000e+00  1.0000000000000009e+00  1.0000000000000004e+00  1.0000000000000004e+00  1.0000000000000007e+00  1.0000000000000009e+00  0.0000000000000000e+00  2.2955362900137705e-05  1.6463762402447199e-05  4.5411907257638275e-05  3.0888956885293339e-05  7.5314128132180421e-05  4.9252934168381317e-05  1.2023673922701064e-04  7.5212115873938588e-05  1.8995188490182895e-04  1.1234113722710414e-04  2.9870513366666744e-04  1.6410763508794228e-04  4.6787550740370177e-04  2.3233692668143426e-04  7.2929029763744860e-04  3.1250270084553182e-04  1.1290464893773374e-03  3.8142914978940318e-04  1.7304506005644369e-03  3.6635058645517532e-04  2.6112228808053959e-03  6.6844398455919164e-05  3.8402902949860938e-03  -1.0483610699481673e-03  5.3908484788725433e-03  -4.4047095900861255e-03  6.8490575670131157e-03  -1.4072424756810462e-02  6.2517855493397960e-03  -4.9002279886343439e-02  2.3216928022159744e-02  -3.2760389385401059e-02  1.7561927102224287e-01  5.1698920716203700e-01  7.0692146020292967e-01  8.1693079178101824e-01  8.8477827502875384e-01  9.2728599796091737e-01  9.5404760079710249e-01  9.7093631497379762e-01  9.8160847624028658e-01  9.8835778752111814e-01  9.9262845379125719e-01  9.9533171512467034e-01  9.9704326890057249e-01  9.9812712785856106e-01  9.9881358582534885e-01  9.9924839583098934e-01  9.9952383078880858e-01  9.9969831851509983e-01  9.9980886152704318e-01  9.9987889633949689e-01  9.9992326840046208e-01  9.9995138194590694e-01  9.9996919465653233e-01  9.9998048094629488e-01  9.9998763212955377e-01  9.9999216328684648e-01  9.9999503435880832e-01  9.9999685356561274e-01  9.9999800628232749e-01  9.9999873668979311e-01  9.9999919950706884e-01  9.9999949276878686e-01  9.9999967859304750e-01  9.9999979634022074e-01  9.9999987095063081e-01  9.9999991822754786e-01  9.9999994818462490e-01  9.9999996716699302e-01  9.9999997919522454e-01  9.9999998681695534e-01  9.9999999164649589e-01  9.9999999470675560e-01  9.9999999664590333e-01  9.9999999787465632e-01  9.9999999865326150e-01  9.9999999914663085e-01  9.9999999945925755e-01  9.9999999965735475e-01  9.9999999978288090e-01  9.9999999986242150e-01  9.9999999991282240e-01  9.9999999994476041e-01  9.9999999996499700e-01  9.9999999997782107e-01  9.9999999998594657e-01  9.9999999999109535e-01  9.9999999999435751e-01  9.9999999999642530e-01  9.9999999999773492e-01  9.9999999999856537e-01  9.9999999999909106e-01  9.9999999999942513e-01  9.9999999999963696e-01  9.9999999999976963e-01  9.9999999999985589e-01  9.9999999999990785e-01  9.9999999999994282e-01  9.9999999999996458e-01  9.9999999999997857e-01  9.9999999999998646e-01  9.9999999999999256e-01  9.9999999999999500e-01  9.9999999999999845e-01  9.9999999999999856e-01  1.0000000000000007e+00  1.0000000000000000e+00  1.0000000000000013e+00  1.0000000000000009e+00  1.0000000000000004e+00  1.0000000000000009e+00  1.0000000000000007e+00  1.0000000000000002e+00  1.0000000000000000e+00  1.0000000000000002e+00  1.0000000000000011e+00  9.9999999999999989e-01  1.0000000000000004e+00  1.0000000000000004e+00  1.0000000000000002e+00  1.0000000000000007e+00  1.0000000000000004e+00  1.0000000000000013e+00  9.9999999999999978e-01  9.9999999999999967e-01  1.0000000000000002e+00  9.9999999999999933e-01  1.0000000000000002e+00  1.0000000000000009e+00  1.0000000000000000e+00  1.0000000000000002e+00  9.9999999999999989e-01  1.0000000000000016e+00  1.0000000000000011e+00  1.0000000000000016e+00  1.0000000000000024e+00  1.0000000000000009e+00  1.0000000000000016e+00  1.0000000000000004e+00  1.0000000000000011e+00  1.0000000000000013e+00  1.0000000000000020e+00  1.0000000000000011e+00  1.0000000000000027e+00  1.0000000000000011e+00  1.0000000000000018e+00  1.0000000000000013e+00  1.0000000000000018e+00  1.0000000000000011e+00  1.0000000000000007e+00  1.0000000000000009e+00  1.0000000000000004e+00  1.0000000000000007e+00  1.0000000000000000e+00  1.0000000000000004e+00  1.0000000000000000e+00  1.0000000000000004e+00  1.0000000000000000e+00  1.0000000000000004e+00  1.0000000000000007e+00  1.0000000000000007e+00  1.0000000000000013e+00  1.0000000000000007e+00  1.0000000000000011e+00  1.0000000000000011e+00  1.0000000000000004e+00  1.0000000000000004e+00  0.0000000000000000e+00  -7.1644807565380961e-06  1.2824883467459830e-05  -2.9825877174337586e-06  2.5474483555935257e-05  -3.2751507247291446e-06  4.1003298049638593e-05  -8.2856892818384708e-06  6.2478232278870692e-05  -2.1138662375109399e-05  9.3051698062275912e-05  -4.9009044301080333e-05  1.3629416818713861e-04  -1.0623712899720873e-04  1.9611774582453480e-04  -2.2055280563354650e-04  2.7619206672995227e-04  -4.4495574635626626e-04  3.7887119069957806e-04  -8.8002154928153002e-04  5.0485152702434003e-04  -1.7150367742872958e-03  6.6052352061416538e-04  -3.3008043226515466e-03  9.0450598404938473e-04  -6.2634922273467593e-03  1.5724321469596076e-03  -1.1593242940702977e-02  4.3883191517204278e-03  -2.0128371147182383e-02  2.5632028304893358e-02  -2.1196736937126242e-02  1.3928606901317144e-02  2.2247188104177515e-01  4.8359545330234882e-01  6.6559844745675112e-01  7.8798873585167373e-01  8.6594975776431771e-01  9.1525034176335240e-01  9.4640715978724077e-01  9.6610074698622972e-01  9.7855278728674011e-01  9.8642843000280689e-01  9.9141082253647272e-01  9.9456346307717702e-01  9.9655862324207412e-01  9.9782142121981576e-01  9.9862076185734483e-01  9.9912677676047523e-01  9.9944712435203620e-01  9.9964993983710926e-01  9.9977834961355139e-01  9.9985965308424773e-01  9.9991113224281847e-01  9.9994372814569554e-01  9.9996436778405440e-01  9.9997743693108621e-01  9.9998571249043100e-01  9.9999095273426175e-01  9.9999427098270499e-01  9.9999637219023563e-01  9.9999770274003796e-01  9.9999854528879117e-01  9.9999907882060546e-01  9.9999941667276493e-01  9.9999963061372465e-01  9.9999976608956287e-01  9.9999985187830143e-01  9.9999990620321833e-01  9.9999994060399189e-01  9.9999996238798250e-01  9.9999997618251024e-01  9.9999998491777931e-01  9.9999999044931476e-01  9.9999999395211370e-01  9.9999999617023172e-01  9.9999999757483471e-01  9.9999999846428811e-01  9.9999999902752545e-01  9.9999999938419015e-01  9.9999999961004515e-01  9.9999999975306531e-01  9.9999999984363175e-01  9.9999999990098232e-01  9.9999999993729771e-01  9.9999999996029532e-01  9.9999999997485767e-01  9.9999999998407929e-01  9.9999999998991929e-01  9.9999999999361733e-01  9.9999999999595823e-01  9.9999999999744171e-01  9.9999999999838063e-01  9.9999999999897571e-01  9.9999999999935130e-01  9.9999999999958955e-01  9.9999999999974165e-01  9.9999999999983535e-01  9.9999999999989730e-01  9.9999999999993494e-01  9.9999999999995948e-01  9.9999999999997502e-01  9.9999999999998479e-01  9.9999999999999023e-01  9.9999999999999523e-01  9.9999999999999611e-01  9.9999999999999856e-01  9.9999999999999867e-01  1.0000000000000004e+00  1.0000000000000002e+00  1.0000000000000016e+00  1.0000000000000020e+00  1.0000000000000018e+00  1.0000000000000022e+00  1.0000000000000020e+00  1.0000000000000013e+00  1.0000000000000016e+00  1.0000000000000009e+00  1.0000000000000018e+00  1.0000000000000009e+00  1.0000000000000009e+00  1.0000000000000013e+00  1.0000000000000016e+00  1.0000000000000013e+00  1.0000000000000004e+00  1.0000000000000018e+00  1.0000000000000018e+00  1.0000000000000011e+00  1.0000000000000009e+00  9.9999999999999944e-01  9.9999999999999922e-01  9.9999999999999978e-01  9.9999999999999933e-01  9.9999999999999878e-01  9.9999999999999922e-01  1.0000000000000004e+00  1.0000000000000004e+00  1.0000000000000000e+00  1.0000000000000018e+00  1.0000000000000009e+00  1.0000000000000016e+00  1.0000000000000002e+00  1.0000000000000009e+00  1.0000000000000000e+00  1.0000000000000009e+00  1.0000000000000000e+00  1.0000000000000018e+00  1.0000000000000007e+00  1.0000000000000009e+00  1.0000000000000004e+00  1.0000000000000007e+00  1.0000000000000013e+00  1.0000000000000009e+00  1.0000000000000013e+00  1.0000000000000009e+00  1.0000000000000013e+00  1.0000000000000000e+00  1.0000000000000004e+00  1.0000000000000002e+00  1.0000000000000004e+00  1.0000000000000007e+00  1.0000000000000011e+00  1.0000000000000004e+00  1.0000000000000007e+00  1.0000000000000011e+00  1.0000000000000002e+00  1.0000000000000007e+00  1.0000000000000011e+00  1.0000000000000009e+00  0.0000000000000000e+00  8.5538652242458018e-06  -9.6953927613735778e-06  7.2104729138893483e-06  -2.0447505531403904e-05  8.1247469565691536e-06  -3.6740886985163991e-05  1.0108167162634663e-05  -6.3918420936427757e-05  1.2667236947377681e-05  -1.1026313324528500e-04  1.5451441874468427e-05  -1.8951120186999696e-04  1.8303828715723436e-05  -3.2467649768125242e-04  2.2056140550462362e-05  -5.5408161841265452e-04  3.1314751148533895e-05  -9.4062040463742857e-04  6.2740684911051620e-05  -1.5850613542852307e-03  1.6818617081125272e-04  -2.6426690833982781e-03  4.9731973003741038e-04  -4.3379542770852885e-03  1.4632993891642828e-03  -6.9686348748400264e-03  4.1671890772883233e-03  -1.1002999563842562e-02  1.1701700828717940e-02  -2.3535612214626616e-02  2.7604255705819866e-03  -1.7357721521556409e-02  1.3627819522604515e-01  4.7866905108071206e-01  6.7234958316819970e-01  7.9370877671041540e-01  8.6992724956473355e-01  9.1788687108264666e-01  9.4811886894184005e-01  9.6720081191425955e-01  9.7925571251366761e-01  9.8687602849256828e-01  9.9169520521227150e-01  9.9474387980177226e-01  9.9667296652542947e-01  9.9789383714499558e-01  9.9866660060756218e-01  9.9915578123031978e-01  9.9946547160284138e-01  9.9966154308534294e-01  9.9978568649162325e-01  9.9986429162347490e-01  9.9991406448993769e-01  9.9994558158218594e-01  9.9996553922133069e-01  9.9997817726808080e-01  9.9998618034699382e-01  9.9999124838012166e-01  9.9999445779651486e-01  9.9999649022938064e-01  9.9999777732039286e-01  9.9999859240878897e-01  9.9999910858995900e-01  9.9999943547967796e-01  9.9999964249464535e-01  9.9999977359485737e-01  9.9999985661930524e-01  9.9999990919795700e-01  9.9999994249560176e-01  9.9999996358277121e-01  9.9999997693714371e-01  9.9999998539439328e-01  9.9999999075032708e-01  9.9999999414221485e-01  9.9999999629028391e-01  9.9999999765064818e-01  9.9999999851216193e-01  9.9999999905775627e-01  9.9999999940327966e-01  9.9999999962209862e-01  9.9999999976067655e-01  9.9999999984843713e-01  9.9999999990401545e-01  9.9999999993921307e-01  9.9999999996150313e-01  9.9999999997562083e-01  9.9999999998456068e-01  9.9999999999022260e-01  9.9999999999380818e-01  9.9999999999607980e-01  9.9999999999751743e-01  9.9999999999842815e-01  9.9999999999900469e-01  9.9999999999937061e-01  9.9999999999960165e-01  9.9999999999974742e-01  9.9999999999984168e-01  9.9999999999989919e-01  9.9999999999993683e-01  9.9999999999995992e-01  9.9999999999997446e-01  9.9999999999998368e-01  9.9999999999999012e-01  9.9999999999999289e-01  9.9999999999999645e-01  9.9999999999999711e-01  9.9999999999999922e-01  9.9999999999999922e-01  1.0000000000000009e+00  1.0000000000000002e+00  1.0000000000000007e+00  1.0000000000000009e+00  1.0000000000000004e+00  1.0000000000000004e+00  1.0000000000000011e+00  1.0000000000000007e+00  1.0000000000000007e+00  9.9999999999999989e-01  1.0000000000000011e+00  1.0000000000000011e+00  1.0000000000000007e+00  1.0000000000000011e+00  1.0000000000000007e+00  1.0000000000000011e+00  1.0000000000000002e+00  1.0000000000000002e+00  1.0000000000000009e+00  1.0000000000000009e+00  1.0000000000000013e+00  1.0000000000000011e+00  1.0000000000000004e+00  1.0000000000000009e+00  1.0000000000000016e+00  1.0000000000000009e+00  1.0000000000000007e+00  1.0000000000000009e+00  1.0000000000000011e+00  1.0000000000000002e+00  1.0000000000000009e+00  9.9999999999999989e-01  1.0000000000000011e+00  1.0000000000000004e+00  1.0000000000000016e+00  1.0000000000000007e+00  1.0000000000000011e+00  9.9999999999999944e-01  1.0000000000000007e+00  1.0000000000000002e+00  1.0000000000000009e+00  1.0000000000000011e+00  1.00000000