<?xml version="1.0"?>
<VTKFile type="UnstructuredGrid"  version="0.1"  >
<UnstructuredGrid>
<Piece  NumberOfPoints="21400" NumberOfCells="42336">
<Points>
<DataArray  type="Float64"  NumberOfComponents="3"  format="ascii">0 0 0  0.004583333333333333 0 0  0.009166666666666667 0 0  0.01375 0 0  0.01833333333333333 0 0  0.02291666666666667 0 0  0.0275 0 0  0.03208333333333334 0 0  0.03666666666666667 0 0  0.04125 0 0  0.04583333333333334 0 0  0.05041666666666667 0 0  0.055 0 0  0.05958333333333334 0 0  0.06416666666666668 0 0  0.06875000000000001 0 0  0.07333333333333333 0 0  0.07791666666666666 0 0  0.08249999999999999 0 0  0.08708333333333333 0 0  0.09166666666666667 0 0  0.09625000000000002 0 0  0.1008333333333333 0 0  0.1054166666666667 0 0  0.11 0 0  0.1145833333333333 0 0  0.1191666666666667 0 0  0.12375 0 0  0.1283333333333334 0 0  0.1329166666666667 0 0  0.1375 0 0  0.1420833333333333 0 0  0.1466666666666667 0 0  0.15125 0 0  0.1558333333333333 0 0  0.1604166666666667 0 0  0.165 0 0  0.1695833333333333 0 0  0.1741666666666667 0 0  0.17875 0 0  0.1833333333333333 0 0  0.1879166666666667 0 0  0.1925 0 0  0.1970833333333333 0 0  0.2016666666666667 0 0  0.20625 0 0  0.2108333333333333 0 0  0.2154166666666666 0 0  0.22 0 0  0.2245833333333334 0 0  0.2291666666666667 0 0  0.23375 0 0  0.2383333333333333 0 0  0.2429166666666667 0 0  0.2475 0 0  0.2520833333333333 0 0  0.2566666666666667 0 0  0.26125 0 0  0.2658333333333334 0 0  0.2704166666666666 0 0  0.275 0 0  0.2795833333333334 0 0  0.2841666666666667 0 0  0.28875 0 0  0.2933333333333333 0 0  0.2979166666666667 0 0  0.3025 0 0  0.3070833333333334 0 0  0.3116666666666666 0 0  0.31625 0 0  0.3208333333333333 0 0  0.3254166666666667 0 0  0.33 0 0  0.3345833333333333 0 0  0.3391666666666667 0 0  0.34375 0 0  0.3483333333333333 0 0  0.3529166666666667 0 0  0.3575 0 0  0.3620833333333333 0 0  0.3666666666666667 0 0  0.37125 0 0  0.3758333333333334 0 0  0.3804166666666667 0 0  0.3850000000000001 0 0  0.3895833333333333 0 0  0.3941666666666667 0 0  0.39875 0 0  0.4033333333333334 0 0  0.4079166666666666 0 0  0.4125 0 0  0.4170833333333334 0 0  0.4216666666666667 0 0  0.42625 0 0  0.4308333333333333 0 0  0.4354166666666667 0 0  0.44 0 0  0.4445833333333333 0 0  0.4491666666666667 0 0  0.45375 0 0  0.4583333333333333 0 0  0.4629166666666666 0 0  0.4675 0 0  0.4720833333333334 0 0  0.4766666666666667 0 0  0.4812500000000001 0 0  0.4858333333333333 0 0  0.4904166666666667 0 0  0.495 0 0  0.4995833333333334 0 0  0.5041666666666667 0 0  0.50875 0 0  0.5133333333333334 0 0  0.5179166666666667 0 0  0.5225 0 0  0.5270833333333333 0 0  0.5316666666666667 0 0  0.53625 0 0  0.5408333333333333 0 0  0.5454166666666667 0 0  0.55 0 0  0.5545833333333333 0 0  0.5591666666666667 0 0  0.5637500000000001 0 0  0.5683333333333334 0 0  0.5729166666666666 0 0  0.5775 0 0  0.5820833333333334 0 0  0.5866666666666667 0 0  0.5912499999999999 0 0  0.5958333333333334 0 0  0.6004166666666667 0 0  0.605 0 0  0.6095833333333334 0 0  0.6141666666666667 0 0  0.61875 0 0  0.6233333333333333 0 0  0.6279166666666667 0 0  0.6325000000000001 0 0  0.6370833333333333 0 0  0.6416666666666666 0 0  0.64625 0 0  0.6508333333333334 0 0  0.6554166666666666 0 0  0.6599999999999999 0 0  0.6645833333333334 0 0  0.6691666666666667 0 0  0.67375 0 0  0.6783333333333333 0 0  0.6829166666666667 0 0  0.6875 0 0  0.6920833333333333 0 0  0.6966666666666667 0 0  0.70125 0 0  0.7058333333333333 0 0  0.7104166666666667 0 0  0.7150000000000001 0 0  0.7195833333333334 0 0  0.7241666666666666 0 0  0.72875 0 0  0.7333333333333334 0 0  0.7379166666666667 0 0  0.7425 0 0  0.7470833333333333 0 0  0.7516666666666667 0 0  0.75625 0 0  0.7608333333333334 0 0  0.7654166666666666 0 0  0.7700000000000001 0 0  0 0.002380952380952381 0  0.004583333333333333 0.002380952380952381 0  0.009166666666666667 0.002380952380952381 0  0.01375 0.002380952380952381 0  0.01833333333333333 0.002380952380952381 0  0.02291666666666667 0.002380952380952381 0  0.0275 0.002380952380952381 0  0.03208333333333334 0.002380952380952381 0  0.03666666666666667 0.002380952380952381 0  0.04125 0.002380952380952381 0  0.04583333333333334 0.002380952380952381 0  0.05041666666666667 0.002380952380952381 0  0.055 0.002380952380952381 0  0.05958333333333334 0.002380952380952381 0  0.06416666666666668 0.002380952380952381 0  0.06875000000000001 0.002380952380952381 0  0.07333333333333333 0.002380952380952381 0  0.07791666666666666 0.002380952380952381 0  0.08249999999999999 0.002380952380952381 0  0.08708333333333333 0.002380952380952381 0  0.09166666666666667 0.002380952380952381 0  0.09625000000000002 0.002380952380952381 0  0.1008333333333333 0.002380952380952381 0  0.1054166666666667 0.002380952380952381 0  0.11 0.002380952380952381 0  0.1145833333333333 0.002380952380952381 0  0.1191666666666667 0.002380952380952381 0  0.12375 0.002380952380952381 0  0.1283333333333334 0.002380952380952381 0  0.1329166666666667 0.002380952380952381 0  0.1375 0.002380952380952381 0  0.1420833333333333 0.002380952380952381 0  0.1466666666666667 0.002380952380952381 0  0.15125 0.002380952380952381 0  0.1558333333333333 0.002380952380952381 0  0.1604166666666667 0.002380952380952381 0  0.165 0.002380952380952381 0  0.1695833333333333 0.002380952380952381 0  0.1741666666666667 0.002380952380952381 0  0.17875 0.002380952380952381 0  0.1833333333333333 0.002380952380952381 0  0.1879166666666667 0.002380952380952381 0  0.1925 0.002380952380952381 0  0.1970833333333333 0.002380952380952381 0  0.2016666666666667 0.002380952380952381 0  0.20625 0.002380952380952381 0  0.2108333333333333 0.002380952380952381 0  0.2154166666666666 0.002380952380952381 0  0.22 0.002380952380952381 0  0.2245833333333334 0.002380952380952381 0  0.2291666666666667 0.002380952380952381 0  0.23375 0.002380952380952381 0  0.2383333333333333 0.002380952380952381 0  0.2429166666666667 0.002380952380952381 0  0.2475 0.002380952380952381 0  0.2520833333333333 0.002380952380952381 0  0.2566666666666667 0.002380952380952381 0  0.26125 0.002380952380952381 0  0.2658333333333334 0.002380952380952381 0  0.2704166666666666 0.002380952380952381 0  0.275 0.002380952380952381 0  0.2795833333333334 0.002380952380952381 0  0.2841666666666667 0.002380952380952381 0  0.28875 0.002380952380952381 0  0.2933333333333333 0.002380952380952381 0  0.2979166666666667 0.002380952380952381 0  0.3025 0.002380952380952381 0  0.3070833333333334 0.002380952380952381 0  0.3116666666666666 0.002380952380952381 0  0.31625 0.002380952380952381 0  0.3208333333333333 0.002380952380952381 0  0.3254166666666667 0.002380952380952381 0  0.33 0.002380952380952381 0  0.3345833333333333 0.002380952380952381 0  0.3391666666666667 0.002380952380952381 0  0.34375 0.002380952380952381 0  0.3483333333333333 0.002380952380952381 0  0.3529166666666667 0.002380952380952381 0  0.3575 0.002380952380952381 0  0.3620833333333333 0.002380952380952381 0  0.3666666666666667 0.002380952380952381 0  0.37125 0.002380952380952381 0  0.3758333333333334 0.002380952380952381 0  0.3804166666666667 0.002380952380952381 0  0.3850000000000001 0.002380952380952381 0  0.3895833333333333 0.002380952380952381 0  0.3941666666666667 0.002380952380952381 0  0.39875 0.002380952380952381 0  0.4033333333333334 0.002380952380952381 0  0.4079166666666666 0.002380952380952381 0  0.4125 0.002380952380952381 0  0.4170833333333334 0.002380952380952381 0  0.4216666666666667 0.002380952380952381 0  0.42625 0.002380952380952381 0  0.4308333333333333 0.002380952380952381 0  0.4354166666666667 0.002380952380952381 0  0.44 0.002380952380952381 0  0.4445833333333333 0.002380952380952381 0  0.4491666666666667 0.002380952380952381 0  0.45375 0.002380952380952381 0  0.4583333333333333 0.002380952380952381 0  0.4629166666666666 0.002380952380952381 0  0.4675 0.002380952380952381 0  0.4720833333333334 0.002380952380952381 0  0.4766666666666667 0.002380952380952381 0  0.4812500000000001 0.002380952380952381 0  0.4858333333333333 0.002380952380952381 0  0.4904166666666667 0.002380952380952381 0  0.495 0.002380952380952381 0  0.4995833333333334 0.002380952380952381 0  0.5041666666666667 0.002380952380952381 0  0.50875 0.002380952380952381 0  0.5133333333333334 0.002380952380952381 0  0.5179166666666667 0.002380952380952381 0  0.5225 0.002380952380952381 0  0.5270833333333333 0.002380952380952381 0  0.5316666666666667 0.002380952380952381 0  0.53625 0.002380952380952381 0  0.5408333333333333 0.002380952380952381 0  0.5454166666666667 0.002380952380952381 0  0.55 0.002380952380952381 0  0.5545833333333333 0.002380952380952381 0  0.5591666666666667 0.002380952380952381 0  0.5637500000000001 0.002380952380952381 0  0.5683333333333334 0.002380952380952381 0  0.5729166666666666 0.002380952380952381 0  0.5775 0.002380952380952381 0  0.5820833333333334 0.002380952380952381 0  0.5866666666666667 0.002380952380952381 0  0.5912499999999999 0.002380952380952381 0  0.5958333333333334 0.002380952380952381 0  0.6004166666666667 0.002380952380952381 0  0.605 0.002380952380952381 0  0.6095833333333334 0.002380952380952381 0  0.6141666666666667 0.002380952380952381 0  0.61875 0.002380952380952381 0  0.6233333333333333 0.002380952380952381 0  0.6279166666666667 0.002380952380952381 0  0.6325000000000001 0.002380952380952381 0  0.6370833333333333 0.002380952380952381 0  0.6416666666666666 0.002380952380952381 0  0.64625 0.002380952380952381 0  0.6508333333333334 0.002380952380952381 0  0.6554166666666666 0.002380952380952381 0  0.6599999999999999 0.002380952380952381 0  0.6645833333333334 0.002380952380952381 0  0.6691666666666667 0.002380952380952381 0  0.67375 0.002380952380952381 0  0.6783333333333333 0.002380952380952381 0  0.6829166666666667 0.002380952380952381 0  0.6875 0.002380952380952381 0  0.6920833333333333 0.002380952380952381 0  0.6966666666666667 0.002380952380952381 0  0.70125 0.002380952380952381 0  0.7058333333333333 0.002380952380952381 0  0.7104166666666667 0.002380952380952381 0  0.7150000000000001 0.002380952380952381 
[...]
<PointData  Scalars="concentration"> 
<DataArray  type="Float64"  Name="concentration"  format="ascii">0.0000000000000000e+00  7.8514313950574978e-14  1.1503734678817357e-13  1.8494505952570094e-13  2.1381926088784533e-13  3.0907091131928297e-13  3.4611625342553919e-13  4.9350052593970431e-13  5.4906171161785556e-13  7.8266340320112734e-13  8.6853118211812566e-13  1.2403540296262436e-12  1.3736470228822084e-12  1.9659793737219673e-12  2.1729237616362293e-12  3.1168214069337296e-12  3.4379686341103925e-12  4.9424085355358452e-12  5.4405306401930117e-12  7.8388520708304130e-12  8.6110958208865325e-12  1.2435116119827472e-11  1.3631762105867927e-11  1.9730114117205567e-11  2.1583531871189388e-11  3.1310655413244593e-11  3.4179980636762556e-11  4.9698019273430064e-11  5.4138062722851139e-11  7.8899224990449791e-11  8.5766715635399901e-11  1.2528415677056512e-10  1.3590149092743507e-10  1.9898159185273311e-10  2.1538914010024831e-10  3.1610184799489837e-10  3.4144662042744391e-10  5.0227675173876213e-10  5.4141101374325361e-10  7.9829977974685675e-10  8.5870294773712186e-10  1.2691159170194340e-09  1.3623143305596649e-09  2.0181567121657251e-09  2.1619104292693051e-09  3.2102090148162911e-09  3.4318808663420389e-09  5.1079151751351927e-09  5.4496633688457744e-09  8.1300603508949342e-09  8.6568463314714347e-09  1.2944703804013574e-08  1.3756651419687019e-08  2.0618073656945406e-08  2.1869563375037945e-08  3.2852769619878966e-08  3.4781975380393803e-08  5.2369111220322113e-08  5.5343761661864989e-08  8.3516124241204932e-08  8.8104531477238916e-08  1.3325127188431964e-07  1.4033281991754105e-07  2.1271292557205900e-07  2.2365037470388472e-07  3.3974674209649499e-07  3.5665571250483632e-07  5.4296915147072939e-07  5.6914097611900873e-07  8.6831125996094097e-07  9.0887892682003853e-07  1.3895717463873444e-06  1.4525629422099885e-06  2.2254609057085749e-06  2.3234706273790897e-06  3.5671759496914214e-06  3.7200362175681943e-06  5.7231011229693792e-06  5.9621649788759372e-06  9.1914264085173981e-06  9.5664824812411961e-06  1.4778416501743984e-05  1.5368921218997914e-05  2.3791577334311783e-05  2.4725031514254444e-05  3.8356189429342387e-05  3.9838447211051286e-05  6.1935976985698704e-05  6.4301702898970480e-05  1.0019338596774508e-04  1.0399098140760071e-04  1.6241847484694630e-04  1.6855492290430093e-04  2.6391717710954753e-04  2.7390910830707411e-04  4.3003340316659968e-04  4.4645109362322441e-04  7.0298584539042676e-04  7.3025835202320661e-04  1.1536244799220275e-03  1.1995465119565834e-03  1.9019470795192091e-03  1.9806146497899080e-03  3.1535992369357527e-03  3.2914318601794685e-03  5.2665173805476057e-03  5.5154799931065122e-03  8.8771012000197318e-03  9.3465268938491379e-03  1.5152011970462030e-02  1.6095648957541578e-02  2.6332347657415243e-02  2.8433135314661490e-02  4.7060147936647936e-02  5.2743132540257087e-02  8.7889248923214230e-02  1.0283186851155099e-01  3.8833841709394679e-01  5.3698004427708457e-01  8.4238088298301628e-01  9.6463291126468909e-01  9.8497489530942794e-01  9.9621798810757889e-01  1.0003184552340025e+00  1.0016755064485992e+00  1.0018579093182665e+00  1.0016098052429772e+00  1.0012546959883102e+00  1.0009220434443440e+00  1.0006528136367570e+00  1.0004505650038935e+00  1.0003053158941635e+00  1.0002040714310916e+00  1.0001349718424009e+00  1.0000885371597006e+00  1.0000576983067619e+00  1.0000374033929278e+00  1.0000241433886725e+00  1.0000155296360222e+00  1.0000099601931680e+00  1.0000063728372304e+00  1.0000040694060539e+00  1.0000025942096125e+00  1.0000016514762948e+00  1.0000010500983545e+00  1.0000006670503985e+00  1.0000004233754207e+00  1.0000002685265608e+00  1.0000001702122012e+00  1.0000001078389489e+00  1.0000000682928998e+00  1.0000000432333176e+00  1.0000000273607814e+00  1.0000000173111252e+00  1.0000000109503011e+00  1.0000000069253914e+00  1.0000000043791790e+00  1.0000000027687113e+00  1.0000000017502937e+00  1.0000000011063197e+00  1.0000000006992125e+00  1.0000000004417906e+00  1.0000000002791281e+00  1.0000000001761644e+00  1.0000000001112535e+00  1.0000000000697518e+00  1.0000000000446316e+00  1.0000000000239750e+00  1.0000000000327569e+00  0.0000000000000000e+00  3.1810826024929653e-14  9.5552536274865359e-14  1.2379828548724451e-13  1.9997139969132015e-13  2.2765952198854562e-13  3.3752184767453410e-13  3.7313572040027032e-13  5.4313459895917814e-13  5.9505538634180805e-13  8.6373763793841255e-13  9.4251015741794760e-13  1.3696838774356275e-12  1.4904490222544272e-12  2.1707624024803198e-12  2.3562681265407472e-12  3.4403531887987739e-12  3.7252031172146461e-12  5.4531786889471142e-12  5.8901362179673545e-12  8.6449759645231754e-12  9.3144536425400590e-12  1.3707132127905105e-11  1.4731512069773015e-11  2.1736925410313239e-11  2.3302147334968216e-11  3.4476146084113565e-11  3.6864178619377020e-11  5.4690189364542490e-11  5.8327736748229421e-11  8.6770456457736799e-11  9.2301789643075863e-11  1.3769183202977746e-10  1.4608731120555804e-10  2.1853490611999601e-10  2.3125204880332795e-10  3.4690666342260734e-10  3.6612813588141287e-10  5.5079098742820819e-10  5.7977447056327723e-10  8.7467526688886189e-10  9.1826477425070802e-10  1.3893014861309263e-09  1.4546695304643644e-09  2.2071909812341753e-09  2.3049070879863844e-09  3.5073698301742468e-09  3.6529238786859572e-09  5.5747617056483520e-09  5.7907095857692042e-09  8.8629731379662859e-09  9.1819130074212754e-09  1.4094402980294083e-08  1.4563021661754616e-08  2.2419933995623649e-08  2.3104359319135096e-08  3.5673787228904600e-08  3.6666390879992135e-08  5.6780452773680650e-08  5.8207966099159358e-08  9.0404796023679146e-08  9.2436930956381916e-08  1.4399126581549549e-07  1.4684760524655691e-07  2.2942614476424834e-07  2.3337619887862520e-07  3.6569821276562156e-07  3.7104397961246300e-07  5.8316071393279978e-07  5.9018055366818020e-07  9.3036397608062536e-07  9.3917695990607708e-07  1.4850190778076957e-06  1.4952926548647054e-06  2.3716076664314684e-06  2.3819647419512656e-06  3.7896977380756726e-06  3.7965569032089260e-06  6.0595291734562890e-06  6.0548876303291160e-06  9.6955002422738648e-06  9.6627575066026968e-06  1.5524808693591129e-05  1.5430971607536725e-05  2.4879311438942618e-05  2.4660519869659360e-05  3.9906365088817326e-05  3.9441070795463971e-05  6.4073478761077869e-05  6.3132724596923375e-05  1.0298952983215828e-04  1.0114454150807397e-04  1.6574460408564718e-04  1.6219426561274878e-04  2.6710236466751869e-04  2.6034901537397938e-04  4.3109903906316037e-04  4.1833392785424771e-04  6.9697248854768117e-04  6.7289762947127750e-04  1.1289665897516784e-03  1.0835027927471709e-03  1.8326025790954591e-03  1.7463444165151699e-03  2.9817514086827525e-03  2.8167234943755671e-03  4.8636198001381940e-03  4.5438333057568718e-03  7.9524963011814026e-03  7.3211807804700732e-03  1.3023820787003006e-02  1.1743771439949466e-02  2.1285642267501723e-02  1.8591879247622022e-02  3.4125961876655030e-02  2.8732838202557134e-02  4.6653251034869565e-02  -1.0436264609023953e-02  -7.3127969268303117e-02  1.0066304488067010e-01  4.6263734289567748e-01  6.5803695124485262e-01  7.8448030117987866e-01  8.6396017196471320e-01  9.1408233978649711e-01  9.4570761189776986e-01  9.6568009684445211e-01  9.7830101172658923e-01  9.8627939389722974e-01  9.9132403956571524e-01  9.9451402621804808e-01  9.9653126618431331e-01  9.9780687402753387e-01  9.9861347057826733e-01  9.9912346934492424e-01  9.9944591233945868e-01  9.9964976080383317e-01  9.9977862537908435e-01  9.9986008322508413e-01  9.9991157141438636e-01  9.9994411458305488e-01  9.9996468256953575e-01  9.9997768143836485e-01  9.9998589635521362e-01  9.9999108777844603e-01  9.9999436840664402e-01  9.9999644148822719e-01  9.9999775147197090e-01  9.9999857923634439e-01  9.9999910228236966e-01  9.9999943277847314e-01  9.9999964160556865e-01  9.9999977355335146e-01  9.9999985692391358e-01  9.9999990960068852e-01  9.9999994288365823e-01  9.9999996391279145e-01  9.9999997719952416e-01  9.9999998559433301e-01  9.9999999089833536e-01  9.9999999424943098e-01  9.9999999636672454e-01  9.9999999770435377e-01  9.9999999854956245e-01  9.9999999908336046e-01  9.9999999942086171e-01  9.9999999963356745e-01  9.9999999976859266e-01  9.9999999985304155e-01  0.0000000000000000e+00  5.5942391980888612e-14  7.6148744835385367e-14  1.3224123579284021e-13  1.4755351643979097e-13  2.2623415462277792e-13  2.4329841605558586e-13  3.6441870802049572e-13  3.8772335096917876e-13  5.7893451943686659e-13  6.1289890000215056e-13  9.1673823882233483e-13  9.6696749890886702e-13  1.4506284615968795e-12  1.5249002832800275e-12  2.2952375569099110e-12  2.4045477579368491e-12  3.6317820946391003e-12  3.7915968266872302e-12  5.7470292428582070e-12  5.9787842464457908e-12  9.0949071888182743e-12  9.4276686685219310e-12  1.4394024178205732e-11  1.4865997340117464e-11  2.2782070843001483e-11  2.3441194949785074e-11  3.6060310498172135e-11  3.6962318822871791e-11  5.7080738656524784e-11  5.8281447341612145e-11  9.0359183047028564e-11  9.1894806976005463e-11  1.4304622018661138e-10  1.4489015326527605e-10  2.2646475763507990e-10  2.2843968837920458e-10  3.5854502345262216e-10  3.6015235665578159e-10  5.6768071698699850e-10  5.6777965896372810e-10  8.9883567795001985e-10  8.9505279628836531e-10  1.4232142476953152e-09  1.4108750786022947e-09  2.2535743475866305e-09  2.2237948231993636e-09  3.5684743815288108e-09  3.5047857415784173e-09  5.6506629739526522e-09  5.5230916334739971e-09  8.9478545001693537e-09  8.7026059252508449e-09  1.4168931248655911e-08  1.3710509804041205e-08  2.2436197470648642e-08  2.1596551174073887e-08  3.5526294209843298e-08  3.4011756264356497e-08  5.6251307434319221e-08  5.3551612463225184e-08  8.9061463682385113e-08  8.4294066097840102e-08  1.4099788891739274e-07  1.3264199348179806e-07  2.2319805883932954e-07  2.0864069186625695e-07  3.5327320525476148e-07  3.2803486556196324e-07  5.5906010489303667e-07  5.1547375361891041e-07  8.8453672140772743e-07  8.0949290116732513e-07  1.3991398542781707e-06  1.2702334961004262e-06  2.2124219689396601e-06  1.9913570606811519e-06  3.4970687299842484e-06  3.1183442103186901e-06  5.5249712869519548e-06  4.8764169855415062e-06  8.7236073775423355e-06  7.6127829096510167e-06  1.3763862351913053e-05  1.1859809696858228e-05  2.1696204510837434e-05  1.8427981744446915e-05  3.4160563394177690e-05  2.8539483942999944e-05  5.3707128928277816e-05  4.4013286055860748e-05  8.4280993445695864e-05  6.7506255254656672e-05  1.3194190552190979e-04  1.0279151364681147e-04  2.0590546617467372e-04  1.5499027333437622e-04  3.1998531445793599e-04  2.3050967514143291e-04  4.9443636264139381e-04  3.3604456248917505e-04  7.5791422322361434e-04  4.7506482565091968e-04  1.1484322916954645e-03  6.3798150317729088e-04  1.7099101670662699e-03  7.7678035347309414e-04  2.4746625540728313e-03  7.4133805230752693e-04  3.4044492623551241e-03  1.1861529469243499e-04  4.2073491925364737e-03  -2.1886692764514701e-03  3.7352337987760650e-03  -9.0941120981989140e-03  -2.8631106393601671e-03  -3.4643590587337410e-02  -6.0914647297691318e-03  1.6321205628334759e-01  4.6730748986170267e-01  6.8124884529878138e-01  8.0057697350020263e-01  8.7542541815435426e-01  9.2193959020704597e-01  9.5097869788842004e-01  9.6916080079873679e-01  9.8057256554746686e-01  9.8774839847707774e-01  9.9226719259338336e-01  9.9511602224592854e-01  9.9691365288849942e-01  9.9804878256353202e-01  9.9876598309698872e-01  9.9921933800201568e-01  9.9950602047139536e-01  9.9968736280252302e-01  9.9980210112486412e-01  9.9987471332859412e-01  9.9992067403997442e-01  9.9994976961343274e-01  9.9996819088105837e-01  9.9997985510194454e-01  9.9998724142551842e-01  9.9999191911374241e-01  9.9999488162195260e-01  9.9999675795115717e-01  9.9999794638834361e-01  9.9999869915132378e-01  9.9999917596936960e-01  9.9999947800453315e-01  9.9999966932923223e-01  9.9999979052622823e-01  9.9999986730104762e-01  9.9999991593625970e-01  9.9999994674594006e-01  9.9999996626356225e-01  9.9999997862787537e-01  9.9999998646062838e-01  9.9999999142269824e-01  9.9999999456615496e-01  9.9999999655757599e-01  9.9999999781909421e-01  9.9999999861833155e-01  9.9999999912452875e-01  9.9999999944535278e-01  9.9999999964829800e-01  9.9999999977729104e-01  9.9999999985843913e-01  9.9999999991034172e-01  0.0000000000000000e+00  2.1312547154988188e-14  6.8484031927940998e-14  7.9386591933596148e-14  1.3736340789553472e-13  1.4340614517058787e-13  2.2873332619409689e-13  2.3287656968886656e-13  3.6580677065542421e-13  3.6883182896985796e-13  5.7921850271570915e-13  5.8041802791253841e-13  9.1481034677233400e-13  9.1175845775125048e-13  1.4438798761724627e-12  1.4313844296027450e-12  2.2784793679119457e-12  2.2464482429405868e-12  3.5951784987995670e-12  3.5247383982684994e-12  5.6723764886021306e-12  5.5290238418434939e-12  8.9490495053754746e-12  8.6707120601534981e-12  1.4117298337520226e-11  1.3593680058534775e-11  2.2268138144014438e-11  2.1305183909941361e-11  3.5121112859333491e-11  3.3380157661746790e-11  5.5385832592232057e-11  5.2279814791512425e-11  8.7331050702606536e-11  8.1848102998970293e-11  1.3768010252072038e-10  1.2808460257337608e-10  2.1701931667841560e-10  2.0034659993111639e-10  3.4201229170891498e-10  3.1321655953833867e-10  5.3887942292738733e-10  4.8939967864129371e-10  8.4886263173557892e-10  7.6421334381779409e-10  1.3368026102240859e-09  1.1925319057794338e-09  2.1045919692626574e-09  1.8595099527528605e-09  3.3122594962966373e-09  2.8971051658325780e-09  5.2109847747480044e-09  4.5094758419189578e-09  8.1947417277315232e-09  7.0119101490351597e-09  1.2880989995039603e-08  1.0890300582913258e-08  2.0236587399867885e-08  1.6891653640560724e-08  3.1773971091531066e-08  2.6161191455474388e-08  4.9856293490333408e-08  4.0448868272917157e-08  7.8171072879346250e-08  6.2418318170341766e-08  1.2246370613630290e-07  9.6105107538366495e-08  1.9167030389455767e-07  1.4758911601487367e-07  2.9966158006779698e-07  2.2596728579920259e-07  4.6791705411813450e-07  3.4473453778021627e-07  7.2960683794854264e-07  5.2369291477716764e-07  1.1357867083878689e-06  7.9148951590472324e-07  1.7647350271451515e-06  1.1887833767315404e-06  2.7359017816439042e-06  1.7717576129776919e-06  4.2305146030611669e-06  2.6150185292933077e-06  6.5215715210519408e-06  3.8114471839382175e-06  1.0016628305030618e-05  5.4634889235738166e-06  1.5317125811953011e-05  7.6541327944111484e-06  2.3297202044810553e-05  1.0373474975925758e-05  3.5201244960781305e-05  1.3352622640110069e-05  5.2749228749578137e-05  1.5710076797553899e-05  7.8214882585217658e-05  1.5226548045866780e-05  1.1439005258301088e-04  6.8951480523148706e-06  1.6424387677167998e-04  -1.9922553441436095e-05  2.2988529132256417e-04  -8.6985195997974003e-05  3.1008510061471386e-04  -2.3758252192401742e-04  3.9509019678149834e-04  -5.5580390416335487e-04  4.5706863500680786e-04  -1.2005947944835154e-03  4.3617634724988134e-04  -2.4594844919347330e-03  2.3537960936729959e-04  -4.8027157963434555e-03  -1.9134595345971558e-04  -8.7491225988199049e-03  -2.1329301484733561e-04  -1.3230633896264140e-02  1.3257420373390835e-02  -3.4313010741772957e-03  -1.3099102472741523e-02  2.6606383648463011e-01  5.5728469039266948e-01  7.2110465934553591e-01  8.2402787559450841e-01  8.8880903423559032e-01  9.2969922949951056e-01  9.5553463865474852e-01  9.7186775297003847e-01  9.8219757226358628e-01  9.8873252642081422e-01  9.9286766651033331e-01  9.9548473737768739e-01  9.9714128051459994e-01  9.9818995271111655e-01  9.9885387417263027e-01  9.9927423841961016e-01  9.9954040936839073e-01  9.9970895453341424e-01  9.9981568505863860e-01  9.9988327381083553e-01  9.9992607649596343e-01  9.9995318317319271e-01  9.9997034994092526e-01  9.9998122186415772e-01  9.9998810725679788e-01  9.9999246794099339e-01  9.9999522968504906e-01  9.9999697878449367e-01  9.9999808654884581e-01  9.9999878813611009e-01  9.9999923247786604e-01  9.9999951389687114e-01  9.9999969213080364e-01  9.9999980501361985e-01  9.9999987650697408e-01  9.9999992178668839e-01  9.9999995046423240e-01  9.9999996862691454e-01  9.9999998013011193e-01  9.9999998741554608e-01  9.9999999202973000e-01  9.9999999495204206e-01  9.9999999680289398e-01  9.9999999797503136e-01  9.9999999871746781e-01  9.9999999918750948e-01  9.9999999948539164e-01  9.9999999967367914e-01  9.9999999979318110e-01  9.9999999986849897e-01  0.0000000000000000e+00  3.5213527751423389e-14  3.9668515268893380e-14  8.0158222370717168e-14  7.7943173149413623e-14  1.3639434022341130e-13  1.2824774930076452e-13  2.1878958796207212e-13  2.0287342187813732e-13  3.4592314624433901e-13  3.1764843262133310e-13  5.4485146925950608e-13  4.9582630374290079e-13  8.5721141881008586e-13  7.7298166443867079e-13  1.3480501026408054e-12  1.2041085408216388e-12  2.1193654407923193e-12  1.8743956921361637e-12  3.3312114783375832e-12  2.9157777392565619e-12  5.2347248826070951e-12  4.5324096467947295e-12  8.2238400742612997e-12  7.0398488029001468e-12  1.2916249726170166e-11  1.0925228909293129e-11  2.0280086731886076e-11  1.6939496774634273e-11  3.1832029301508080e-11  2.6238488725855354e-11  4.9946888999710635e-11  4.0598176208205122e-11  7.8341059591750840e-11  6.2742158343132910e-11  1.2282684939434697e-10  9.6838353979603282e-11  1.9248842170681121e-10  1.4924956732649022e-10  3.0151317516182404e-10  2.2966291593433816e-10  4.7204077796857337e-10  3.5278101702242348e-10  7.3858999049892866e-10  5.4083969144775377e-10  1.1549278400598264e-09  8.2733025154567626e-10  1.8047127610190664e-09  1.2624567242372156e-09  2.8179577563366958e-09  1.9210543306433515e-09  4.3964488712912362e-09  2.9139305587956471e-09  6.8529085581940355e-09  4.4038366172556470e-09  1.0671194892459356e-08  6.6274572304924835e-09  1.6598590450979042e-08  9.9247404868331321e-09  2.5786861198419979e-08  1.4776195587309548e-08  4.0007119427826479e-08  2.1846699974016613e-08  6.1975822818363755e-08  3.2029396054068683e-08  9.5847162043808296e-08  4.6472618499623310e-08  1.4795287745074885e-07  6.6551272257224946e-08  2.2790708127857154e-07  9.3702157792839211e-08  3.5024440989918074e-07  1.2896319893714523e-07  5.3682852142472054e-07  1.7190856235588622e-07  8.2035774719935402e-07  2.1840064478404295e-07  1.2494064412329843e-06  2.5608987157441134e-07  1.8955696187141703e-06  2.5571713558980646e-07  2.8634098348112143e-06  1.5472371598268075e-07  4.3040076574691452e-06  -1.7303995001940737e-07  6.4329406555637644e-06  -9.7241176640289557e-07  9.5534092538709162e-06  -2.7057477876531844e-06  1.4085022013425811e-05  -6.2278784828599872e-06  2.0598838966802055e-05  -1.3091678936836981e-05  2.9861206992308470e-05  -2.6073742091697587e-05  4.2897615471169438e-05  -5.0061997995531234e-05  6.1117222317620033e-05  -9.3517289324398552e-05  8.6626436688877462e-05  -1.7079209604195039e-04  1.2310371990007199e-04  -3.0559014242586950e-04  1.7825529700411219e-04  -5.3555576522231157e-04  2.7053351731577246e-04  -9.1678141215605796e-04  4.4690898683916630e-04  -1.5234896590599521e-03  8.2800505453427308e-04  -2.4300588333963655e-03  1.7155859319206265e-03  -3.6544591407500090e-03  3.8102409280872294e-03  -5.1110372761020862e-03  8.9094946485767379e-03  -1.3850019447033153e-02  -1.8016963843374976e-03  -2.8913933010992422e-02  2.6726253509773540e-01  5.6396120242886016e-01  7.2893586360636475e-01  8.3087078155752025e-01  8.9406155655791164e-01  9.3346271628729671e-01  9.5812652318874958e-01  9.7360950494938447e-01  9.8334946341365348e-01  9.8948608752847256e-01  9.9335689424966056e-01  9.9580060786816493e-01  9.9734439254882312e-01  9.9832015707495825e-01  9.9893714437109715e-01  9.9932739477102750e-01  9.9957429313620938e-01  9.9973052838417020e-01  9.9982940846439705e-01  9.9989199692137432e-01  9.9993161786013973e-01  9.9995670157969574e-01  9.9997258298815805e-01  9.9998263864756476e-01  9.9998900590119244e-01  9.9999303780555149e-01  9.9999559098803914e-01  9.9999720781922252e-01  9.9999823171731206e-01  9.9999888013735283e-01  9.9999929077849059e-01  9.9999955083859515e-01  9.99999715