<?xml version="1.0"?>
<VTKFile type="UnstructuredGrid"  version="0.1"  >
<UnstructuredGrid>
<Piece  NumberOfPoints="21400" NumberOfCells="42336">
<Points>
<DataArray  type="Float64"  NumberOfComponents="3"  format="ascii">0 0 0  0.004583333333333333 0 0  0.009166666666666667 0 0  0.01375 0 0  0.01833333333333333 0 0  0.02291666666666667 0 0  0.0275 0 0  0.03208333333333334 0 0  0.03666666666666667 0 0  0.04125 0 0  0.04583333333333334 0 0  0.05041666666666667 0 0  0.055 0 0  0.05958333333333334 0 0  0.06416666666666668 0 0  0.06875000000000001 0 0  0.07333333333333333 0 0  0.07791666666666666 0 0  0.08249999999999999 0 0  0.08708333333333333 0 0  0.09166666666666667 0 0  0.09625000000000002 0 0  0.1008333333333333 0 0  0.1054166666666667 0 0  0.11 0 0  0.1145833333333333 0 0  0.1191666666666667 0 0  0.12375 0 0  0.1283333333333334 0 0  0.1329166666666667 0 0  0.1375 0 0  0.1420833333333333 0 0  0.1466666666666667 0 0  0.15125 0 0  0.1558333333333333 0 0  0.1604166666666667 0 0  0.165 0 0  0.1695833333333333 0 0  0.1741666666666667 0 0  0.17875 0 0  0.1833333333333333 0 0  0.1879166666666667 0 0  0.1925 0 0  0.1970833333333333 0 0  0.2016666666666667 0 0  0.20625 0 0  0.2108333333333333 0 0  0.2154166666666666 0 0  0.22 0 0  0.2245833333333334 0 0  0.2291666666666667 0 0  0.23375 0 0  0.2383333333333333 0 0  0.2429166666666667 0 0  0.2475 0 0  0.2520833333333333 0 0  0.2566666666666667 0 0  0.26125 0 0  0.2658333333333334 0 0  0.2704166666666666 0 0  0.275 0 0  0.2795833333333334 0 0  0.2841666666666667 0 0  0.28875 0 0  0.2933333333333333 0 0  0.2979166666666667 0 0  0.3025 0 0  0.3070833333333334 0 0  0.3116666666666666 0 0  0.31625 0 0  0.3208333333333333 0 0  0.3254166666666667 0 0  0.33 0 0  0.3345833333333333 0 0  0.3391666666666667 0 0  0.34375 0 0  0.3483333333333333 0 0  0.3529166666666667 0 0  0.3575 0 0  0.3620833333333333 0 0  0.3666666666666667 0 0  0.37125 0 0  0.3758333333333334 0 0  0.3804166666666667 0 0  0.3850000000000001 0 0  0.3895833333333333 0 0  0.3941666666666667 0 0  0.39875 0 0  0.4033333333333334 0 0  0.4079166666666666 0 0  0.4125 0 0  0.4170833333333334 0 0  0.4216666666666667 0 0  0.42625 0 0  0.4308333333333333 0 0  0.4354166666666667 0 0  0.44 0 0  0.4445833333333333 0 0  0.4491666666666667 0 0  0.45375 0 0  0.4583333333333333 0 0  0.4629166666666666 0 0  0.4675 0 0  0.4720833333333334 0 0  0.4766666666666667 0 0  0.4812500000000001 0 0  0.4858333333333333 0 0  0.4904166666666667 0 0  0.495 0 0  0.4995833333333334 0 0  0.5041666666666667 0 0  0.50875 0 0  0.5133333333333334 0 0  0.5179166666666667 0 0  0.5225 0 0  0.5270833333333333 0 0  0.5316666666666667 0 0  0.53625 0 0  0.5408333333333333 0 0  0.5454166666666667 0 0  0.55 0 0  0.5545833333333333 0 0  0.5591666666666667 0 0  0.5637500000000001 0 0  0.5683333333333334 0 0  0.5729166666666666 0 0  0.5775 0 0  0.5820833333333334 0 0  0.5866666666666667 0 0  0.5912499999999999 0 0  0.5958333333333334 0 0  0.6004166666666667 0 0  0.605 0 0  0.6095833333333334 0 0  0.6141666666666667 0 0  0.61875 0 0  0.6233333333333333 0 0  0.6279166666666667 0 0  0.6325000000000001 0 0  0.6370833333333333 0 0  0.6416666666666666 0 0  0.64625 0 0  0.6508333333333334 0 0  0.6554166666666666 0 0  0.6599999999999999 0 0  0.6645833333333334 0 0  0.6691666666666667 0 0  0.67375 0 0  0.6783333333333333 0 0  0.6829166666666667 0 0  0.6875 0 0  0.6920833333333333 0 0  0.6966666666666667 0 0  0.70125 0 0  0.7058333333333333 0 0  0.7104166666666667 0 0  0.7150000000000001 0 0  0.7195833333333334 0 0  0.7241666666666666 0 0  0.72875 0 0  0.7333333333333334 0 0  0.7379166666666667 0 0  0.7425 0 0  0.7470833333333333 0 0  0.7516666666666667 0 0  0.75625 0 0  0.7608333333333334 0 0  0.7654166666666666 0 0  0.7700000000000001 0 0  0 0.002380952380952381 0  0.004583333333333333 0.002380952380952381 0  0.009166666666666667 0.002380952380952381 0  0.01375 0.002380952380952381 0  0.01833333333333333 0.002380952380952381 0  0.02291666666666667 0.002380952380952381 0  0.0275 0.002380952380952381 0  0.03208333333333334 0.002380952380952381 0  0.03666666666666667 0.002380952380952381 0  0.04125 0.002380952380952381 0  0.04583333333333334 0.002380952380952381 0  0.05041666666666667 0.002380952380952381 0  0.055 0.002380952380952381 0  0.05958333333333334 0.002380952380952381 0  0.06416666666666668 0.002380952380952381 0  0.06875000000000001 0.002380952380952381 0  0.07333333333333333 0.002380952380952381 0  0.07791666666666666 0.002380952380952381 0  0.08249999999999999 0.002380952380952381 0  0.08708333333333333 0.002380952380952381 0  0.09166666666666667 0.002380952380952381 0  0.09625000000000002 0.002380952380952381 0  0.1008333333333333 0.002380952380952381 0  0.1054166666666667 0.002380952380952381 0  0.11 0.002380952380952381 0  0.1145833333333333 0.002380952380952381 0  0.1191666666666667 0.002380952380952381 0  0.12375 0.002380952380952381 0  0.1283333333333334 0.002380952380952381 0  0.1329166666666667 0.002380952380952381 0  0.1375 0.002380952380952381 0  0.1420833333333333 0.002380952380952381 0  0.1466666666666667 0.002380952380952381 0  0.15125 0.002380952380952381 0  0.1558333333333333 0.002380952380952381 0  0.1604166666666667 0.002380952380952381 0  0.165 0.002380952380952381 0  0.1695833333333333 0.002380952380952381 0  0.1741666666666667 0.002380952380952381 0  0.17875 0.002380952380952381 0  0.1833333333333333 0.002380952380952381 0  0.1879166666666667 0.002380952380952381 0  0.1925 0.002380952380952381 0  0.1970833333333333 0.002380952380952381 0  0.2016666666666667 0.002380952380952381 0  0.20625 0.002380952380952381 0  0.2108333333333333 0.002380952380952381 0  0.2154166666666666 0.002380952380952381 0  0.22 0.002380952380952381 0  0.2245833333333334 0.002380952380952381 0  0.2291666666666667 0.002380952380952381 0  0.23375 0.002380952380952381 0  0.2383333333333333 0.002380952380952381 0  0.2429166666666667 0.002380952380952381 0  0.2475 0.002380952380952381 0  0.2520833333333333 0.002380952380952381 0  0.2566666666666667 0.002380952380952381 0  0.26125 0.002380952380952381 0  0.2658333333333334 0.002380952380952381 0  0.2704166666666666 0.002380952380952381 0  0.275 0.002380952380952381 0  0.2795833333333334 0.002380952380952381 0  0.2841666666666667 0.002380952380952381 0  0.28875 0.002380952380952381 0  0.2933333333333333 0.002380952380952381 0  0.2979166666666667 0.002380952380952381 0  0.3025 0.002380952380952381 0  0.3070833333333334 0.002380952380952381 0  0.3116666666666666 0.002380952380952381 0  0.31625 0.002380952380952381 0  0.3208333333333333 0.002380952380952381 0  0.3254166666666667 0.002380952380952381 0  0.33 0.002380952380952381 0  0.3345833333333333 0.002380952380952381 0  0.3391666666666667 0.002380952380952381 0  0.34375 0.002380952380952381 0  0.3483333333333333 0.002380952380952381 0  0.3529166666666667 0.002380952380952381 0  0.3575 0.002380952380952381 0  0.3620833333333333 0.002380952380952381 0  0.3666666666666667 0.002380952380952381 0  0.37125 0.002380952380952381 0  0.3758333333333334 0.002380952380952381 0  0.3804166666666667 0.002380952380952381 0  0.3850000000000001 0.002380952380952381 0  0.3895833333333333 0.002380952380952381 0  0.3941666666666667 0.002380952380952381 0  0.39875 0.002380952380952381 0  0.4033333333333334 0.002380952380952381 0  0.4079166666666666 0.002380952380952381 0  0.4125 0.002380952380952381 0  0.4170833333333334 0.002380952380952381 0  0.4216666666666667 0.002380952380952381 0  0.42625 0.002380952380952381 0  0.4308333333333333 0.002380952380952381 0  0.4354166666666667 0.002380952380952381 0  0.44 0.002380952380952381 0  0.4445833333333333 0.002380952380952381 0  0.4491666666666667 0.002380952380952381 0  0.45375 0.002380952380952381 0  0.4583333333333333 0.002380952380952381 0  0.4629166666666666 0.002380952380952381 0  0.4675 0.002380952380952381 0  0.4720833333333334 0.002380952380952381 0  0.4766666666666667 0.002380952380952381 0  0.4812500000000001 0.002380952380952381 0  0.4858333333333333 0.002380952380952381 0  0.4904166666666667 0.002380952380952381 0  0.495 0.002380952380952381 0  0.4995833333333334 0.002380952380952381 0  0.5041666666666667 0.002380952380952381 0  0.50875 0.002380952380952381 0  0.5133333333333334 0.002380952380952381 0  0.5179166666666667 0.002380952380952381 0  0.5225 0.002380952380952381 0  0.5270833333333333 0.002380952380952381 0  0.5316666666666667 0.002380952380952381 0  0.53625 0.002380952380952381 0  0.5408333333333333 0.002380952380952381 0  0.5454166666666667 0.002380952380952381 0  0.55 0.002380952380952381 0  0.5545833333333333 0.002380952380952381 0  0.5591666666666667 0.002380952380952381 0  0.5637500000000001 0.002380952380952381 0  0.5683333333333334 0.002380952380952381 0  0.5729166666666666 0.002380952380952381 0  0.5775 0.002380952380952381 0  0.5820833333333334 0.002380952380952381 0  0.5866666666666667 0.002380952380952381 0  0.5912499999999999 0.002380952380952381 0  0.5958333333333334 0.002380952380952381 0  0.6004166666666667 0.002380952380952381 0  0.605 0.002380952380952381 0  0.6095833333333334 0.002380952380952381 0  0.6141666666666667 0.002380952380952381 0  0.61875 0.002380952380952381 0  0.6233333333333333 0.002380952380952381 0  0.6279166666666667 0.002380952380952381 0  0.6325000000000001 0.002380952380952381 0  0.6370833333333333 0.002380952380952381 0  0.6416666666666666 0.002380952380952381 0  0.64625 0.002380952380952381 0  0.6508333333333334 0.002380952380952381 0  0.6554166666666666 0.002380952380952381 0  0.6599999999999999 0.002380952380952381 0  0.6645833333333334 0.002380952380952381 0  0.6691666666666667 0.002380952380952381 0  0.67375 0.002380952380952381 0  0.6783333333333333 0.002380952380952381 0  0.6829166666666667 0.002380952380952381 0  0.6875 0.002380952380952381 0  0.6920833333333333 0.002380952380952381 0  0.6966666666666667 0.002380952380952381 0  0.70125 0.002380952380952381 0  0.7058333333333333 0.002380952380952381 0  0.7104166666666667 0.002380952380952381 0  0.7150000000000001 0.002380952380952381 
[...]
<PointData  Scalars="concentration"> 
<DataArray  type="Float64"  Name="concentration"  format="ascii">0.0000000000000000e+00  5.1232817722898170e-13  1.3330834679126876e-12  1.5556238492533200e-12  2.5182890954582740e-12  2.6731274642944650e-12  4.1091819676423266e-12  4.2936412521569758e-12  6.5607522388941059e-12  6.8251774053001843e-12  1.0442002518823557e-11  1.0834594050991580e-11  1.6616059428952843e-11  1.7200234644105974e-11  2.6446520734723269e-11  2.7312408264842153e-11  4.2103671922266680e-11  4.3380392207857476e-11  6.7046686919056135e-11  6.8917865258756851e-11  1.0679147998220667e-10  1.0951509345766022e-10  1.7013609557748104e-10  1.7406886561803739e-10  2.7111749988469931e-10  2.7674255045668203e-10  4.3213752768381361e-10  4.4009096720011145e-10  6.8895834383649833e-10  7.0004432899163132e-10  1.0986885194647935e-09  1.1138607007815580e-09  1.7525552222291980e-09  1.7728208710798521e-09  2.7963396179801298e-09  2.8225036111921719e-09  4.4630883326454083e-09  4.4951844922864853e-09  7.1255012696465498e-09  7.1616360437167192e-09  1.1379875779958511e-08  1.1413995963420807e-08  1.8180692363114544e-08  1.8198420045483433e-08  2.9056526264402527e-08  2.9027571093006410e-08  4.6456660448232949e-08  4.6321236055597963e-08  7.4307927096453395e-08  7.3952749867499556e-08  1.1891000217800480e-07  1.1812629931720597e-07  1.9037613213446988e-07  1.8878671369202322e-07  3.0495382327416814e-07  3.0188710060588714e-07  4.8876694922579447e-07  4.8304007986216613e-07  7.8385704436362632e-07  7.7340339461048767e-07  1.2579492973954698e-06  1.2391787898379601e-06  2.0202629714586870e-06  1.9869628423716572e-06  3.2471497255644484e-06  3.1885913540438115e-06  5.2237466954905051e-06  5.1214139026638879e-06  8.4117913147774688e-06  8.2337003656755011e-06  1.3560296692157368e-05  1.3251079511920774e-05  2.1886677660786962e-05  2.1350153942865600e-05  3.5374123987296237e-05  3.4442446771591802e-05  5.7261654840049596e-05  5.5640244011670559e-05  9.2855260200374354e-05  9.0023667183601350e-05  1.5087756354790140e-04  1.4590932382501449e-04  2.4572781328934445e-04  2.3695973422651335e-04  4.0129582201493699e-04  3.8571392268969265e-04  6.5746154053129130e-04  6.2954580973429970e-04  1.0813109026150351e-03  1.0308275746608541e-03  1.7868104000553174e-03  1.6945107922784262e-03  2.9700891231410451e-03  2.7991248096210460e-03  4.9746616386108309e-03  4.6529122476774926e-03  8.4172957769043880e-03  7.7995014043097709e-03  1.4446532237934431e-02  1.3228791042533560e-02  2.5324907155242778e-02  2.2839433407214425e-02  4.5928176996482009e-02  4.0653504576445287e-02  8.9063871994180296e-02  7.2550242206154136e-02  3.9905132935900739e-01  3.3665146690202141e-01  8.4147918086094942e-01  1.1645780918795943e+00  1.0977195854952475e+00  1.0489695920139321e+00  1.0289655098796928e+00  1.0173512437720731e+00  1.0105622842216673e+00  1.0064860525847399e+00  1.0040080574781651e+00  1.0024881896356688e+00  1.0015500699878890e+00  1.0009682730437053e+00  1.0006061404723434e+00  1.0003800918027845e+00  1.0002386697748828e+00  1.0001500325633130e+00  1.0000943978393029e+00  1.0000594366668003e+00  1.0000374459060641e+00  1.0000236028562501e+00  1.0000148832167266e+00  1.0000093879313119e+00  1.0000059232275229e+00  1.0000037380193314e+00  1.0000023594036973e+00  1.0000014894522697e+00  1.0000009403793586e+00  1.0000005937755834e+00  1.0000003749527948e+00  1.0000002367879006e+00  1.0000001495429125e+00  1.0000000944476748e+00  1.0000000596529961e+00  1.0000000376778313e+00  1.0000000237985098e+00  1.0000000150321768e+00  1.0000000094951238e+00  1.0000000059976990e+00  1.0000000037885473e+00  1.0000000023931186e+00  1.0000000015116737e+00  1.0000000009548915e+00  1.0000000006031853e+00  1.0000000003810212e+00  1.0000000002406855e+00  1.0000000001520373e+00  1.0000000000960390e+00  1.0000000000606668e+00  1.0000000000383222e+00  1.0000000000242080e+00  1.0000000000152933e+00  1.0000000000096594e+00  1.0000000000061029e+00  1.0000000000038529e+00  1.0000000000024345e+00  1.0000000000015354e+00  1.0000000000009703e+00  1.0000000000006073e+00  1.0000000000003901e+00  1.0000000000002107e+00  1.0000000000002851e+00  0.0000000000000000e+00  5.7856966094070814e-13  7.8666577743000825e-13  1.5482470004109903e-12  1.6613512166595293e-12  2.7376542197521365e-12  2.8145125345361203e-12  4.4694882766387268e-12  4.5372110003427125e-12  7.1542611167046242e-12  7.2237499630939009e-12  1.1395913343761819e-11  1.1466063429989597e-11  1.8132986959711595e-11  1.8188482656979261e-11  2.8849921179656096e-11  2.8851914142629909e-11  4.5906693717544385e-11  4.5773397335160721e-11  7.3060977450007249e-11  7.2631790688128642e-11  1.1629922383174625e-10  1.1527072392748259e-10  1.8516146021441245e-10  1.8297499700214222e-10  2.9485435511949646e-10  2.9050059739538973e-10  4.6962277184363784e-10  4.6130439322911259e-10  7.4813095388322821e-10  7.3268406874830981e-10  1.1920537655856281e-09  1.1639607062166393e-09  1.8997971783723189e-09  1.8495093947810813e-09  3.0284175727696376e-09  2.9395173149374291e-09  4.8286514650289754e-09  4.6730637055281923e-09  7.7009183333380565e-09  7.4308556376167340e-09  1.2284889655997338e-08  1.1819331774920878e-08  1.9602804571088844e-08  1.8804847003569780e-08  3.1288890131003652e-08  2.9927850407370782e-08  4.9956803208789971e-08  4.7644895274416153e-08  7.9788451097551773e-08  7.5875027943778842e-08  1.2747812996305882e-07  1.2087310192301381e-07  2.0374737810681490e-07  1.9262630961843665e-07  3.2577726219469059e-07  3.0708851575483303e-07  5.2111677541064607e-07  4.8975682141183803e-07  8.3396860029279663e-07  7.8139962063235143e-07  1.3353079849351071e-06  1.2472351100384538e-06  2.1391894936318575e-06  1.9916462133905080e-06  3.4290567026401424e-06  3.1817831062098407e-06  5.5002469616128739e-06  5.0854389935994028e-06  8.8287618424758940e-06  8.1318563011647723e-06  1.4182719307676549e-05  1.3009379858985662e-05  2.2803316927712967e-05  2.0822323222682053e-05  3.6699284713766867e-05  3.3342970538396991e-05  5.9127163606498410e-05  5.3416331810425881e-05  9.5376860142476805e-05  8.5609839517143018e-05  1.5406064784596857e-04  1.3725483846668981e-04  2.4923620586288762e-04  2.2011197961296794e-04  4.0391888402699008e-04  3.5302224108852684e-04  6.5592324008959793e-04  5.6609240716875382e-04  1.0676418406702489e-03  9.0720303495907121e-04  1.7425473661174006e-03  1.4518279256632255e-03  2.8533241500080836e-03  2.3169061615691605e-03  4.6904474552076489e-03  3.6772195002853407e-03  7.7474601732651941e-03  5.7722453714717167e-03  1.2873609444256520e-02  8.8471705629175335e-03  2.1550069450342858e-02  1.2774460396873353e-02  3.6323513739612193e-02  1.5167853584954412e-02  6.0168846589905942e-02  -5.1280773481175879e-02  3.4403169718464077e-02  -4.0556994495811925e-02  1.1608252418040252e-01  5.1004621599870614e-01  6.9297015475303236e-01  8.0773360274600392e-01  8.7915218649199023e-01  9.2393113999145293e-01  9.5207046168589726e-01  9.6978074263311709e-01  9.8093811038916057e-01  9.8797194256761189e-01  9.9240836249334796e-01  9.9520752696023229e-01  9.9697413834557236e-01  9.9808931356502362e-01  9.9879338156856956e-01  9.9923795192405918e-01  9.9951869519305125e-01  9.9969599666473152e-01  9.9980797720873271e-01  9.9987870573657256e-01  9.9992338069558906e-01  9.9995160009426642e-01  9.9996942563128188e-01  9.9998068584218469e-01  9.9998779892143230e-01  9.9999229231556641e-01  9.9999513086147174e-01  9.9999692402909568e-01  9.9999805681701759e-01  9.9999877243035518e-01  9.9999922450463219e-01  9.9999951009415833e-01  9.9999969051034399e-01  9.9999980448522829e-01  9.9999987648697186e-01  9.9999992197287746e-01  9.9999995070783165e-01  9.9999996886064135e-01  9.9999998032835113e-01  9.9999998757286246e-01  9.9999999214943913e-01  9.9999999504059744e-01  9.9999999686702379e-01  9.9999999802082540e-01  9.9999999874971202e-01  9.9999999921016847e-01  9.9999999950104856e-01  9.9999999968480369e-01  9.9999999980088594e-01  9.9999999987421573e-01  9.9999999992054134e-01  9.9999999994980338e-01  9.9999999996829170e-01  9.9999999997996736e-01  9.9999999998734612e-01  9.9999999999200395e-01  9.9999999999495015e-01  9.9999999999680456e-01  9.9999999999798217e-01  9.9999999999872058e-01  0.0000000000000000e+00  2.6759850667038313e-13  8.7614189285309744e-13  9.2619236932130763e-13  1.7089094014248023e-12  1.6619437828347311e-12  2.8362478081688634e-12  2.7036404236032399e-12  4.5497746740417700e-12  4.3020810744409947e-12  7.2403279528210681e-12  6.8089267050547023e-12  1.1500458483636870e-11  1.0762306381488157e-11  1.8260268387032099e-11  1.7005538713996427e-11  2.8992706567245599e-11  2.6868171088072738e-11  4.6035630381484216e-11  4.2449384680448045e-11  7.3101863527631288e-11  6.7064561126340648e-11  1.1608890030406400e-10  1.0595002908670298e-10  1.8436506209426551e-10  1.6737556599066122e-10  2.9281279149910544e-10  2.6440048508865812e-10  4.6507494833575485e-10  4.1764519512691479e-10  7.3871244355979900e-10  6.5966454296956872e-10  1.1733985287607988e-09  1.0418469684488221e-09  1.8639374274773465e-09  1.6452950849647392e-09  2.9609470402933867e-09  2.5979794472811471e-09  4.7037162153816576e-09  4.1017713808933844e-09  7.4724000090206783e-09  6.4750239915520444e-09  1.1870928056571078e-08  1.0219606038365393e-08  1.8858685984141319e-08  1.6126360036313458e-08  2.9959637014248079e-08  2.5440876178843234e-08  4.7594376500953486e-08  4.0123828121264447e-08  7.5607290778834079e-08  6.3259337299759139e-08  1.2010327272882165e-07  9.9694637918196725e-08  1.9077541459370027e-07  1.5704034562018086e-07  3.0301109052635892e-07  2.4723135457297143e-07  4.8123144515881008e-07  3.8895632244926771e-07  7.6418403425161339e-07  6.1142699974050075e-07  1.2133259053949712e-06  9.6020284202697172e-07  1.9260917656147712e-06  1.5061456282441524e-06  3.0568743465063747e-06  2.3590953401078396e-06  4.8501606371343614e-06  3.6885755018504216e-06  7.6927882027620955e-06  5.7547752667560779e-06  1.2196193532924517e-05  8.9541579291638339e-06  1.9325534726950533e-05  1.3885029031939659e-05  3.0601710386709602e-05  2.1438425673739337e-05  4.8415960965870493e-05  3.2916621323191499e-05  7.6516635306708456e-05  5.0170237109224740e-05  1.2075542281112692e-04  7.5713423356096136e-05  1.9021589408281295e-04  1.1269713299912220e-04  2.9888477760514111e-04  1.6442892654310585e-04  4.6804319073685656e-04  2.3267277689494788e-04  7.2948152169725260e-04  3.1287843976344213e-04  1.1292833978754743e-03  3.8186000353537168e-04  1.7307510744376886e-03  3.6684553000251505e-04  2.6116035329020143e-03  6.7404034420964241e-05  3.8407657113070661e-03  -1.0477541886054511e-03  5.3914248985513129e-03  -4.4041186784912886e-03  6.8497097294115648e-03  -1.4072048123732646e-02  6.2523627493721217e-03  -4.9002982788588084e-02  2.3216986813648924e-02  -3.2760864074950942e-02  1.7562188520539662e-01  5.1699529490312190e-01  7.0692757437254083e-01  8.1693579258446014e-01  8.8478203903949282e-01  9.2728869443605155e-01  9.5404947283708053e-01  9.7093758701673283e-01  9.8160932738728568e-01  9.8835835058517962e-01  9.9262882307122036e-01  9.9533195570043909e-01  9.9704342481061847e-01  9.9812722848102531e-01  9.9881365055101967e-01  9.9924843735512248e-01  9.9952385737086769e-01  9.9969833550210774e-01  9.9980887236697713e-01  9.9987890324876294e-01  9.9992327280018412e-01  9.9995138474542211e-01  9.9996919643672133e-01  9.9998048207772683e-01  9.9998763284835790e-01  9.9999216374335931e-01  9.9999503464866490e-01  9.9999685374961855e-01  9.9999800639912084e-01  9.9999873676391915e-01  9.9999919955411209e-01  9.9999949279864375e-01  9.9999967861199801e-01  9.9999979635224956e-01  9.9999987095826925e-01  9.9999991823239720e-01  9.9999994818770799e-01  9.9999996716895223e-01  9.9999997919646999e-01  9.9999998681774804e-01  9.9999999164699938e-01  9.9999999470707734e-01  9.9999999664610995e-01  9.9999999787478744e-01  9.9999999865334621e-01  9.9999999914668425e-01  9.9999999945929052e-01  9.9999999965737585e-01  9.9999999978289433e-01  9.9999999986242882e-01  9.9999999991282762e-01  9.9999999994476163e-01  9.9999999996499889e-01  9.9999999997781941e-01  9.9999999998594580e-01  9.9999999999109246e-01  9.9999999999435607e-01  9.9999999999641964e-01  9.9999999999773304e-01  9.9999999999855960e-01  9.9999999999908495e-01  0.0000000000000000e+00  4.0862549532342169e-13  3.8993168748221572e-13  9.3405206807526440e-13  7.9631486486157899e-13  1.5975120820926587e-12  1.3257686752959210e-12  2.5768243836482375e-12  2.1105387096115306e-12  4.0969073609714634e-12  3.3209664961885781e-12  6.4891842204654444e-12  5.2077752710155727e-12  1.0267476963572243e-11  8.1560038628964931e-12  1.6239691524296327e-11  1.2763671765952851e-11  2.5680686808133736e-11  1.9961812206574261e-11  4.0603685916244663e-11  3.1199839341904305e-11  6.4187925678740826e-11  4.8732443630575224e-11  1.0145291795295038e-10  7.6063362167831026e-11  1.6032136977126543e-10  1.1863078543980760e-10  2.5329412336781614e-10  1.8486396456178120e-10  4.0008818278778692e-10  2.8780843666425159e-10  6.3178920756453517e-10  4.4761947016779640e-10  9.9738369322812468e-10  6.9537621317947590e-10  1.5740271509603566e-09  1.0788959519484730e-09  2.4831719863749995e-09  1.6715613957408224e-09  3.9158760174922183e-09  2.5856579097922754e-09  6.1724770892213664e-09  3.9924084727245893e-09  9.7247169589858427e-09  6.1518582115750805e-09  1.5312890390650706e-08  9.4570629565918760e-09  2.4097542023573372e-08  1.4498711159748222e-08  3.7895939835298028e-08  2.2158287151558958e-08  5.9549992293664058e-08  3.3739842331884290e-08  9.3497402206861112e-08  5.1151486249371008e-08  1.4665604843328036e-07  7.7145750916674184e-08  2.2978927809681345e-07  1.1561850177779960e-07  3.5960622146773041e-07  1.7193975124664089e-07  5.6197941271729994e-07  2.5322792857665685e-07  8.7684960068931081e-07  3.6834529908752781e-07  1.3656575142084628e-06  5.2711558286676266e-07  2.1225215053956923e-06  7.3771000730646566e-07  3.2908948362850723e-06  1.0000576817333381e-06  5.0880996391443654e-06  1.2910234694275176e-06  7.8409149526744692e-06  1.5330433534137216e-06  1.2036153711950421e-05  1.5301851513298437e-06  1.8390520437299425e-05  8.4095887201058036e-07  2.7943139350329883e-05  -1.4704859760705209e-06  4.2170218645504721e-05  -7.3154017646786448e-06  6.3111052441863433e-05  -2.0502926904884584e-05  9.3472386997429656e-05  -4.8499064272370450e-05  1.3663670910531178e-04  -1.0576712913463544e-04  1.9643666002867397e-04  -2.2009074723615282e-04  2.7650659272849366e-04  -4.4449639647797405e-04  3.7918199840638515e-04  -8.7957824621850945e-04  5.0514527406371175e-04  -1.7146426236613272e-03  6.6077149146448217e-04  -3.3005197108445599e-03  9.0466025165583837e-04  -6.2634171614763638e-03  1.5724265460641217e-03  -1.1593526280907495e-02  4.3881125456007360e-03  -2.0129172999416557e-02  2.5632146861250631e-02  -2.1196683537136156e-02  1.3928717394734089e-02  2.2247576395813409e-01  4.8360178900400747e-01  6.6560439138553307e-01  7.8799344178103325e-01  8.6595320864234560e-01  9.1525276838262648e-01  9.4640882090353684e-01  9.6610186328353920e-01  9.7855352754744984e-01  9.8642891607129846e-01  9.9141113930875757e-01  9.9456366832291743e-01  9.9655875562314256e-01  9.9782150629755673e-01  9.9862081637813671e-01  9.9912681161924211e-01  9.9944714659847611e-01  9.9964995401340229e-01  9.9977835863638154e-01  9.9985965882146277e-01  9.9991113588800484e-01  9.9994373046023810e-01  9.9996436925295851e-01  9.9997743786294391e-01  9.9998571308141437e-01  9.9999095310897512e-01  9.9999427122025752e-01  9.9999637234082017e-01  9.9999770283549017e-01  9.9999854534929788e-01  9.9999907885896389e-01  9.9999941669708559e-01  9.9999963062914721e-01  9.9999976609934682e-01  9.9999985188450935e-01  9.9999990620716128e-01  9.9999994060649444e-01  9.9999996238957312e-01  9.9999997618352221e-01  9.9999998491842357e-01  9.9999999044972665e-01  9.9999999395237582e-01  9.9999999617039881e-01  9.9999999757494218e-01  9.9999999846435650e-01  9.9999999902756997e-01  9.9999999938421946e-01  9.9999999961006447e-01  9.9999999975307785e-01  9.9999999984363974e-01  9.9999999990098631e-01  9.9999999993730215e-01  9.9999999996029687e-01  9.9999999997485978e-01  9.9999999998407840e-01  9.9999999998991840e-01  9.9999999999361389e-01  9.9999999999595757e-01  9.9999999999743638e-01  9.9999999999837552e-01  9.9999999999896871e-01  0.0000000000000000e+00  -1.4360702820259760e-14  3.7431623295365497e-13  1.9816376740212243e-13  7.3653558481889275e-13  3.9563747886805086e-13  1.2205436674149564e-12  6.4298620066485651e-13  1.9460432824765971e-12  9.9592758554590818e-13  3.0714322412249369e-12  1.5194617968441045e-12  4.8327850694726851e-12  2.3021506546708379e-12  7.5949682628699853e-12  3.4705139913225775e-12  1.1927232421612925e-11  5.2064296979360183e-12  1.8719406146883719e-11  7.7692654198606197e-12  2.9362290929401744e-11  1.1523425236649650e-11  4.6028223059218775e-11  1.6970201466242078e-11  7.2107195274565091e-11  2.4779052924451737e-11  1.1288396407638115e-10  3.5805624042223555e-11  1.7658770714512758e-10  5.1068281205237069e-11  2.7601639189549362e-10  7.1625009193209820e-11  4.3104563329178262e-10  9.8236220226968102e-11  6.7249520430551947e-10  1.3059506409124395e-10  1.0480732672363267e-09  1.6571744400951751e-10  1.6314895072176353e-09  1.9474266282337337e-10  2.5363826352034481e-09  1.9678590064805453e-10  3.9375293935042209e-09  1.2740199802361647e-10  6.1030092460575701e-09  -1.0268812977461185e-10  9.4427526068203898e-09  -6.6630713375008264e-10  1.4581413396415942e-08  -1.8895238282563486e-09  2.2467044800235319e-08  -4.3761161866552222e-09  3.4531924318012654e-08  -9.2283092254532186e-09  5.2928359767743749e-08  -1.8436076346118654e-08  8.0870557025020537e-08  -3.5560549888034313e-08  1.2312336954213258e-07  -6.6929094793903520e-08  1.8668874960613508e-07  -1.2371831484241309e-07  2.8174780462513575e-07  -2.2557467210843950e-07  4.2291366832002444e-07  -4.0689277077483456e-07  6.3082451673162318e-07  -7.2767946983446043e-07  9.3403264834458913e-07  -1.2923182422959599e-06  1.3709834489654939e-06  -2.2819218212515099e-06  1.9915636265603361e-06  -4.0100157702147406e-06  2.8571465841525571e-06  -7.0181993942759203e-06  4.0371981242857216e-06  -1.2240132756058364e-05  5.5993780791149779e-06  -2.1281907175201450e-05  7.5892231931183532e-06  -3.6899735487732038e-05  9.9969741287353181e-06  -6.3809966826070970e-05  1.2719205988573414e-05  -1.1005336325443373e-04  1.5559312274485788e-05  -1.8927021993561736e-04  1.8421154235582685e-05  -3.2443782334778612e-04  2.2159783702823119e-05  -5.5386633478728402e-04  3.1390292097337545e-05  -9.4044667786207935e-04  6.2778149342135949e-05  -1.5849470216265267e-03  1.6818225573759504e-04  -2.6426290289684284e-03  4.9728770272292945e-04  -4.3379903682056525e-03  1.4632926795711656e-03  -6.9687119307756569e-03  4.1673521042918287e-03  -1.1002998196514542e-02  1.1702405058456929e-02  -2.3535385858077771e-02  2.7603213932559031e-03  -1.7357602925358793e-02  1.3628266284898924e-01  4.7867541827686616e-01  6.7235571818345508e-01  7.9371379864203673e-01  8.6993102696562419e-01  9.1788957480194777e-01  9.4812074383230616e-01  9.6720208423506338e-01  9.7925656268245376e-01  9.8687659013298490e-01  9.9169557305718004e-01  9.9474411912604299e-01  9.9667312142759934e-01  9.9789393699599760e-01  9.9866666476321075e-01  9.9915582234403266e-01  9.9946549789516126e-01  9.9966155987093619e-01  9.9978569719325472e-01  9.9986429843871949e-01  9.9991406882626610e-01  9.9994558433924885e-01  9.9996554097325629e-01  9.9997817838078662e-01  9.9998618105344350e-01  9.9999124882851365e-01  9.9999445808104936e-01  9.9999649040990835e-01  9.9999777743491935e-01  9.9999859248144030e-01  9.9999910863604580e-01  9.9999943550891390e-01  9.9999964251319406e-01  9.9999977360662529e-01  9.9999985662677426e-01  9.9999990920269621e-01  9.9999994249861368e-01  9.9999996358468457e-01  9.9999997693836029e-01  9.9999998539516743e-01  9.9999999075081902e-01  9.9999999414252994e-01  9.9999999629048553e