<?xml version="1.0"?>
<VTKFile type="UnstructuredGrid"  version="0.1"  >
<UnstructuredGrid>
<Piece  NumberOfPoints="21400" NumberOfCells="42336">
<Points>
<DataArray  type="Float64"  NumberOfComponents="3"  format="ascii">0 0 0  0.004583333333333333 0 0  0.009166666666666667 0 0  0.01375 0 0  0.01833333333333333 0 0  0.02291666666666667 0 0  0.0275 0 0  0.03208333333333334 0 0  0.03666666666666667 0 0  0.04125 0 0  0.04583333333333334 0 0  0.05041666666666667 0 0  0.055 0 0  0.05958333333333334 0 0  0.06416666666666668 0 0  0.06875000000000001 0 0  0.07333333333333333 0 0  0.07791666666666666 0 0  0.08249999999999999 0 0  0.08708333333333333 0 0  0.09166666666666667 0 0  0.09625000000000002 0 0  0.1008333333333333 0 0  0.1054166666666667 0 0  0.11 0 0  0.1145833333333333 0 0  0.1191666666666667 0 0  0.12375 0 0  0.1283333333333334 0 0  0.1329166666666667 0 0  0.1375 0 0  0.1420833333333333 0 0  0.1466666666666667 0 0  0.15125 0 0  0.1558333333333333 0 0  0.1604166666666667 0 0  0.165 0 0  0.1695833333333333 0 0  0.1741666666666667 0 0  0.17875 0 0  0.1833333333333333 0 0  0.1879166666666667 0 0  0.1925 0 0  0.1970833333333333 0 0  0.2016666666666667 0 0  0.20625 0 0  0.2108333333333333 0 0  0.2154166666666666 0 0  0.22 0 0  0.2245833333333334 0 0  0.2291666666666667 0 0  0.23375 0 0  0.2383333333333333 0 0  0.2429166666666667 0 0  0.2475 0 0  0.2520833333333333 0 0  0.2566666666666667 0 0  0.26125 0 0  0.2658333333333334 0 0  0.2704166666666666 0 0  0.275 0 0  0.2795833333333334 0 0  0.2841666666666667 0 0  0.28875 0 0  0.2933333333333333 0 0  0.2979166666666667 0 0  0.3025 0 0  0.3070833333333334 0 0  0.3116666666666666 0 0  0.31625 0 0  0.3208333333333333 0 0  0.3254166666666667 0 0  0.33 0 0  0.3345833333333333 0 0  0.3391666666666667 0 0  0.34375 0 0  0.3483333333333333 0 0  0.3529166666666667 0 0  0.3575 0 0  0.3620833333333333 0 0  0.3666666666666667 0 0  0.37125 0 0  0.3758333333333334 0 0  0.3804166666666667 0 0  0.3850000000000001 0 0  0.3895833333333333 0 0  0.3941666666666667 0 0  0.39875 0 0  0.4033333333333334 0 0  0.4079166666666666 0 0  0.4125 0 0  0.4170833333333334 0 0  0.4216666666666667 0 0  0.42625 0 0  0.4308333333333333 0 0  0.4354166666666667 0 0  0.44 0 0  0.4445833333333333 0 0  0.4491666666666667 0 0  0.45375 0 0  0.4583333333333333 0 0  0.4629166666666666 0 0  0.4675 0 0  0.4720833333333334 0 0  0.4766666666666667 0 0  0.4812500000000001 0 0  0.4858333333333333 0 0  0.4904166666666667 0 0  0.495 0 0  0.4995833333333334 0 0  0.5041666666666667 0 0  0.50875 0 0  0.5133333333333334 0 0  0.5179166666666667 0 0  0.5225 0 0  0.5270833333333333 0 0  0.5316666666666667 0 0  0.53625 0 0  0.5408333333333333 0 0  0.5454166666666667 0 0  0.55 0 0  0.5545833333333333 0 0  0.5591666666666667 0 0  0.5637500000000001 0 0  0.5683333333333334 0 0  0.5729166666666666 0 0  0.5775 0 0  0.5820833333333334 0 0  0.5866666666666667 0 0  0.5912499999999999 0 0  0.5958333333333334 0 0  0.6004166666666667 0 0  0.605 0 0  0.6095833333333334 0 0  0.6141666666666667 0 0  0.61875 0 0  0.6233333333333333 0 0  0.6279166666666667 0 0  0.6325000000000001 0 0  0.6370833333333333 0 0  0.6416666666666666 0 0  0.64625 0 0  0.6508333333333334 0 0  0.6554166666666666 0 0  0.6599999999999999 0 0  0.6645833333333334 0 0  0.6691666666666667 0 0  0.67375 0 0  0.6783333333333333 0 0  0.6829166666666667 0 0  0.6875 0 0  0.6920833333333333 0 0  0.6966666666666667 0 0  0.70125 0 0  0.7058333333333333 0 0  0.7104166666666667 0 0  0.7150000000000001 0 0  0.7195833333333334 0 0  0.7241666666666666 0 0  0.72875 0 0  0.7333333333333334 0 0  0.7379166666666667 0 0  0.7425 0 0  0.7470833333333333 0 0  0.7516666666666667 0 0  0.75625 0 0  0.7608333333333334 0 0  0.7654166666666666 0 0  0.7700000000000001 0 0  0 0.002380952380952381 0  0.004583333333333333 0.002380952380952381 0  0.009166666666666667 0.002380952380952381 0  0.01375 0.002380952380952381 0  0.01833333333333333 0.002380952380952381 0  0.02291666666666667 0.002380952380952381 0  0.0275 0.002380952380952381 0  0.03208333333333334 0.002380952380952381 0  0.03666666666666667 0.002380952380952381 0  0.04125 0.002380952380952381 0  0.04583333333333334 0.002380952380952381 0  0.05041666666666667 0.002380952380952381 0  0.055 0.002380952380952381 0  0.05958333333333334 0.002380952380952381 0  0.06416666666666668 0.002380952380952381 0  0.06875000000000001 0.002380952380952381 0  0.07333333333333333 0.002380952380952381 0  0.07791666666666666 0.002380952380952381 0  0.08249999999999999 0.002380952380952381 0  0.08708333333333333 0.002380952380952381 0  0.09166666666666667 0.002380952380952381 0  0.09625000000000002 0.002380952380952381 0  0.1008333333333333 0.002380952380952381 0  0.1054166666666667 0.002380952380952381 0  0.11 0.002380952380952381 0  0.1145833333333333 0.002380952380952381 0  0.1191666666666667 0.002380952380952381 0  0.12375 0.002380952380952381 0  0.1283333333333334 0.002380952380952381 0  0.1329166666666667 0.002380952380952381 0  0.1375 0.002380952380952381 0  0.1420833333333333 0.002380952380952381 0  0.1466666666666667 0.002380952380952381 0  0.15125 0.002380952380952381 0  0.1558333333333333 0.002380952380952381 0  0.1604166666666667 0.002380952380952381 0  0.165 0.002380952380952381 0  0.1695833333333333 0.002380952380952381 0  0.1741666666666667 0.002380952380952381 0  0.17875 0.002380952380952381 0  0.1833333333333333 0.002380952380952381 0  0.1879166666666667 0.002380952380952381 0  0.1925 0.002380952380952381 0  0.1970833333333333 0.002380952380952381 0  0.2016666666666667 0.002380952380952381 0  0.20625 0.002380952380952381 0  0.2108333333333333 0.002380952380952381 0  0.2154166666666666 0.002380952380952381 0  0.22 0.002380952380952381 0  0.2245833333333334 0.002380952380952381 0  0.2291666666666667 0.002380952380952381 0  0.23375 0.002380952380952381 0  0.2383333333333333 0.002380952380952381 0  0.2429166666666667 0.002380952380952381 0  0.2475 0.002380952380952381 0  0.2520833333333333 0.002380952380952381 0  0.2566666666666667 0.002380952380952381 0  0.26125 0.002380952380952381 0  0.2658333333333334 0.002380952380952381 0  0.2704166666666666 0.002380952380952381 0  0.275 0.002380952380952381 0  0.2795833333333334 0.002380952380952381 0  0.2841666666666667 0.002380952380952381 0  0.28875 0.002380952380952381 0  0.2933333333333333 0.002380952380952381 0  0.2979166666666667 0.002380952380952381 0  0.3025 0.002380952380952381 0  0.3070833333333334 0.002380952380952381 0  0.3116666666666666 0.002380952380952381 0  0.31625 0.002380952380952381 0  0.3208333333333333 0.002380952380952381 0  0.3254166666666667 0.002380952380952381 0  0.33 0.002380952380952381 0  0.3345833333333333 0.002380952380952381 0  0.3391666666666667 0.002380952380952381 0  0.34375 0.002380952380952381 0  0.3483333333333333 0.002380952380952381 0  0.3529166666666667 0.002380952380952381 0  0.3575 0.002380952380952381 0  0.3620833333333333 0.002380952380952381 0  0.3666666666666667 0.002380952380952381 0  0.37125 0.002380952380952381 0  0.3758333333333334 0.002380952380952381 0  0.3804166666666667 0.002380952380952381 0  0.3850000000000001 0.002380952380952381 0  0.3895833333333333 0.002380952380952381 0  0.3941666666666667 0.002380952380952381 0  0.39875 0.002380952380952381 0  0.4033333333333334 0.002380952380952381 0  0.4079166666666666 0.002380952380952381 0  0.4125 0.002380952380952381 0  0.4170833333333334 0.002380952380952381 0  0.4216666666666667 0.002380952380952381 0  0.42625 0.002380952380952381 0  0.4308333333333333 0.002380952380952381 0  0.4354166666666667 0.002380952380952381 0  0.44 0.002380952380952381 0  0.4445833333333333 0.002380952380952381 0  0.4491666666666667 0.002380952380952381 0  0.45375 0.002380952380952381 0  0.4583333333333333 0.002380952380952381 0  0.4629166666666666 0.002380952380952381 0  0.4675 0.002380952380952381 0  0.4720833333333334 0.002380952380952381 0  0.4766666666666667 0.002380952380952381 0  0.4812500000000001 0.002380952380952381 0  0.4858333333333333 0.002380952380952381 0  0.4904166666666667 0.002380952380952381 0  0.495 0.002380952380952381 0  0.4995833333333334 0.002380952380952381 0  0.5041666666666667 0.002380952380952381 0  0.50875 0.002380952380952381 0  0.5133333333333334 0.002380952380952381 0  0.5179166666666667 0.002380952380952381 0  0.5225 0.002380952380952381 0  0.5270833333333333 0.002380952380952381 0  0.5316666666666667 0.002380952380952381 0  0.53625 0.002380952380952381 0  0.5408333333333333 0.002380952380952381 0  0.5454166666666667 0.002380952380952381 0  0.55 0.002380952380952381 0  0.5545833333333333 0.002380952380952381 0  0.5591666666666667 0.002380952380952381 0  0.5637500000000001 0.002380952380952381 0  0.5683333333333334 0.002380952380952381 0  0.5729166666666666 0.002380952380952381 0  0.5775 0.002380952380952381 0  0.5820833333333334 0.002380952380952381 0  0.5866666666666667 0.002380952380952381 0  0.5912499999999999 0.002380952380952381 0  0.5958333333333334 0.002380952380952381 0  0.6004166666666667 0.002380952380952381 0  0.605 0.002380952380952381 0  0.6095833333333334 0.002380952380952381 0  0.6141666666666667 0.002380952380952381 0  0.61875 0.002380952380952381 0  0.6233333333333333 0.002380952380952381 0  0.6279166666666667 0.002380952380952381 0  0.6325000000000001 0.002380952380952381 0  0.6370833333333333 0.002380952380952381 0  0.6416666666666666 0.002380952380952381 0  0.64625 0.002380952380952381 0  0.6508333333333334 0.002380952380952381 0  0.6554166666666666 0.002380952380952381 0  0.6599999999999999 0.002380952380952381 0  0.6645833333333334 0.002380952380952381 0  0.6691666666666667 0.002380952380952381 0  0.67375 0.002380952380952381 0  0.6783333333333333 0.002380952380952381 0  0.6829166666666667 0.002380952380952381 0  0.6875 0.002380952380952381 0  0.6920833333333333 0.002380952380952381 0  0.6966666666666667 0.002380952380952381 0  0.70125 0.002380952380952381 0  0.7058333333333333 0.002380952380952381 0  0.7104166666666667 0.002380952380952381 0  0.7150000000000001 0.002380952380952381 
[...]
<PointData  Scalars="concentration"> 
<DataArray  type="Float64"  Name="concentration"  format="ascii">0.0000000000000000e+00  1.7245951939104141e-12  2.2577391442659262e-12  3.9056029161908592e-12  4.1934169586538799e-12  6.5176683043244375e-12  6.8069856200057752e-12  1.0440129418002454e-11  1.0836854045269861e-11  1.6624245257543024e-11  1.7207321758472667e-11  2.6457172725290635e-11  2.7320687999614287e-11  4.2115198342066984e-11  4.3389191736813958e-11  6.7058911872998868e-11  6.8927170457428497e-11  1.0680451166997988e-10  1.0952500337450976e-10  1.7015007580873353e-10  1.7407948238477237e-10  2.7113256268912152e-10  2.7675396676244187e-10  4.3215380043232928e-10  4.4010327083979238e-10  6.8897595352704125e-10  7.0005760793049850e-10  1.0987075976343070e-09  1.1138750465984873e-09  1.7525759083117299e-09  1.7728363812392641e-09  2.7963620617544622e-09  2.8225203907069406e-09  4.4631126962558691e-09  4.4952026551229131e-09  7.1255277294832511e-09  7.1616557141608583e-09  1.1379904528559472e-08  1.1414017277465714e-08  1.8180723611176418e-08  1.8198443152349438e-08  2.9056560243006012e-08  2.9027596156847596e-08  4.6456697411234261e-08  4.6321263257434842e-08  7.4307967323330971e-08  7.3952779407479777e-08  1.1891004597707310e-07  1.1812633141725106e-07  1.9037617984665689e-07  1.8878674859902426e-07  3.0495387527740119e-07  3.0188713859544072e-07  4.8876700594089165e-07  4.8304012124343423e-07  7.8385710626065455e-07  7.7340343973226428e-07  1.2579493650026327e-06  1.2391788390976893e-06  2.0202630453747842e-06  1.9869628962245987e-06  3.2471498064747614e-06  3.1885914130176551e-06  5.2237467841877931e-06  5.1214139673828057e-06  8.4117914121955971e-06  8.2337004368894963e-06  1.3560296799419032e-05  1.3251079590549135e-05  2.1886677779279462e-05  2.1350154030066365e-05  3.5374124118768612e-05  3.4442446868867986e-05  5.7261654986770549e-05  5.5640244121021550e-05  9.2855260365453513e-05  9.0023667307777465e-05  1.5087756373562410e-04  1.4590932396792728e-04  2.4572781350582781e-04  2.3695973439385906e-04  4.0129582226915866e-04  3.8571392288987616e-04  6.5746154083671886e-04  6.2954580998018548e-04  1.0813109029921481e-03  1.0308275749715727e-03  1.7868104005354713e-03  1.6945107926845048e-03  2.9700891237726991e-03  2.7991248101694771e-03  4.9746616394658110e-03  4.6529122484413633e-03  8.4172957780936086e-03  7.7995014054040614e-03  1.4446532239614363e-02  1.3228791044130432e-02  2.5324907157605155e-02  2.2839433409578593e-02  4.5928176999658565e-02  4.0653504579963591e-02  8.9063871997760641e-02  7.2550242210845092e-02  3.9905132935508403e-01  3.3665146690121034e-01  8.4147918085998163e-01  1.1645780918868505e+00  1.0977195854845789e+00  1.0489695920033881e+00  1.0289655098715389e+00  1.0173512437662007e+00  1.0105622842176165e+00  1.0064860525820212e+00  1.0040080574763626e+00  1.0024881896344811e+00  1.0015500699871056e+00  1.0009682730431912e+00  1.0006061404720046e+00  1.0003800918025580e+00  1.0002386697747312e+00  1.0001500325632116e+00  1.0000943978392334e+00  1.0000594366667532e+00  1.0000374459060299e+00  1.0000236028562282e+00  1.0000148832167102e+00  1.0000093879313001e+00  1.0000059232275158e+00  1.0000037380193243e+00  1.0000023594036933e+00  1.0000014894522662e+00  1.0000009403793557e+00  1.0000005937755809e+00  1.0000003749527919e+00  1.0000002367878982e+00  1.0000001495429105e+00  1.0000000944476735e+00  1.0000000596529957e+00  1.0000000376778306e+00  1.0000000237985098e+00  1.0000000150321759e+00  1.0000000094951236e+00  1.0000000059976966e+00  1.0000000037885481e+00  1.0000000023931179e+00  1.0000000015116743e+00  1.0000000009548911e+00  1.0000000006031864e+00  1.0000000003810217e+00  1.0000000002406855e+00  1.0000000001520370e+00  1.0000000000960401e+00  1.0000000000606668e+00  1.0000000000383229e+00  1.0000000000242086e+00  1.0000000000152929e+00  1.0000000000096605e+00  1.0000000000061027e+00  1.0000000000038551e+00  1.0000000000024354e+00  1.0000000000015381e+00  1.0000000000009710e+00  1.0000000000006131e+00  1.0000000000003866e+00  1.0000000000002451e+00  1.0000000000001534e+00  1.0000000000000986e+00  1.0000000000000540e+00  1.0000000000000724e+00  0.0000000000000000e+00  4.9990349321788216e-13  1.9756928940605347e-12  2.3131532892562409e-12  4.1479643167250589e-12  4.3296876811814983e-12  7.0252359897111513e-12  7.1415496455478815e-12  1.1348042118829308e-11  1.1436180829415735e-11  1.8118884652972013e-11  1.8180258815558469e-11  2.8849920387558885e-11  2.8852719714724337e-11  4.5912776918210850e-11  4.5778108138434914e-11  7.3069937688995266e-11  7.2638362881832544e-11  1.1630981810656921e-10  1.1527836612320263e-10  1.8517324165335222e-10  1.8298342398944493e-10  2.9486719885935808e-10  2.9050972810799759e-10  4.6963668427023444e-10  4.6131422944622735e-10  7.4814599668058160e-10  7.3269464682213630e-10  1.1920700260072465e-09  1.1639720781389003e-09  1.8998147580212094e-09  1.8495216209762328e-09  3.0284365837485580e-09  2.9395304617204683e-09  4.8286720290195864e-09  4.6730778443986099e-09  7.7009405818348969e-09  7.4308708452804952e-09  1.2284913731014610e-08  1.1819348133583786e-08  1.9602830626075111e-08  1.8804864601337602e-08  3.1288918331872158e-08  2.9927869338756338e-08  4.9956833735058254e-08  4.7644915640824838e-08  7.9788484143561227e-08  7.5875049854078622e-08  1.2747816573932926e-07  1.2087312549415887e-07  2.0374741684173206e-07  1.9262633497637412e-07  3.2577730413633425e-07  3.0708854303522613e-07  5.2111682082912212e-07  4.8975685076144537e-07  8.3396864948346657e-07  7.8139965221134505e-07  1.3353080382227217e-06  1.2472351440226534e-06  2.1391895513769052e-06  1.9916462499758494e-06  3.4290567652477657e-06  3.1817831456185347e-06  5.5002470295496089e-06  5.0854390360954447e-06  8.8287619162855200e-06  8.1318563470662263e-06  1.4182719388023434e-05  1.3009379908691415e-05  2.2803317015427606e-05  2.0822323276725201e-05  3.6699284809947614e-05  3.3342970597532468e-05  5.9127163712645137e-05  5.3416331875716644e-05  9.5376860260729815e-05  8.5609839590198105e-05  1.5406064797944912e-04  1.3725483854996708e-04  2.4923620601632136e-04  2.2011197971023001e-04  4.0391888420761340e-04  3.5302224120582911e-04  6.5592324030853185e-04  5.6609240731536582e-04  1.0676418409449693e-03  9.0720303514981978e-04  1.7425473664747265e-03  1.4518279259209850e-03  2.8533241504883691e-03  2.3169061619299435e-03  4.6904474558721564e-03  3.6772195008030022e-03  7.7474601741962246e-03  5.7722453722266502e-03  1.2873609445557979e-02  8.8471705640248838e-03  2.1550069452078352e-02  1.2774460398501381e-02  3.6323513741591464e-02  1.5167853587383326e-02  6.0168846590791948e-02  -5.1280773476143585e-02  3.4403169718394508e-02  -4.0556994515316698e-02  1.1608252412720992e-01  5.1004621593890953e-01  6.9297015468870704e-01  8.0773360268342387e-01  8.7915218643494364e-01  9.2393113994164378e-01  9.5207046164370168e-01  9.6978074259814939e-01  9.8093811036065581e-01  9.8797194254466714e-01  9.9240836247505515e-01  9.9520752694576164e-01  9.9697413833419557e-01  9.9808931355612085e-01  9.9879338156162900e-01  9.9923795191866638e-01  9.9951869518887027e-01  9.9969599666149889e-01  9.9980797720623460e-01  9.9987870573464710e-01  9.9992338069410536e-01  9.9995160009312256e-01  9.9996942563040359e-01  9.9998068584150801e-01  9.9998779892091294e-01  9.9999229231516729e-01  9.9999513086116476e-01  9.9999692402885998e-01  9.9999805681683673e-01  9.9999877243021629e-01  9.9999922450452550e-01  9.9999951009407628e-01  9.9999969051028126e-01  9.9999980448517944e-01  9.9999987648693500e-01  9.9999992197284915e-01  9.9999995070781156e-01  9.9999996886062370e-01  9.9999998032833914e-01  9.9999998757285224e-01  9.9999999214943236e-01  9.9999999504059112e-01  9.9999999686701890e-01  9.9999999802082185e-01  9.9999999874970957e-01  9.9999999921016591e-01  9.9999999950104712e-01  9.9999999968480291e-01  9.9999999980088516e-01  9.9999999987421628e-01  9.9999999992054123e-01  9.9999999994980582e-01  9.9999999996829247e-01  9.9999999997997069e-01  9.9999999998734845e-01  9.9999999999200873e-01  9.9999999999495226e-01  9.9999999999681188e-01  9.9999999999798528e-01  9.9999999999872824e-01  9.9999999999919542e-01  9.9999999999949185e-01  9.9999999999967770e-01  0.0000000000000000e+00  1.1811132387373643e-12  1.3283977800706893e-12  2.6317772721856213e-12  2.5748245156181675e-12  4.4721283149924475e-12  4.2524781649864236e-12  7.2121711995697011e-12  6.7903152203116802e-12  1.1491838342444794e-11  1.0755950862256053e-11  1.8259519460216736e-11  1.7004095986222908e-11  2.8995260213226926e-11  2.6868739481981967e-11  4.6039694296740764e-11  4.2450807527854471e-11  7.3106739087192195e-11  6.7066371420071512e-11  1.1609432212175585e-10  1.0595203329827340e-10  1.8437093718046933e-10  1.6737767880744125e-10  2.9281909571295439e-10  2.6440266327784741e-10  4.6508168506896672e-10  4.1764741073692688e-10  7.3871962711731208e-10  6.5966677218077932e-10  1.1734061775396267e-09  1.0418491866291370e-09  1.8639455610091033e-09  1.6452972641592408e-09  2.9609556777663636e-09  2.5979815545965767e-09  4.7037253746814073e-09  4.1017733771511074e-09  7.4724097058786011e-09  6.4750258299402903e-09  1.1870938303667301e-08  1.0219607662944796e-08  1.8858696790056647e-08  1.6126361380308864e-08  2.9959648382189841e-08  2.5440877162647736e-08  4.7594388427243088e-08  4.0123828650123351e-08  7.5607303251042841e-08  6.3259337261057661e-08  1.2010328572364248e-07  9.9694637178222482e-08  1.9077542807435549e-07  1.5704034402049538e-07  3.0301110443956176e-07  2.4723135192603396e-07  4.8123145943184506e-07  3.8895631853358866e-07  7.6418404878818848e-07  6.1142699429494075e-07  1.2133259200717724e-06  9.6020283474474487e-07  1.9260917802779444e-06  1.5061456187667490e-06  3.0568743609704317e-06  2.3590953280171355e-06  4.8501606511782677e-06  3.6885754866666975e-06  7.6927882161401034e-06  5.7547752479305216e-06  1.2196193545376194e-05  8.9541579060784371e-06  1.9325534738231870e-05  1.3885029003926607e-05  3.0601710396641300e-05  2.1438425640109218e-05  4.8415960974430134e-05  3.2916621283256335e-05  7.6516635314218440e-05  5.0170237062460004e-05  1.2075542281850391e-04  7.5713423302240413e-05  1.9021589409201341e-04  1.1269713293847300e-04  2.9888477761984234e-04  1.6442892647692891e-04  4.6804319076352744e-04  2.3267277682604995e-04  7.2948152174656981e-04  3.1287843969694595e-04  1.1292833979643509e-03  3.8186000348034419e-04  1.7307510745913921e-03  3.6684552997120123e-04  2.6116035331538324e-03  6.7404034430158710e-05  3.8407657116904534e-03  -1.0477541885414319e-03  5.3914248990683368e-03  -4.4041186783654812e-03  6.8497097299212179e-03  -1.4072048123532754e-02  6.2523627492583949e-03  -4.9002982788130686e-02  2.3216986810669908e-02  -3.2760864077056549e-02  1.7562188518176855e-01  5.1699529487025497e-01  7.0692757433850806e-01  8.1693579255149351e-01  8.8478203900921615e-01  9.2728869440920869e-01  9.5404947281396224e-01  9.7093758699726029e-01  9.8160932737117434e-01  9.8835835057203669e-01  9.9262882306061462e-01  9.9533195569195898e-01  9.9704342480388264e-01  9.9812722847570556e-01  9.9881365054683879e-01  9.9924843735184932e-01  9.9952385736831251e-01  9.9969833550011922e-01  9.9980887236543037e-01  9.9987890324756423e-01  9.9992327279925375e-01  9.9995138474470235e-01  9.9996919643616666e-01  9.9998048207729739e-01  9.9998763284802805e-01  9.9999216374310396e-01  9.9999503464846784e-01  9.9999685374946778e-01  9.9999800639900505e-01  9.9999873676383055e-01  9.9999919955404348e-01  9.9999949279859057e-01  9.9999967861195749e-01  9.9999979635221770e-01  9.9999987095824505e-01  9.9999991823237799e-01  9.9999994818769333e-01  9.9999996716894024e-01  9.9999997919646233e-01  9.9999998681774016e-01  9.9999999164699460e-01  9.9999999470707168e-01  9.9999999664610584e-01  9.9999999787478377e-01  9.9999999865334377e-01  9.9999999914668247e-01  9.9999999945929019e-01  9.9999999965737585e-01  9.9999999978289456e-01  9.9999999986243038e-01  9.9999999991282862e-01  9.9999999994476363e-01  9.9999999996499933e-01  9.9999999997782207e-01  9.9999999998594702e-01  9.9999999999109457e-01  9.9999999999435740e-01  9.9999999999642464e-01  9.9999999999773403e-01  9.9999999999856493e-01  9.9999999999908940e-01  9.9999999999942346e-01  9.9999999999963418e-01  9.9999999999976785e-01  0.0000000000000000e+00  1.6363217629981644e-13  1.1955661762288088e-12  1.0650488327833365e-12  2.4111312966941218e-12  2.0020327283788018e-12  4.0287577984639981e-12  3.2749002466759330e-12  6.4609720944304912e-12  5.1871407871218150e-12  1.0255555424983944e-11  8.1456349706509642e-12  1.6234398214462617e-11  1.2757353644699899e-11  2.5678070988007555e-11  1.9956978524337885e-11  4.0602120444321045e-11  3.1195406782155263e-11  6.4186727005352703e-11  4.8727930570064622e-11  1.0145178527335885e-10  7.6058530105981118e-11  1.6032015698378548e-10  1.1862549262768338e-10  2.5329274596151964e-10  1.8485810566926398e-10  4.0008657939393420e-10  2.8780191733223959e-10  6.3178732365061212e-10  4.4761219570913054e-10  9.9738147376281902e-10  6.9536808300777644e-10  1.5740245366889708e-09  1.0788868562976540e-09  2.4831689115205971e-09  1.6715512132567342e-09  3.9158724079709225e-09  2.5856465054031067e-09  6.1724728609949508e-09  3.9923956955161805e-09  9.7247120163624070e-09  6.1518438925377275e-09  1.5312884624459445e-08  9.4570469061861033e-09  2.4097535309161029e-08  1.4498693165212123e-08  3.7895932030278651e-08  2.2158266973979748e-08  5.9549983235496744e-08  3.3739819702955569e-08  9.3497391710115824e-08  5.1151460867804677e-08  1.4665603628687692e-07  7.7145722444470340e-08  2.2978926406098979e-07  1.1561846983585460e-07  3.5960620527085708e-07  1.7193971541082783e-07  5.6197939405375735e-07  2.5322788837341147e-07  8.7684957921681415e-07  3.6834525398993246e-07  1.3656574895481273e-06  5.2711553229105420e-07  2.1225214771330675e-06  7.3770995061115411e-07  3.2908948039764426e-06  1.0000576182170674e-06  5.0880996023324415e-06  1.2910233983382075e-06  7.8409149109143321e-06  1.5330432739559499e-06  1.2036153664842963e-05  1.5301850626841729e-06  1.8390520384573250e-05  8.4095877338796960e-07  2.7943139291955974e-05  -1.4704860854148657e-06  4.2170218581862921e-05  -7.3154018853109647e-06  6.3111052374049487e-05  -2.0502927037103980e-05  9.3472386927648290e-05  -4.8499064416062712e-05  1.3663670903754020e-04  -1.0576712928897713e-04  1.9643665996954259e-04  -2.2009074739949894e-04  2.7650659268845537e-04  -4.4449639664741799e-04  3.7918199840086261e-04  -8.7957824639056767e-04  5.0514527411425064e-04  -1.7146426238316091e-03  6.6077149159738150e-04  -3.3005197110079205e-03  9.0466025189764050e-04  -6.2634171616179433e-03  1.5724265464261704e-03  -1.1593526280942760e-02  4.3881125460982114e-03  -2.0129172998829360e-02  2.5632146862650900e-02  -2.1196683532681816e-02  1.3928717399878393e-02  2.2247576397266114e-01  4.8360178898938810e-01  6.6560439135388305e-01  7.8799344174039732e-01  8.6595320859977309e-01  9.1525276834235125e-01  9.4640882086762090e-01  9.6610186325271208e-01  9.7855352752167701e-01  9.8642891605015293e-01  9.9141113929165470e-01  9.9456366830923026e-01  9.9655875561228302e-01  9.9782150628899347e-01  9.9862081637141931e-01  9.9912681161399319e-01  9.9944714659438849e-01  9.9964995401022660e-01  9.9977835863392217e-01  9.9985965881955996e-01  9.9991113588653591e-01  9.9994373045910456e-01  9.9996436925208410e-01  9.9997743786227156e-01  9.9998571308089645e-01  9.9999095310857922e-01  9.9999427121995288e-01  9.9999637234058458e-01  9.9999770283530931e-01  9.9999854534915844e-01  9.9999907885885719e-01  9.9999941669700332e-01  9.9999963062908381e-01  9.9999976609929830e-01  9.9999985188447127e-01  9.9999990620713297e-01  9.9999994060647279e-01  9.9999996238955724e-01  9.9999997618350844e-01  9.9999998491841469e-01  9.9999999044971821e-01  9.9999999395237071e-01  9.9999999617039448e-01  9.9999999757493929e-01  9.9999999846435395e-01  9.9999999902756842e-01  9.9999999938421769e-01  9.9999999961006292e-01  9.9999999975307696e-01  9.9999999984363930e-01  9.9999999990098642e-01  9.9999999993730215e-01  9.9999999996029831e-01  9.9999999997485944e-01  9.9999999998408040e-01  9.9999999998992006e-01  9.9999999999361688e-01  9.9999999999595812e-01  9.9999999999744105e-01  9.9999999999837896e-01  9.9999999999897471e-01  9.9999999999934985e-01  9.9999999999958766e-01  9.9999999999973854e-01  0.0000000000000000e+00  6.1309065836047918e-13  3.0686102421314020e-13  1.1629703874484861e-12  6.0217229828344923e-13  1.9195781258159162e-12  9.7520438892442100e-13  3.0578232712910928e-12  1.5068842384177966e-12  4.8244042958906463e-12  2.2927692815850056e-12  7.5886563987446367e-12  3.4622441428729839e-12  1.1921650514123195e-11  5.1983526147706502e-12  1.8713957354849082e-11  7.7609398922571312e-12  2.9356683862070788e-11  1.1514607732338387e-11  4.6022293756482182e-11  1.6960730912404408e-11  7.2100833546262113e-11  2.4768802170223700e-11  1.1287708221993718e-10  3.5794478580066628e-11  1.7658022606647762e-10  5.1056129202633127e-11  2.7600823450225529e-10  7.1611736325841015e-11  4.3103672100923884e-10  9.8221706616665538e-11  6.7248545498809464e-10  1.3057918221314204e-10  1.0480625937439484e-09  1.6570005707396528e-10  1.6314778163361677e-09  1.9472362341841789e-10  2.5363698267724933e-09  1.9676504953469768e-10  3.9375153596886106e-09  1.2737916305540103e-10  6.1029938707657065e-09  -1.0271313460931202e-10  9.4427357652596740e-09  -6.6633450914577528e-10  1.4581394954851152e-08  -1.8895537902269739e-09  2.2467024615988038e-08  -4.3761489669036808e-09  3.4531902239775377e-08  -9.2283450713465603e-09  5.2928335636507666e-08  -1.8436115520250760e-08  8.0870530675483403e-08  -3.5560592667113593e-08  1.2312334080526639e-07  -6.6929141466344443e-08  1.8668871831295683e-07  -1.2371836570548352e-07  2.8174777061215410e-07  -2.2557472746260561e-07  4.2291363143781858e-07  -4.0689283091725447e-07  6.3082447685611475e-07  -7.2767953504746182e-07  9.3403260539339734e-07  -1.2923183128349202e-06  1.3709834029245428e-06  -2.2819218973268131e-06  1.9915635775115584e-06  -4.0100158519720725e-06  2.8571465323191268e-06  -7.0181994817591102e-06  4.0371980701050228e-06  -1.2240132849185679e-05  5.5993780233072347e-06  -2.1281907273734549e-05  7.5892231368114459e-06  -3.6899735591246715e-05  9.9969740736231990e-06  -6.3809966933953328e-05  1.2719205937106782e-05  -1.1005336336595329e-04  1.5559312230129939e-05  -1.8927022005009100e-04  1.8421154203048498e-05  -3.2443782346499190e-04  2.2159783688459510e-05  -5.5386633490811120e-04  3.1390292109175250e-05  -9.4044667798973451e-04  6.2778149390752225e-05  -1.5849470217672854e-03  1.6818225583683588e-04  -2.6426290291304347e-03  4.9728770289575615e-04  -4.3379903683865347e-03  1.4632926798676565e-03  -6.9687119309105967e-03  4.1673521048485405e-03  -1.1002998196343566e-02  1.1702405059595720e-02  -2.3535385857644878e-02  2.7603213929574665e-03  -1.7357602924485942e-02  1.3628266283520254e-01  4.7867541824325788e-01  6.7235571814342077e-01  7.9371379860202751e-01  8.6993102692844537e-01  9.1788957476890543e-01  9.4812074380387301e-01  9.6720208421117415e-01  9.7925656266274519e-01  9.8687659011695805e-01  9.9169557304428924e-01  9.9474411911576655e-01  9.9667312141946052e-01  9.9789393698959161e-01  9.9866666475819110e-01  9.9915582234011402e-01  9.9946549789211059e-01  9.9966155986856819e-01  9.9978569719141808e-01  9.9986429843729896e-01  9.9991406882516776e-01  9.9994558433840197e-01  9.9996554097260371e-01  9.9997817838028369e-01  9.9998618105305748e-01  9.9999124882821500e-01  9.9999445808081977e-01  9.9999649040973249e-01  9.9999777743478346e-01  9.9999859248133649e-01  9.9999910863596619e-01  9.9999943550885373e-01  9.9999964251314832e-01  9.9999977360659054e-01  9.9999985662674840e-01  9.9999990920267667e-01  9.9999994249859891e-01  9.9999996358467202e-01  9.9999997693835185e-01  9.9999998539515955e-01  9.9999999075081492e-01  9.9999999414252505e-01  9.9999999629048131e-01  9.9999999765077330e-01  9.9999999851224208e-01  9.9999999905780668e-