<?xml version="1.0"?>
<VTKFile type="UnstructuredGrid"  version="0.1"  >
<UnstructuredGrid>
<Piece  NumberOfPoints="21400" NumberOfCells="42336">
<Points>
<DataArray  type="Float64"  NumberOfComponents="3"  format="ascii">0 0 0  0.004583333333333333 0 0  0.009166666666666667 0 0  0.01375 0 0  0.01833333333333333 0 0  0.02291666666666667 0 0  0.0275 0 0  0.03208333333333334 0 0  0.03666666666666667 0 0  0.04125 0 0  0.04583333333333334 0 0  0.05041666666666667 0 0  0.055 0 0  0.05958333333333334 0 0  0.06416666666666668 0 0  0.06875000000000001 0 0  0.07333333333333333 0 0  0.07791666666666666 0 0  0.08249999999999999 0 0  0.08708333333333333 0 0  0.09166666666666667 0 0  0.09625000000000002 0 0  0.1008333333333333 0 0  0.1054166666666667 0 0  0.11 0 0  0.1145833333333333 0 0  0.1191666666666667 0 0  0.12375 0 0  0.1283333333333334 0 0  0.1329166666666667 0 0  0.1375 0 0  0.1420833333333333 0 0  0.1466666666666667 0 0  0.15125 0 0  0.1558333333333333 0 0  0.1604166666666667 0 0  0.165 0 0  0.1695833333333333 0 0  0.1741666666666667 0 0  0.17875 0 0  0.1833333333333333 0 0  0.1879166666666667 0 0  0.1925 0 0  0.1970833333333333 0 0  0.2016666666666667 0 0  0.20625 0 0  0.2108333333333333 0 0  0.2154166666666666 0 0  0.22 0 0  0.2245833333333334 0 0  0.2291666666666667 0 0  0.23375 0 0  0.2383333333333333 0 0  0.2429166666666667 0 0  0.2475 0 0  0.2520833333333333 0 0  0.2566666666666667 0 0  0.26125 0 0  0.2658333333333334 0 0  0.2704166666666666 0 0  0.275 0 0  0.2795833333333334 0 0  0.2841666666666667 0 0  0.28875 0 0  0.2933333333333333 0 0  0.2979166666666667 0 0  0.3025 0 0  0.3070833333333334 0 0  0.3116666666666666 0 0  0.31625 0 0  0.3208333333333333 0 0  0.3254166666666667 0 0  0.33 0 0  0.3345833333333333 0 0  0.3391666666666667 0 0  0.34375 0 0  0.3483333333333333 0 0  0.3529166666666667 0 0  0.3575 0 0  0.3620833333333333 0 0  0.3666666666666667 0 0  0.37125 0 0  0.3758333333333334 0 0  0.3804166666666667 0 0  0.3850000000000001 0 0  0.3895833333333333 0 0  0.3941666666666667 0 0  0.39875 0 0  0.4033333333333334 0 0  0.4079166666666666 0 0  0.4125 0 0  0.4170833333333334 0 0  0.4216666666666667 0 0  0.42625 0 0  0.4308333333333333 0 0  0.4354166666666667 0 0  0.44 0 0  0.4445833333333333 0 0  0.4491666666666667 0 0  0.45375 0 0  0.4583333333333333 0 0  0.4629166666666666 0 0  0.4675 0 0  0.4720833333333334 0 0  0.4766666666666667 0 0  0.4812500000000001 0 0  0.4858333333333333 0 0  0.4904166666666667 0 0  0.495 0 0  0.4995833333333334 0 0  0.5041666666666667 0 0  0.50875 0 0  0.5133333333333334 0 0  0.5179166666666667 0 0  0.5225 0 0  0.5270833333333333 0 0  0.5316666666666667 0 0  0.53625 0 0  0.5408333333333333 0 0  0.5454166666666667 0 0  0.55 0 0  0.5545833333333333 0 0  0.5591666666666667 0 0  0.5637500000000001 0 0  0.5683333333333334 0 0  0.5729166666666666 0 0  0.5775 0 0  0.5820833333333334 0 0  0.5866666666666667 0 0  0.5912499999999999 0 0  0.5958333333333334 0 0  0.6004166666666667 0 0  0.605 0 0  0.6095833333333334 0 0  0.6141666666666667 0 0  0.61875 0 0  0.6233333333333333 0 0  0.6279166666666667 0 0  0.6325000000000001 0 0  0.6370833333333333 0 0  0.6416666666666666 0 0  0.64625 0 0  0.6508333333333334 0 0  0.6554166666666666 0 0  0.6599999999999999 0 0  0.6645833333333334 0 0  0.6691666666666667 0 0  0.67375 0 0  0.6783333333333333 0 0  0.6829166666666667 0 0  0.6875 0 0  0.6920833333333333 0 0  0.6966666666666667 0 0  0.70125 0 0  0.7058333333333333 0 0  0.7104166666666667 0 0  0.7150000000000001 0 0  0.7195833333333334 0 0  0.7241666666666666 0 0  0.72875 0 0  0.7333333333333334 0 0  0.7379166666666667 0 0  0.7425 0 0  0.7470833333333333 0 0  0.7516666666666667 0 0  0.75625 0 0  0.7608333333333334 0 0  0.7654166666666666 0 0  0.7700000000000001 0 0  0 0.002380952380952381 0  0.004583333333333333 0.002380952380952381 0  0.009166666666666667 0.002380952380952381 0  0.01375 0.002380952380952381 0  0.01833333333333333 0.002380952380952381 0  0.02291666666666667 0.002380952380952381 0  0.0275 0.002380952380952381 0  0.03208333333333334 0.002380952380952381 0  0.03666666666666667 0.002380952380952381 0  0.04125 0.002380952380952381 0  0.04583333333333334 0.002380952380952381 0  0.05041666666666667 0.002380952380952381 0  0.055 0.002380952380952381 0  0.05958333333333334 0.002380952380952381 0  0.06416666666666668 0.002380952380952381 0  0.06875000000000001 0.002380952380952381 0  0.07333333333333333 0.002380952380952381 0  0.07791666666666666 0.002380952380952381 0  0.08249999999999999 0.002380952380952381 0  0.08708333333333333 0.002380952380952381 0  0.09166666666666667 0.002380952380952381 0  0.09625000000000002 0.002380952380952381 0  0.1008333333333333 0.002380952380952381 0  0.1054166666666667 0.002380952380952381 0  0.11 0.002380952380952381 0  0.1145833333333333 0.002380952380952381 0  0.1191666666666667 0.002380952380952381 0  0.12375 0.002380952380952381 0  0.1283333333333334 0.002380952380952381 0  0.1329166666666667 0.002380952380952381 0  0.1375 0.002380952380952381 0  0.1420833333333333 0.002380952380952381 0  0.1466666666666667 0.002380952380952381 0  0.15125 0.002380952380952381 0  0.1558333333333333 0.002380952380952381 0  0.1604166666666667 0.002380952380952381 0  0.165 0.002380952380952381 0  0.1695833333333333 0.002380952380952381 0  0.1741666666666667 0.002380952380952381 0  0.17875 0.002380952380952381 0  0.1833333333333333 0.002380952380952381 0  0.1879166666666667 0.002380952380952381 0  0.1925 0.002380952380952381 0  0.1970833333333333 0.002380952380952381 0  0.2016666666666667 0.002380952380952381 0  0.20625 0.002380952380952381 0  0.2108333333333333 0.002380952380952381 0  0.2154166666666666 0.002380952380952381 0  0.22 0.002380952380952381 0  0.2245833333333334 0.002380952380952381 0  0.2291666666666667 0.002380952380952381 0  0.23375 0.002380952380952381 0  0.2383333333333333 0.002380952380952381 0  0.2429166666666667 0.002380952380952381 0  0.2475 0.002380952380952381 0  0.2520833333333333 0.002380952380952381 0  0.2566666666666667 0.002380952380952381 0  0.26125 0.002380952380952381 0  0.2658333333333334 0.002380952380952381 0  0.2704166666666666 0.002380952380952381 0  0.275 0.002380952380952381 0  0.2795833333333334 0.002380952380952381 0  0.2841666666666667 0.002380952380952381 0  0.28875 0.002380952380952381 0  0.2933333333333333 0.002380952380952381 0  0.2979166666666667 0.002380952380952381 0  0.3025 0.002380952380952381 0  0.3070833333333334 0.002380952380952381 0  0.3116666666666666 0.002380952380952381 0  0.31625 0.002380952380952381 0  0.3208333333333333 0.002380952380952381 0  0.3254166666666667 0.002380952380952381 0  0.33 0.002380952380952381 0  0.3345833333333333 0.002380952380952381 0  0.3391666666666667 0.002380952380952381 0  0.34375 0.002380952380952381 0  0.3483333333333333 0.002380952380952381 0  0.3529166666666667 0.002380952380952381 0  0.3575 0.002380952380952381 0  0.3620833333333333 0.002380952380952381 0  0.3666666666666667 0.002380952380952381 0  0.37125 0.002380952380952381 0  0.3758333333333334 0.002380952380952381 0  0.3804166666666667 0.002380952380952381 0  0.3850000000000001 0.002380952380952381 0  0.3895833333333333 0.002380952380952381 0  0.3941666666666667 0.002380952380952381 0  0.39875 0.002380952380952381 0  0.4033333333333334 0.002380952380952381 0  0.4079166666666666 0.002380952380952381 0  0.4125 0.002380952380952381 0  0.4170833333333334 0.002380952380952381 0  0.4216666666666667 0.002380952380952381 0  0.42625 0.002380952380952381 0  0.4308333333333333 0.002380952380952381 0  0.4354166666666667 0.002380952380952381 0  0.44 0.002380952380952381 0  0.4445833333333333 0.002380952380952381 0  0.4491666666666667 0.002380952380952381 0  0.45375 0.002380952380952381 0  0.4583333333333333 0.002380952380952381 0  0.4629166666666666 0.002380952380952381 0  0.4675 0.002380952380952381 0  0.4720833333333334 0.002380952380952381 0  0.4766666666666667 0.002380952380952381 0  0.4812500000000001 0.002380952380952381 0  0.4858333333333333 0.002380952380952381 0  0.4904166666666667 0.002380952380952381 0  0.495 0.002380952380952381 0  0.4995833333333334 0.002380952380952381 0  0.5041666666666667 0.002380952380952381 0  0.50875 0.002380952380952381 0  0.5133333333333334 0.002380952380952381 0  0.5179166666666667 0.002380952380952381 0  0.5225 0.002380952380952381 0  0.5270833333333333 0.002380952380952381 0  0.5316666666666667 0.002380952380952381 0  0.53625 0.002380952380952381 0  0.5408333333333333 0.002380952380952381 0  0.5454166666666667 0.002380952380952381 0  0.55 0.002380952380952381 0  0.5545833333333333 0.002380952380952381 0  0.5591666666666667 0.002380952380952381 0  0.5637500000000001 0.002380952380952381 0  0.5683333333333334 0.002380952380952381 0  0.5729166666666666 0.002380952380952381 0  0.5775 0.002380952380952381 0  0.5820833333333334 0.002380952380952381 0  0.5866666666666667 0.002380952380952381 0  0.5912499999999999 0.002380952380952381 0  0.5958333333333334 0.002380952380952381 0  0.6004166666666667 0.002380952380952381 0  0.605 0.002380952380952381 0  0.6095833333333334 0.002380952380952381 0  0.6141666666666667 0.002380952380952381 0  0.61875 0.002380952380952381 0  0.6233333333333333 0.002380952380952381 0  0.6279166666666667 0.002380952380952381 0  0.6325000000000001 0.002380952380952381 0  0.6370833333333333 0.002380952380952381 0  0.6416666666666666 0.002380952380952381 0  0.64625 0.002380952380952381 0  0.6508333333333334 0.002380952380952381 0  0.6554166666666666 0.002380952380952381 0  0.6599999999999999 0.002380952380952381 0  0.6645833333333334 0.002380952380952381 0  0.6691666666666667 0.002380952380952381 0  0.67375 0.002380952380952381 0  0.6783333333333333 0.002380952380952381 0  0.6829166666666667 0.002380952380952381 0  0.6875 0.002380952380952381 0  0.6920833333333333 0.002380952380952381 0  0.6966666666666667 0.002380952380952381 0  0.70125 0.002380952380952381 0  0.7058333333333333 0.002380952380952381 0  0.7104166666666667 0.002380952380952381 0  0.7150000000000001 0.002380952380952381 
[...]
<PointData  Scalars="concentration"> 
<DataArray  type="Float64"  Name="concentration"  format="ascii">0.0000000000000000e+00  8.0444023470418847e-12  2.1641869576876627e-11  2.4857839948933894e-11  4.0933402762943221e-11  4.2819297082822016e-11  6.6864606973714855e-11  6.8866824280546233e-11  1.0687311774104835e-10  1.0959879672681168e-10  1.7029000906918504e-10  1.7419014942292509e-10  2.7129632202459210e-10  2.7687833423421817e-10  4.3233145145604296e-10  4.4023704640542333e-10  6.8916681129953090e-10  7.0020096782826739e-10  1.0989130356285924e-09  1.1140290868438041e-09  1.7527976831753437e-09  1.7730023421210080e-09  2.7966019999073081e-09  2.8226995391099460e-09  4.4633726822407562e-09  4.4953963003285914e-09  7.1258097449143556e-09  7.1618652398373499e-09  1.1380210691106468e-08  1.1414244169660966e-08  1.8181056208035263e-08  1.8198689023260061e-08  2.9056921761140297e-08  2.9027862766924233e-08  4.6457090566944542e-08  4.6321552537554914e-08  7.4308395092891982e-08  7.3953093482749415e-08  1.1891051162983666e-07  1.1812667263331033e-07  1.9037668698151191e-07  1.8878711955189617e-07  3.0495442786377366e-07  3.0188754216552547e-07  4.8876760836533940e-07  4.8304056063538603e-07  7.8385776338034650e-07  7.7340391852122956e-07  1.2579500822075809e-06  1.2391793612840287e-06  2.0202638286599120e-06  1.9869634663019253e-06  3.2471506625274800e-06  3.1885920360515675e-06  5.2237477204919143e-06  5.1214146491098482e-06  8.4117924371581233e-06  8.2337011838411674e-06  1.3560297922531043e-05  1.3251080410219091e-05  2.1886679011315124e-05  2.1350154931099468e-05  3.5374125472042638e-05  3.4442447861357937e-05  5.7261656475503657e-05  5.5640245216866448e-05  9.2855262006190240e-05  9.0023668521273023e-05  1.5087756554790606e-04  1.4590932531640741e-04  2.4572781551311857e-04  2.3695973589886162e-04  4.0129582449984912e-04  3.8571392457869273e-04  6.5746154332652290e-04  6.2954581188825955e-04  1.0813109057857184e-03  1.0308275771457934e-03  1.7868104036903741e-03  1.6945107951875577e-03  2.9700891273638230e-03  2.7991248130885904e-03  4.9746616435897622e-03  4.6529122518951006e-03  8.4172957828687056e-03  7.7995014095527653e-03  1.4446532245163041e-02  1.3228791049184873e-02  2.5324907163977794e-02  2.2839433415760522e-02  4.5928177006490940e-02  4.0653504587308202e-02  8.9063872002986738e-02  7.2550242216953290e-02  3.9905132933103066e-01  3.3665146688653086e-01  8.4147918082228212e-01  1.1645780918740791e+00  1.0977195854723849e+00  1.0489695919949142e+00  1.0289655098661814e+00  1.0173512437627421e+00  1.0105622842153810e+00  1.0064860525805432e+00  1.0040080574753776e+00  1.0024881896338160e+00  1.0015500699866586e+00  1.0009682730428813e+00  1.0006061404717914e+00  1.0003800918024095e+00  1.0002386697746299e+00  1.0001500325631387e+00  1.0000943978391821e+00  1.0000594366667166e+00  1.0000374459060055e+00  1.0000236028562099e+00  1.0000148832166964e+00  1.0000093879312901e+00  1.0000059232275085e+00  1.0000037380193190e+00  1.0000023594036898e+00  1.0000014894522640e+00  1.0000009403793542e+00  1.0000005937755798e+00  1.0000003749527910e+00  1.0000002367878980e+00  1.0000001495429105e+00  1.0000000944476735e+00  1.0000000596529950e+00  1.0000000376778302e+00  1.0000000237985089e+00  1.0000000150321768e+00  1.0000000094951218e+00  1.0000000059976979e+00  1.0000000037885484e+00  1.0000000023931199e+00  1.0000000015116743e+00  1.0000000009548917e+00  1.0000000006031857e+00  1.0000000003810217e+00  1.0000000002406855e+00  1.0000000001520377e+00  1.0000000000960412e+00  1.0000000000606679e+00  1.0000000000383233e+00  1.0000000000242086e+00  1.0000000000152924e+00  1.0000000000096603e+00  1.0000000000061042e+00  1.0000000000038556e+00  1.0000000000024365e+00  1.0000000000015392e+00  1.0000000000009732e+00  1.0000000000006160e+00  1.0000000000003897e+00  1.0000000000002467e+00  1.0000000000001559e+00  1.0000000000000988e+00  1.0000000000000639e+00  1.0000000000000409e+00  1.0000000000000262e+00  1.0000000000000178e+00  1.0000000000000124e+00  1.0000000000000089e+00  1.0000000000000056e+00  1.0000000000000044e+00  1.0000000000000018e+00  1.0000000000000013e+00  1.0000000000000016e+00  0.0000000000000000e+00  9.5022349718925729e-12  1.2490514730081014e-11  2.5131101428369872e-11  2.6417914511954811e-11  4.4392322229126274e-11  4.4799262640388235e-11  7.2507406616456577e-11  7.2284496676020961e-11  1.1615534769824364e-10  1.1518828395328231e-10  1.8519245098278137e-10  1.8300508662196288e-10  2.9496293242180994e-10  2.9058059799698760e-10  4.6976971893440258e-10  4.6140916877298337e-10  7.4830111065577770e-10  7.3280390799003738e-10  1.1922418264577586e-09  1.1640921853891692e-09  1.9000018591938509e-09  1.8496516440434611e-09  3.0286392468624388e-09  2.9396705097953961e-09  4.8288912184958352e-09  4.6732284643895859e-09  7.7011775954413904e-09  7.4310327853069341e-09  1.2285170060686503e-08  1.1819522252858409e-08  1.9603107910809063e-08  1.8805051838277116e-08  3.1289218347011505e-08  2.9928070701904801e-08  4.9957158395922145e-08  4.7645132208545034e-08  7.9788835514546255e-08  7.5875282777381759e-08  1.2747854604523187e-07  1.2087337600038848e-07  2.0374782847949886e-07  1.9262660437282096e-07  3.2577774968748183e-07  3.0708883271207172e-07  5.2111730307134660e-07  4.8975716219393125e-07  8.3396917140285761e-07  7.8139998696083161e-07  1.3353086030237446e-06  1.2472355037351456e-06  2.1391901624928519e-06  1.9916466363794537e-06  3.4290574263501057e-06  3.1817835605201124e-06  5.5002477445523331e-06  5.0854394813686364e-06  8.8287626893574070e-06  8.1318568246468698e-06  1.4182720223584450e-05  1.3009380420559837e-05  2.2803317918165347e-05  2.0822323824907642e-05  3.6699285784810688e-05  3.3342971184069959e-05  5.9127164764873638e-05  5.3416332502721908e-05  9.5376861395847842e-05  8.5609840259854940e-05  1.5406064920339463e-04  1.3725483926463331e-04  2.4923620733541095e-04  2.2011198047271224e-04  4.0391888562889354e-04  3.5302224201939480e-04  6.5592324183974082e-04  5.6609240818495505e-04  1.0676418425949303e-03  9.0720303608226671e-04  1.7425473682532195e-03  1.4518279269262716e-03  2.8533241524047012e-03  2.3169061630220443e-03  4.6904474579291941e-03  3.6772195019984045e-03  7.7474601763754050e-03  5.7722453735426105e-03  1.2873609447763763e-02  8.8471705654647043e-03  2.1550069454003642e-02  1.2774460400052336e-02  3.6323513742304574e-02  1.5167853589192971e-02  6.0168846587602430e-02  -5.1280773466952721e-02  3.4403169717821959e-02  -4.0556994534808946e-02  1.1608252405247507e-01  5.1004621584897580e-01  6.9297015459687461e-01  8.0773360259893623e-01  8.7915218636142278e-01  9.2393113987984565e-01  9.5207046159294306e-01  9.6978074255712832e-01  9.8093811032789358e-01  9.8797194251872700e-01  9.9240836245465680e-01  9.9520752692979930e-01  9.9697413832175652e-01  9.9808931354645603e-01  9.9879338155414166e-01  9.9923795191287579e-01  9.9951869518439995e-01  9.9969599665805065e-01  9.9980797720357961e-01  9.9987870573260373e-01  9.9992338069253417e-01  9.9995160009191519e-01  9.9996942562947599e-01  9.9998068584079602e-01  9.9998779892036593e-01  9.9999229231474818e-01  9.9999513086084335e-01  9.9999692402861373e-01  9.9999805681664744e-01  9.9999877243007107e-01  9.9999922450441325e-01  9.9999951009399046e-01  9.9999969051021498e-01  9.9999980448512860e-01  9.9999987648689403e-01  9.9999992197281895e-01  9.9999995070778591e-01  9.9999996886060472e-01  9.9999998032832293e-01  9.9999998757284136e-01  9.9999999214942326e-01  9.9999999504058557e-01  9.9999999686701413e-01  9.9999999802081874e-01  9.9999999874970713e-01  9.9999999921016336e-01  9.9999999950104512e-01  9.9999999968480158e-01  9.9999999980088461e-01  9.9999999987421595e-01  9.9999999992054112e-01  9.9999999994980437e-01  9.9999999996829181e-01  9.9999999997996936e-01  9.9999999998734712e-01  9.9999999999200728e-01  9.9999999999495093e-01  9.9999999999681088e-01  9.9999999999798594e-01  9.9999999999872868e-01  9.9999999999919775e-01  9.9999999999949374e-01  9.9999999999968059e-01  9.9999999999979894e-01  9.9999999999987288e-01  9.9999999999991995e-01  9.9999999999994915e-01  9.9999999999996869e-01  9.9999999999997990e-01  9.9999999999998923e-01  9.9999999999999323e-01  9.9999999999999611e-01  0.0000000000000000e+00  3.9780388250623132e-12  1.4024921755681375e-11  1.4335956111491837e-11  2.7362214249500089e-11  2.5827381912133263e-11  4.5427927947134963e-11  4.2050016414948675e-11  7.2898930728819963e-11  6.6919132824132998e-11  1.1604855497275227e-10  1.0590599189925125e-10  1.8439201602510909e-10  1.6737246471324803e-10  2.9286946002577124e-10  2.6441415582021738e-10  4.6514653766447207e-10  4.1766584256740680e-10  7.3879320217766223e-10  6.5968807362311499e-10  1.1734863030608432e-09  1.0418715429986944e-09  1.8640314947616595e-09  1.6453197366735291e-09  2.9610472410688451e-09  2.5980035214410879e-09  4.7038226020957986e-09  4.1017943010753942e-09  7.4725126998982009e-09  6.4750451554837587e-09  1.1871047170218680e-08  1.0219624764289613e-08  1.8858811604845720e-08  1.6126375527733861e-08  2.9959769167641579e-08  2.5440887494385159e-08  4.7594515131445740e-08  4.0123834143720900e-08  7.5607435724823669e-08  6.3259336701415237e-08  1.2010342369352702e-07  9.9694629120462734e-08  1.9077557110981244e-07  1.5704032674581966e-07  3.0301125191320670e-07  2.4723132338952288e-07  4.8123161047051351e-07  3.8895627630121550e-07  7.6418420221302180e-07  6.1142693546906627e-07  1.2133260743258024e-06  9.6020275587339121e-07  1.9260919333366760e-06  1.5061455157357393e-06  3.0568745102333808e-06  2.3590951959229780e-06  4.8501607933405599e-06  3.6885753196567949e-06  7.6927883470275477e-06  5.7547750390264352e-06  1.2196193659764345e-05  8.9541576469607874e-06  1.9325534829616757e-05  1.3885028684681664e-05  3.0601710456985303e-05  2.1438425248962051e-05  4.8415960993853758e-05  3.2916620806262044e-05  7.6516635280676315e-05  5.0170236483194805e-05  1.2075542271748477e-04  7.5713422601654027e-05  1.9021589390624683e-04  1.1269713209461801e-04  2.9888477732912183e-04  1.6442892546535441e-04  4.6804319034470204e-04  2.3267277562075218e-04  7.2948152117431955e-04  3.1287843827234674e-04  1.1292833972122115e-03  3.8186000181496304e-04  1.7307510736341495e-03  3.6684552805695805e-04  2.6116035319697934e-03  6.7404032287114802e-05  3.8407657102614385e-03  -1.0477541908251017e-03  5.3914248973720514e-03  -4.4041186805335386e-03  6.8497097279118634e-03  -1.4072048124791204e-02  6.2523627468801376e-03  -4.9002982784903594e-02  2.3216986807316140e-02  -3.2760864077411932e-02  1.7562188514677834e-01  5.1699529481184359e-01  7.0692757427878872e-01  8.1693579249727455e-01  8.8478203896264840e-01  9.2728869437044181e-01  9.5404947278233698e-01  9.7093758697182497e-01  9.8160932735092110e-01  9.8835835055602694e-01  9.9262882304803179e-01  9.9533195568210786e-01  9.9704342479620089e-01  9.9812722846972834e-01  9.9881365054220006e-01  9.9924843734825142e-01  9.9952385736552807e-01  9.9969833549796516e-01  9.9980887236376703e-01  9.9987890324627893e-01  9.9992327279826210e-01  9.9995138474393763e-01  9.9996919643557702e-01  9.9998048207684243e-01  9.9998763284767733e-01  9.9999216374283362e-01  9.9999503464825823e-01  9.9999685374930580e-01  9.9999800639887926e-01  9.9999873676373330e-01  9.9999919955396821e-01  9.9999949279853384e-01  9.9999967861191286e-01  9.9999979635218439e-01  9.9999987095821929e-01  9.9999991823235956e-01  9.9999994818767746e-01  9.9999996716892836e-01  9.9999997919645034e-01  9.9999998681773261e-01  9.9999999164698750e-01  9.9999999470706735e-01  9.9999999664610206e-01  9.9999999787478167e-01  9.9999999865334177e-01  9.9999999914668092e-01  9.9999999945928919e-01  9.9999999965737485e-01  9.9999999978289333e-01  9.9999999986242916e-01  9.9999999991282773e-01  9.9999999994476263e-01  9.9999999996499878e-01  9.9999999997782052e-01  9.9999999998594646e-01  9.9999999999109490e-01  9.9999999999435751e-01  9.9999999999642497e-01  9.9999999999773515e-01  9.9999999999856526e-01  9.9999999999909084e-01  9.9999999999942391e-01  9.9999999999963518e-01  9.9999999999976963e-01  9.9999999999985445e-01  9.9999999999990885e-01  9.9999999999994271e-01  9.9999999999996492e-01  9.9999999999997713e-01  9.9999999999998634e-01  9.9999999999999023e-01  9.9999999999999456e-01  9.9999999999999645e-01  0.0000000000000000e+00  6.5737613747288476e-12  5.7296648555955711e-12  1.4696039131931947e-11  1.1731005913063930e-11  2.5036706774330932e-11  1.9506586716748695e-11  4.0330631135266209e-11  3.0980563806597284e-11  6.4066815847248617e-11  4.8607826254775053e-11  1.0139354366558697e-10  7.5974884368000362e-11  1.6028648639014850e-10  1.1855387288703944e-10  2.5326814335624778e-10  1.8478789779837863e-10  4.0006434286552431e-10  2.8772812573869428e-10  6.3176432566978348e-10  4.4753208789784378e-10  9.9735602421374759e-10  6.9527980920131554e-10  1.5739955030003387e-09  1.0787888725175783e-09  2.4831353493833434e-09  1.6714420310164928e-09  3.9158333992345659e-09  2.5855245740655744e-09  6.1724274353831565e-09  3.9922593381988320e-09  9.7246591066379142e-09  6.1516912630943620e-09  1.5312823034314601e-08  9.4568759536480593e-09  2.4097463685009523e-08  1.4498501599887536e-08  3.7895848833237105e-08  2.2158052232448865e-08  5.9549886711502776e-08  3.3739578910628122e-08  9.3497279857392438e-08  5.1151190798360562e-08  1.4665590682007656e-07  7.7145419475656955e-08  2.2978911437168267e-07  1.1561812990176014e-07  3.5960603238450958e-07  1.7193933395080209e-07  5.6197919458342655e-07  2.5322746027806514e-07  8.7684934931492790e-07  3.6834477354685562e-07  1.3656572248571344e-06  5.2711499313136535e-07  2.1225211727398335e-06  7.3770934566452166e-07  3.2908944543772068e-06  1.0000569396810415e-06  5.0880992014138624e-06  1.2910226376785023e-06  7.8409144519679916e-06  1.5330424219521296e-06  1.2036153140648554e-05  1.5301841095642726e-06  1.8390519787556979e-05  8.4095770909738124e-07  2.7943138614537708e-05  -1.4704872707228288e-06  4.2170217817008399e-05  -7.3154032004148658e-06  6.3111051516253597e-05  -2.0502928488354311e-05  9.3472385974596674e-05  -4.8499066004944082e-05  1.3663670799262125e-04  -1.0576713100841131e-04  1.9643665884581211e-04  -2.2009074922778652e-04  2.7650659151513162e-04  -4.4449639853891466e-04  3.7918199723298372e-04  -8.7957824825998440e-04  5.0514527304564049e-04  -1.7146426255307591e-03  6.6077149077875704e-04  -3.3005197122860110e-03  9.0466025154910961e-04  -6.2634171620620811e-03  1.5724265468259099e-03  -1.1593526279875109e-02  4.3881125474257987e-03  -2.0129172995074929e-02  2.5632146863668263e-02  -2.1196683528210917e-02  1.3928717404866273e-02  2.2247576397261384e-01  4.8360178894916439e-01  6.6560439129730908e-01  7.8799344167923913e-01  8.6595320854152658e-01  9.1525276829054014e-01  9.4640882082339850e-01  9.6610186321596947e-01  9.7855352749171609e-01  9.8642891602605143e-01  9.9141113927245739e-01  9.9456366829405862e-01  9.9655875560035789e-01  9.9782150627966792e-01  9.9862081636415012e-01  9.9912681160834693e-01  9.9944714659001133e-01  9.9964995400684009e-01  9.9977835863130382e-01  9.9985965881753947e-01  9.9991113588497793e-01  9.9994373045790408e-01  9.9996436925115939e-01  9.9997743786156024e-01  9.9998571308034989e-01  9.9999095310815889e-01  9.9999427121963069e-01  9.9999637234033723e-01  9.9999770283511924e-01  9.9999854534901189e-01  9.9999907885874517e-01  9.9999941669691672e-01  9.9999963062901842e-01  9.9999976609924701e-01  9.9999985188443219e-01  9.9999990620710111e-01  9.9999994060644948e-01  9.9999996238953937e-01  9.9999997618349701e-01  9.9999998491840381e-01  9.9999999044971133e-01  9.9999999395236439e-01  9.9999999617038970e-01  9.9999999757493507e-01  9.9999999846435073e-01  9.9999999902756576e-01  9.9999999938421547e-01  9.9999999961006125e-01  9.9999999975307552e-01  9.9999999984363774e-01  9.9999999990098531e-01  9.9999999993730093e-01  9.9999999996029654e-01  9.9999999997485933e-01  9.9999999998408029e-01  9.9999999998991984e-01  9.9999999999361766e-01  9.9999999999595901e-01  9.9999999999744105e-01  9.9999999999838007e-01  9.9999999999897504e-01  9.9999999999935085e-01  9.9999999999958977e-01  9.9999999999974076e-01  9.9999999999983613e-01  9.9999999999989586e-01  9.9999999999993450e-01  9.9999999999995870e-01  9.9999999999997491e-01  9.9999999999998312e-01  9.9999999999999045e-01  9.9999999999999356e-01  9.9999999999999623e-01  0.0000000000000000e+00  -7.1810691934312313e-13  5.6458417754341752e-12  2.1606420510440117e-12  1.1084435260584320e-11  4.6067135117372238e-12  1.8331159469357718e-11  7.4583053321770012e-12  2.9158617863762917e-11  1.1327363660072269e-11  4.5898103497482804e-11  1.6817155539265432e-11  7.2004673238373522e-11  2.4638738562163751e-11  1.1278959053538381e-10  3.5664706639322375e-11  1.7649284337744959e-10  5.0920344728142454e-11  2.7591682321745167e-10  7.1466462797047185e-11  4.3093895955675551e-10  9.8064613917149444e-11  6.7237976316434932e-10  1.3040838407120558e-10  1.0479476816070487e-09  1.6551380861679250e-10  1.6313524887429968e-09  1.9452018390310496e-10  2.5362328940318829e-09  1.9654261448162056e-10  3.9373655933205627e-09  1.2713582652420986e-10  6.1028299793286222e-09  -1.0297940377303152e-10  9.4425563800266304e-09  -6.6662588363001103e-10  1.4581198621208058e-08  -1.8898725956928629e-09  2.2466809789233514e-08  -4.3764976890801394e-09  3.4531667285294703e-08  -9.2287263583764254e-09  5.2928078834935207e-08  -1.8436532179073070e-08  8.0870250234427978e-08  -3.5561047652038275e-08  1.2312303487945133e-07  -6.6929637857250359e-08  1.8668838503593779e-07  -1.2371890667148892e-07  2.8174740814345161e-07  -2.2557531620746041e-07  4.2291323803054979e-07  -4.0689347059746083e-07  6.3082405095273319e-07  -7.2768022865637652e-07  9.3403214575906837e-07  -1.2923190630409313e-06  1.3709829088297360e-06  -2.2819227062481257e-06  1.9915630489782425e-06  -4.0100167208665937e-06  2.8571459704623892e-06  -7.0182004106113270e-06  4.0371974775710587e-06  -1.2240133836136192e-05  5.5993774048710411e-06  -2.1281908314356931e-05  7.5892225001344741e-06  -3.6899736677553303e-05  9.9969734301982952e-06  -6.3809968053177006e-05  1.2719205303432838e-05  -1.1005336449904303e-04  1.5559311628959221e-05  -1.8927022116997538e-04  1.8421153664440776e-05  -3.2443782453481739e-04  2.2159783250281987e-05  -5.5386633588040701e-04  3.1390291815643768e-05  -9.4044667880720809e-04  6.2778149285907584e-05  -1.5849470223686195e-03  1.6818225594803583e-04  -2.6426290294647966e-03  4.9728770319578395e-04  -4.3379903684408290e-03  1.4632926802022144e-03  -6.9687119307543103e-03  4.1673521047944908e-03  -1.1002998196169131e-02  1.1702405058039437e-02  -2.3535385858083874e-02  2.7603213930533343e-03  -1.7357602924052157e-02  1.3628266280323928e-01  4.7867541818299192e-01  6.7235571807731420e-01  7.9371379854032886e-01  8.6993102687458757e-01  9.1788957472360921e-01  9.4812074376666466e-01  9.6720208418110210e-01  9.7925656263872274e-01  9.8687659009792972e-01  9.9169557302931588e-01  9.9474411910403870e-01  9.9667312141031605e-01  9.9789393698247875e-01  9.9866666475267352e-01  9.9915582233583977e-01  9.9946549788880612e-01  9.9966155986601524e-01  9.9978569718944987e-01  9.9986429843578195e-01  9.9991406882399980e-01  9.9994558433750247e-01  9.9996554097191193e-01  9.9997817837975100e-01  9.9998618105264780e-01  9.9999124882790014e-01  9.9999445808057796e-01  9.9999649040954652e-01  9.9999777743464113e-01  9.9999859248122769e-01  9.9999910863588115e-01  9.9999943550878867e-01  9.9999964251309670e-01  9.9999977360655101e-01  9.9999985662671653e-01  9.9999990920265280e-01  9.9999994249857882e-01  9.9999996358465759e-01  9.9999997693833875e-01  9.9999998539515200e-01  9.9999999075080759e-01  9.9999999414252050e-01  9.9999999629047798e-01  9.9999999765077130e-01  9.9999999851224075e-01  9.9999999905780612e-01  9.9999999940331186e-01  9.9999999962211905e-01  9.9999999976068943e-01  9.9999999984844556e-01  9.9999999990402078e-01  9.9999999993921629e-01  9.9999999996150679e-01  9.9999999997562261e-01  9.9999999998456246e