<?xml version="1.0"?>
<VTKFile type="UnstructuredGrid"  version="0.1"  >
<UnstructuredGrid>
<Piece  NumberOfPoints="21400" NumberOfCells="42336">
<Points>
<DataArray  type="Float64"  NumberOfComponents="3"  format="ascii">0 0 0  0.004583333333333333 0 0  0.009166666666666667 0 0  0.01375 0 0  0.01833333333333333 0 0  0.02291666666666667 0 0  0.0275 0 0  0.03208333333333334 0 0  0.03666666666666667 0 0  0.04125 0 0  0.04583333333333334 0 0  0.05041666666666667 0 0  0.055 0 0  0.05958333333333334 0 0  0.06416666666666668 0 0  0.06875000000000001 0 0  0.07333333333333333 0 0  0.07791666666666666 0 0  0.08249999999999999 0 0  0.08708333333333333 0 0  0.09166666666666667 0 0  0.09625000000000002 0 0  0.1008333333333333 0 0  0.1054166666666667 0 0  0.11 0 0  0.1145833333333333 0 0  0.1191666666666667 0 0  0.12375 0 0  0.1283333333333334 0 0  0.1329166666666667 0 0  0.1375 0 0  0.1420833333333333 0 0  0.1466666666666667 0 0  0.15125 0 0  0.1558333333333333 0 0  0.1604166666666667 0 0  0.165 0 0  0.1695833333333333 0 0  0.1741666666666667 0 0  0.17875 0 0  0.1833333333333333 0 0  0.1879166666666667 0 0  0.1925 0 0  0.1970833333333333 0 0  0.2016666666666667 0 0  0.20625 0 0  0.2108333333333333 0 0  0.2154166666666666 0 0  0.22 0 0  0.2245833333333334 0 0  0.2291666666666667 0 0  0.23375 0 0  0.2383333333333333 0 0  0.2429166666666667 0 0  0.2475 0 0  0.2520833333333333 0 0  0.2566666666666667 0 0  0.26125 0 0  0.2658333333333334 0 0  0.2704166666666666 0 0  0.275 0 0  0.2795833333333334 0 0  0.2841666666666667 0 0  0.28875 0 0  0.2933333333333333 0 0  0.2979166666666667 0 0  0.3025 0 0  0.3070833333333334 0 0  0.3116666666666666 0 0  0.31625 0 0  0.3208333333333333 0 0  0.3254166666666667 0 0  0.33 0 0  0.3345833333333333 0 0  0.3391666666666667 0 0  0.34375 0 0  0.3483333333333333 0 0  0.3529166666666667 0 0  0.3575 0 0  0.3620833333333333 0 0  0.3666666666666667 0 0  0.37125 0 0  0.3758333333333334 0 0  0.3804166666666667 0 0  0.3850000000000001 0 0  0.3895833333333333 0 0  0.3941666666666667 0 0  0.39875 0 0  0.4033333333333334 0 0  0.4079166666666666 0 0  0.4125 0 0  0.4170833333333334 0 0  0.4216666666666667 0 0  0.42625 0 0  0.4308333333333333 0 0  0.4354166666666667 0 0  0.44 0 0  0.4445833333333333 0 0  0.4491666666666667 0 0  0.45375 0 0  0.4583333333333333 0 0  0.4629166666666666 0 0  0.4675 0 0  0.4720833333333334 0 0  0.4766666666666667 0 0  0.4812500000000001 0 0  0.4858333333333333 0 0  0.4904166666666667 0 0  0.495 0 0  0.4995833333333334 0 0  0.5041666666666667 0 0  0.50875 0 0  0.5133333333333334 0 0  0.5179166666666667 0 0  0.5225 0 0  0.5270833333333333 0 0  0.5316666666666667 0 0  0.53625 0 0  0.5408333333333333 0 0  0.5454166666666667 0 0  0.55 0 0  0.5545833333333333 0 0  0.5591666666666667 0 0  0.5637500000000001 0 0  0.5683333333333334 0 0  0.5729166666666666 0 0  0.5775 0 0  0.5820833333333334 0 0  0.5866666666666667 0 0  0.5912499999999999 0 0  0.5958333333333334 0 0  0.6004166666666667 0 0  0.605 0 0  0.6095833333333334 0 0  0.6141666666666667 0 0  0.61875 0 0  0.6233333333333333 0 0  0.6279166666666667 0 0  0.6325000000000001 0 0  0.6370833333333333 0 0  0.6416666666666666 0 0  0.64625 0 0  0.6508333333333334 0 0  0.6554166666666666 0 0  0.6599999999999999 0 0  0.6645833333333334 0 0  0.6691666666666667 0 0  0.67375 0 0  0.6783333333333333 0 0  0.6829166666666667 0 0  0.6875 0 0  0.6920833333333333 0 0  0.6966666666666667 0 0  0.70125 0 0  0.7058333333333333 0 0  0.7104166666666667 0 0  0.7150000000000001 0 0  0.7195833333333334 0 0  0.7241666666666666 0 0  0.72875 0 0  0.7333333333333334 0 0  0.7379166666666667 0 0  0.7425 0 0  0.7470833333333333 0 0  0.7516666666666667 0 0  0.75625 0 0  0.7608333333333334 0 0  0.7654166666666666 0 0  0.7700000000000001 0 0  0 0.002380952380952381 0  0.004583333333333333 0.002380952380952381 0  0.009166666666666667 0.002380952380952381 0  0.01375 0.002380952380952381 0  0.01833333333333333 0.002380952380952381 0  0.02291666666666667 0.002380952380952381 0  0.0275 0.002380952380952381 0  0.03208333333333334 0.002380952380952381 0  0.03666666666666667 0.002380952380952381 0  0.04125 0.002380952380952381 0  0.04583333333333334 0.002380952380952381 0  0.05041666666666667 0.002380952380952381 0  0.055 0.002380952380952381 0  0.05958333333333334 0.002380952380952381 0  0.06416666666666668 0.002380952380952381 0  0.06875000000000001 0.002380952380952381 0  0.07333333333333333 0.002380952380952381 0  0.07791666666666666 0.002380952380952381 0  0.08249999999999999 0.002380952380952381 0  0.08708333333333333 0.002380952380952381 0  0.09166666666666667 0.002380952380952381 0  0.09625000000000002 0.002380952380952381 0  0.1008333333333333 0.002380952380952381 0  0.1054166666666667 0.002380952380952381 0  0.11 0.002380952380952381 0  0.1145833333333333 0.002380952380952381 0  0.1191666666666667 0.002380952380952381 0  0.12375 0.002380952380952381 0  0.1283333333333334 0.002380952380952381 0  0.1329166666666667 0.002380952380952381 0  0.1375 0.002380952380952381 0  0.1420833333333333 0.002380952380952381 0  0.1466666666666667 0.002380952380952381 0  0.15125 0.002380952380952381 0  0.1558333333333333 0.002380952380952381 0  0.1604166666666667 0.002380952380952381 0  0.165 0.002380952380952381 0  0.1695833333333333 0.002380952380952381 0  0.1741666666666667 0.002380952380952381 0  0.17875 0.002380952380952381 0  0.1833333333333333 0.002380952380952381 0  0.1879166666666667 0.002380952380952381 0  0.1925 0.002380952380952381 0  0.1970833333333333 0.002380952380952381 0  0.2016666666666667 0.002380952380952381 0  0.20625 0.002380952380952381 0  0.2108333333333333 0.002380952380952381 0  0.2154166666666666 0.002380952380952381 0  0.22 0.002380952380952381 0  0.2245833333333334 0.002380952380952381 0  0.2291666666666667 0.002380952380952381 0  0.23375 0.002380952380952381 0  0.2383333333333333 0.002380952380952381 0  0.2429166666666667 0.002380952380952381 0  0.2475 0.002380952380952381 0  0.2520833333333333 0.002380952380952381 0  0.2566666666666667 0.002380952380952381 0  0.26125 0.002380952380952381 0  0.2658333333333334 0.002380952380952381 0  0.2704166666666666 0.002380952380952381 0  0.275 0.002380952380952381 0  0.2795833333333334 0.002380952380952381 0  0.2841666666666667 0.002380952380952381 0  0.28875 0.002380952380952381 0  0.2933333333333333 0.002380952380952381 0  0.2979166666666667 0.002380952380952381 0  0.3025 0.002380952380952381 0  0.3070833333333334 0.002380952380952381 0  0.3116666666666666 0.002380952380952381 0  0.31625 0.002380952380952381 0  0.3208333333333333 0.002380952380952381 0  0.3254166666666667 0.002380952380952381 0  0.33 0.002380952380952381 0  0.3345833333333333 0.002380952380952381 0  0.3391666666666667 0.002380952380952381 0  0.34375 0.002380952380952381 0  0.3483333333333333 0.002380952380952381 0  0.3529166666666667 0.002380952380952381 0  0.3575 0.002380952380952381 0  0.3620833333333333 0.002380952380952381 0  0.3666666666666667 0.002380952380952381 0  0.37125 0.002380952380952381 0  0.3758333333333334 0.002380952380952381 0  0.3804166666666667 0.002380952380952381 0  0.3850000000000001 0.002380952380952381 0  0.3895833333333333 0.002380952380952381 0  0.3941666666666667 0.002380952380952381 0  0.39875 0.002380952380952381 0  0.4033333333333334 0.002380952380952381 0  0.4079166666666666 0.002380952380952381 0  0.4125 0.002380952380952381 0  0.4170833333333334 0.002380952380952381 0  0.4216666666666667 0.002380952380952381 0  0.42625 0.002380952380952381 0  0.4308333333333333 0.002380952380952381 0  0.4354166666666667 0.002380952380952381 0  0.44 0.002380952380952381 0  0.4445833333333333 0.002380952380952381 0  0.4491666666666667 0.002380952380952381 0  0.45375 0.002380952380952381 0  0.4583333333333333 0.002380952380952381 0  0.4629166666666666 0.002380952380952381 0  0.4675 0.002380952380952381 0  0.4720833333333334 0.002380952380952381 0  0.4766666666666667 0.002380952380952381 0  0.4812500000000001 0.002380952380952381 0  0.4858333333333333 0.002380952380952381 0  0.4904166666666667 0.002380952380952381 0  0.495 0.002380952380952381 0  0.4995833333333334 0.002380952380952381 0  0.5041666666666667 0.002380952380952381 0  0.50875 0.002380952380952381 0  0.5133333333333334 0.002380952380952381 0  0.5179166666666667 0.002380952380952381 0  0.5225 0.002380952380952381 0  0.5270833333333333 0.002380952380952381 0  0.5316666666666667 0.002380952380952381 0  0.53625 0.002380952380952381 0  0.5408333333333333 0.002380952380952381 0  0.5454166666666667 0.002380952380952381 0  0.55 0.002380952380952381 0  0.5545833333333333 0.002380952380952381 0  0.5591666666666667 0.002380952380952381 0  0.5637500000000001 0.002380952380952381 0  0.5683333333333334 0.002380952380952381 0  0.5729166666666666 0.002380952380952381 0  0.5775 0.002380952380952381 0  0.5820833333333334 0.002380952380952381 0  0.5866666666666667 0.002380952380952381 0  0.5912499999999999 0.002380952380952381 0  0.5958333333333334 0.002380952380952381 0  0.6004166666666667 0.002380952380952381 0  0.605 0.002380952380952381 0  0.6095833333333334 0.002380952380952381 0  0.6141666666666667 0.002380952380952381 0  0.61875 0.002380952380952381 0  0.6233333333333333 0.002380952380952381 0  0.6279166666666667 0.002380952380952381 0  0.6325000000000001 0.002380952380952381 0  0.6370833333333333 0.002380952380952381 0  0.6416666666666666 0.002380952380952381 0  0.64625 0.002380952380952381 0  0.6508333333333334 0.002380952380952381 0  0.6554166666666666 0.002380952380952381 0  0.6599999999999999 0.002380952380952381 0  0.6645833333333334 0.002380952380952381 0  0.6691666666666667 0.002380952380952381 0  0.67375 0.002380952380952381 0  0.6783333333333333 0.002380952380952381 0  0.6829166666666667 0.002380952380952381 0  0.6875 0.002380952380952381 0  0.6920833333333333 0.002380952380952381 0  0.6966666666666667 0.002380952380952381 0  0.70125 0.002380952380952381 0  0.7058333333333333 0.002380952380952381 0  0.7104166666666667 0.002380952380952381 0  0.7150000000000001 0.002380952380952381 
[...]
<PointData  Scalars="concentration"> 
<DataArray  type="Float64"  Name="concentration"  format="ascii">0.0000000000000000e+00  1.0700554719349139e-07  2.7866650813544965e-07  3.2556928102448080e-07  5.2827680906313745e-07  5.6221155471326609e-07  8.6623239715262227e-07  9.0846487846097199e-07  1.3908736219323461e-06  1.4538864832401647e-06  2.2277101850230896e-06  2.3253005498614162e-06  3.5697759095538844e-06  3.7220854682841704e-06  5.7259338998616730e-06  5.9643873968296252e-06  9.1944926508463621e-06  9.5688896958345667e-06  1.4781744252627641e-05  1.5371537926719731e-05  2.3795201152292239e-05  2.4727886068380112e-05  3.8360146867657940e-05  3.9841570630031068e-05  6.1940308976919726e-05  6.4305129667583327e-05  1.0019813795850217e-04  1.0399475062758084e-04  1.6242369807683969e-04  1.6855907959051136e-04  2.6392292999302241e-04  2.7391370488381395e-04  4.3003975281327191e-04  4.4645619169916752e-04  7.0299286922794347e-04  7.3026402446194614e-04  1.1536322671810790e-03  1.1995528450655282e-03  1.9019557318139698e-03  1.9806217449090035e-03  3.1536088658713221e-03  3.2914398325283706e-03  5.2665280970100210e-03  5.5154889620409120e-03  8.8771130815155173e-03  9.3465369491477993e-03  1.5152024971440905e-02  1.6095660061118313e-02  2.6332361368887655e-02  2.8433147021876392e-02  4.7060160906194103e-02  5.2743143114553942e-02  8.7889256185781639e-02  1.0283186848166785e-01  3.8833835225405156e-01  5.3697995525155529e-01  8.4238080459809284e-01  9.6463287822040511e-01  9.8497488325780724e-01  9.9621798604632117e-01  1.0003184567726293e+00  1.0016755089057194e+00  1.0018579116282829e+00  1.0016098070833965e+00  1.0012546973391006e+00  1.0009220443885738e+00  1.0006528142759972e+00  1.0004505654271119e+00  1.0003053161698674e+00  1.0002040716085492e+00  1.0001349719555777e+00  1.0000885372313713e+00  1.0000576983518947e+00  1.0000374034212172e+00  1.0000241434063366e+00  1.0000155296470110e+00  1.0000099601999830e+00  1.0000063728414432e+00  1.0000040694086463e+00  1.0000025942112019e+00  1.0000016514772656e+00  1.0000010500989416e+00  1.0000006670507526e+00  1.0000004233756326e+00  1.0000002685266876e+00  1.0000001702122772e+00  1.0000001078389957e+00  1.0000000682929302e+00  1.0000000432333438e+00  1.0000000273608045e+00  1.0000000173111547e+00  1.0000000109503342e+00  1.0000000069254378e+00  1.0000000043792328e+00  1.0000000027687883e+00  1.0000000017503783e+00  1.0000000011064480e+00  1.0000000006993508e+00  1.0000000004420051e+00  1.0000000002793412e+00  1.0000000001765306e+00  1.0000000001115559e+00  1.0000000000704932e+00  1.0000000000445437e+00  1.0000000000281462e+00  1.0000000000177849e+00  1.0000000000112372e+00  1.0000000000071008e+00  1.0000000000044864e+00  1.0000000000028346e+00  1.0000000000017919e+00  1.0000000000011333e+00  1.0000000000007161e+00  1.0000000000004521e+00  1.0000000000002871e+00  1.0000000000001814e+00  1.0000000000001155e+00  1.0000000000000742e+00  1.0000000000000475e+00  1.0000000000000306e+00  1.0000000000000204e+00  1.0000000000000131e+00  1.0000000000000095e+00  1.0000000000000062e+00  1.0000000000000044e+00  1.0000000000000031e+00  1.0000000000000018e+00  1.0000000000000016e+00  1.0000000000000011e+00  1.0000000000000018e+00  1.0000000000000018e+00  1.0000000000000013e+00  1.0000000000000022e+00  1.0000000000000018e+00  1.0000000000000042e+00  1.0000000000000027e+00  1.0000000000000018e+00  1.0000000000000016e+00  1.0000000000000016e+00  1.0000000000000013e+00  1.0000000000000016e+00  1.0000000000000016e+00  1.0000000000000009e+00  1.0000000000000011e+00  1.0000000000000009e+00  1.0000000000000007e+00  1.0000000000000011e+00  1.0000000000000011e+00  1.0000000000000016e+00  1.0000000000000016e+00  1.0000000000000029e+00  1.0000000000000020e+00  1.0000000000000018e+00  1.0000000000000020e+00  1.0000000000000013e+00  1.0000000000000018e+00  1.0000000000000018e+00  1.0000000000000016e+00  1.0000000000000024e+00  1.0000000000000020e+00  1.0000000000000018e+00  1.0000000000000016e+00  1.0000000000000018e+00  1.0000000000000016e+00  1.0000000000000018e+00  1.0000000000000016e+00  1.0000000000000009e+00  1.0000000000000013e+00  1.0000000000000007e+00  0.0000000000000000e+00  1.1859558566495984e-07  1.6019663861945184e-07  3.1796362844890232e-07  3.3982005163923624e-07  5.6376333831488714e-07  5.7771952680171106e-07  9.2331730003485370e-07  9.3477216541079686e-07  1.4832402353404295e-06  1.4942922600350177e-06  2.3720784830946992e-06  2.3824107608719504e-06  3.7911670286578287e-06  3.7976434135954528e-06  6.0614912637103486e-06  6.0562897009591270e-06  9.6977579332118187e-06  9.6643476897670015e-06  1.5527290619153822e-05  1.5432702343149992e-05  2.4881996849479950e-05  2.4662375208928782e-05  3.9909253085861120e-05  3.9443046580952110e-05  6.4076575609325559e-05  6.3134820112662198e-05  1.0299284343717831e-04  1.0114675559052568e-04  1.6574814111386293e-04  1.6219659429886265e-04  2.6710612835420446e-04  2.6035144978370895e-04  4.3110302671244081e-04  4.1833645158378041e-04  6.9697668795679708e-04  6.7290021485846840e-04  1.1289709735747928e-03  1.0835053951244286e-03  1.8326070954416570e-03  1.7463469648728203e-03  2.9817559645783876e-03  2.8167258753040033e-03  4.8636242306704987e-03  4.5438353339527105e-03  7.9525003080279273e-03  7.3211821405797448e-03  1.3023823807243692e-02  1.1743771563943727e-02  2.1285643176551263e-02  1.8591877054435282e-02  3.4125958344806848e-02  2.8732831880639607e-02  4.6653239218824097e-02  -1.0436258794317515e-02  -7.3127948219947808e-02  1.0066297994882178e-01  4.6263724418741270e-01  6.5803685751734498e-01  7.8448022611746293e-01  8.6396011627957481e-01  9.1408230028936055e-01  9.4570758466098059e-01  9.6568007841231884e-01  9.7830099941305848e-01  9.8627938574440288e-01  9.9132403420031090e-01  9.9451402270065237e-01  9.9653126388322810e-01  9.9780687252305611e-01  9.9861346959391761e-01  9.9912346869964952e-01  9.9944591191517440e-01  9.9964976052371546e-01  9.9977862519320249e-01  9.9986008310099084e-01  9.9991157133096642e-01  9.9994411452654364e-01  9.9996468253093418e-01  9.9997768141176113e-01  9.9998589633670820e-01  9.9999108776545553e-01  9.9999436839743761e-01  9.9999644148164446e-01  9.9999775146722270e-01  9.9999857923289193e-01  9.9999910227984123e-01  9.9999943277660996e-01  9.9999964160418631e-01  9.9999977355232605e-01  9.9999985692314819e-01  9.9999990960012397e-01  9.9999994288324057e-01  9.9999996391249601e-01  9.9999997719931533e-01  9.9999998559421355e-01  9.9999999089826552e-01  9.9999999424944463e-01  9.9999999636676307e-01  9.9999999770450465e-01  9.9999999854970145e-01  9.9999999908369963e-01  9.9999999942108309e-01  9.9999999963424269e-01  9.9999999976891663e-01  9.9999999985400367e-01  9.9999999990776123e-01  9.9999999994172517e-01  9.9999999996318356e-01  9.9999999997674049e-01  9.9999999998530498e-01  9.9999999999071632e-01  9.9999999999413547e-01  9.9999999999629652e-01  9.9999999999766020e-01  9.9999999999852285e-01  9.9999999999906730e-01  9.9999999999941136e-01  9.9999999999962919e-01  9.9999999999976641e-01  9.9999999999985278e-01  9.9999999999990852e-01  9.9999999999994182e-01  9.9999999999996414e-01  9.9999999999997835e-01  9.9999999999998712e-01  9.9999999999999334e-01  9.9999999999999623e-01  9.9999999999999811e-01  9.9999999999999889e-01  1.0000000000000000e+00  1.0000000000000009e+00  1.0000000000000007e+00  1.0000000000000011e+00  9.9999999999999956e-01  1.0000000000000002e+00  1.0000000000000011e+00  1.0000000000000011e+00  1.0000000000000009e+00  1.0000000000000013e+00  1.0000000000000016e+00  1.0000000000000018e+00  1.0000000000000020e+00  1.0000000000000018e+00  1.0000000000000016e+00  1.0000000000000018e+00  1.0000000000000016e+00  1.0000000000000018e+00  1.0000000000000011e+00  1.0000000000000020e+00  1.0000000000000009e+00  1.0000000000000013e+00  1.0000000000000018e+00  1.0000000000000016e+00  1.0000000000000020e+00  1.0000000000000013e+00  1.0000000000000011e+00  1.0000000000000018e+00  1.0000000000000011e+00  1.0000000000000016e+00  1.0000000000000013e+00  1.0000000000000013e+00  1.0000000000000009e+00  1.0000000000000011e+00  1.0000000000000004e+00  1.0000000000000004e+00  1.0000000000000009e+00  1.0000000000000007e+00  1.0000000000000011e+00  0.0000000000000000e+00  4.9654487646705118e-08  1.7135139117832799e-07  1.7589785470727638e-07  3.3324631269785119e-07  3.1517070589316855e-07  5.5150563719907545e-07  5.1041705304852211e-07  8.8189941887210786e-07  8.0750522165367702e-07  1.3984554773426750e-06  1.2694439896837278e-06  2.2125178164410943e-06  1.9910169662699740e-06  3.4974742296817128e-06  3.1181454411137250e-06  5.5254916351058877e-06  4.8762242705759580e-06  8.7241553272006745e-06  7.6125275035539535e-06  1.3764391122162558e-05  1.1859446569389797e-05  2.1696680476391079e-05  1.8427471773091565e-05  3.4160954401973967e-05  2.8538785894080441e-05  5.3707398647121789e-05  4.4012352283044361e-05  8.4281097890458463e-05  6.7505028663381617e-05  1.3194179016449807e-04  1.0278992492713443e-04  2.0590506296591139e-04  1.5498823808912651e-04  3.1998453848153897e-04  2.3050709089719395e-04  4.9443510837693340e-04  3.3604130598483304e-04  7.5791236074526647e-04  4.7506075156813349e-04  1.1484296638679850e-03  6.3797644720954235e-04  1.7099065905451963e-03  7.7677414674337595e-04  2.4746578311890285e-03  7.4133056436813144e-04  3.4044432220235914e-03  1.1860654957382115e-04  4.2073418099200822e-03  -2.1886787848803264e-03  3.7352255540332329e-03  -9.0941204555752900e-03  -2.8631175762282432e-03  -3.4643588638455569e-02  -6.0914662760543194e-03  1.6321202357001818e-01  4.6730742982927864e-01  6.8124876875377072e-01  8.0057690749876720e-01  8.7542536785551206e-01  9.2193955407344574e-01  9.5097867278737558e-01  9.6916078372630898e-01  9.8057255409901545e-01  9.8774839087495003e-01  9.9226718757984755e-01  9.9511601895506219e-01  9.9691365073493421e-01  9.9804878115657181e-01  9.9876598217825197e-01  9.9921933740174484e-01  9.9950602007859268e-01  9.9968736254484203e-01  9.9980210095524225e-01  9.9987471321645460e-01  9.9992067396544759e-01  9.9994976956360149e-01  9.9996819084750899e-01  9.9997985507918163e-01  9.9998724140994633e-01  9.9999191910299601e-01  9.9999488161446604e-01  9.9999675794589471e-01  9.9999794638460970e-01  9.9999869914865003e-01  9.9999917596743937e-01  9.9999947800312960e-01  9.9999966932820550e-01  9.9999979052547527e-01  9.9999986730049106e-01  9.9999991593585336e-01  9.9999994674564163e-01  9.9999996626335375e-01  9.9999997862772949e-01  9.9999998646054578e-01  9.9999999142265206e-01  9.9999999456616806e-01  9.9999999655760929e-01  9.9999999781920290e-01  9.9999999861843647e-01  9.9999999912475934e-01  9.9999999944552376e-01  9.9999999964873032e-01  9.9999999977746490e-01  9.9999999985902077e-01  9.9999999991068766e-01  9.9999999994341959e-01  9.9999999996415623e-01  9.9999999997729283e-01  9.9999999998561506e-01  9.9999999999088762e-01  9.9999999999422806e-01  9.9999999999634448e-01  9.9999999999768430e-01  9.9999999999853417e-01  9.9999999999907174e-01  9.9999999999941236e-01  9.9999999999962785e-01  9.9999999999976419e-01  9.9999999999985090e-01  9.9999999999990630e-01  9.9999999999994038e-01  9.9999999999996314e-01  9.9999999999997635e-01  9.9999999999998457e-01  9.9999999999999079e-01  9.9999999999999378e-01  9.9999999999999611e-01  9.9999999999999778e-01  9.9999999999999911e-01  1.0000000000000000e+00  1.0000000000000000e+00  9.9999999999999989e-01  1.0000000000000000e+00  1.0000000000000013e+00  1.0000000000000009e+00  1.0000000000000007e+00  1.0000000000000007e+00  1.0000000000000013e+00  1.0000000000000007e+00  1.0000000000000004e+00  1.0000000000000007e+00  1.0000000000000009e+00  1.0000000000000007e+00  1.0000000000000007e+00  1.0000000000000004e+00  1.0000000000000004e+00  1.0000000000000004e+00  1.0000000000000009e+00  1.0000000000000004e+00  1.0000000000000018e+00  1.0000000000000013e+00  1.0000000000000016e+00  1.0000000000000011e+00  1.0000000000000009e+00  1.0000000000000020e+00  1.0000000000000020e+00  1.0000000000000013e+00  1.0000000000000018e+00  1.0000000000000011e+00  1.0000000000000009e+00  1.0000000000000011e+00  1.0000000000000009e+00  9.9999999999999978e-01  1.0000000000000002e+00  1.0000000000000002e+00  1.0000000000000000e+00  1.0000000000000004e+00  1.0000000000000000e+00  0.0000000000000000e+00  7.7923029391668923e-08  6.6778943764290359e-08  1.7298049768624339e-07  1.3500603506533687e-07  2.9178519799682870e-07  2.2031906999804120e-07  4.6449090123902956e-07  3.4190533762354007e-07  7.2798717919643131e-07  5.2197299700624075e-07  1.1348786859045120e-06  7.9016535047126293e-07  1.7640813961991868e-06  1.1875500822927719e-06  2.7353058561792173e-06  1.7704768416493513e-06  4.2298854917677828e-06  2.6136192505801003e-06  6.5208608742390859e-06  3.8098851354540623e-06  1.0015804545674987e-05  5.4617301114914005e-06  1.5316163756121073e-05  7.6521469540306743e-06  2.3296078972757213e-05  1.0371233347623123e-05  3.5199939611574005e-05  1.3350097911137203e-05  5.2747721971923619e-05  1.5707244564221675e-05  7.8213159384650217e-05  1.5223389891777573e-05  1.1438810585128194e-04  6.8916568451302394e-06  1.6424171341120603e-04  -1.9926364906889551e-05  2.2988294194456734e-04  -8.6989281183501047e-05  3.1008263456432718e-04  -2.3758677872761001e-04  3.9508774486808824e-04  -5.5580814088810324e-04  4.5706642260258981e-04  -1.2005986777359394e-03  4.3617473895957609e-04  -2.4594874694774628e-03  2.3537915851371189e-04  -4.8027169910214362e-03  -1.9134449116234824e-04  -8.7491207057818904e-03  -2.1328895383678054e-04  -1.3230627187759691e-02  1.3257421730745240e-02  -3.4313044742232822e-03  -1.3099126044522071e-02  2.6606373391776827e-01  5.5728461785335348e-01  7.2110460104811636e-01  8.2402783154619907e-01  8.8880900237877569e-01  9.2969920714945653e-01  9.5553462330157291e-01  9.7186774257610620e-01  9.8219756529680657e-01  9.8873252178164717e-01  9.9286766343319088e-01  9.9548473534028681e-01  9.9714127916564466e-01  9.9818995181661341e-01  9.9885387357775524e-01  9.9927423802235293e-01  9.9954040910169761e-01  9.9970895435324658e-01  9.9981568493604633e-01  9.9988327372676067e-01  9.9992607643781295e-01  9.9995318313261616e-01  9.9997034991235711e-01  9.9998122184386029e-01  9.9998810724224974e-01  9.9999246793047925e-01  9.9999522967738808e-01  9.9999697877887095e-01  9.9999808654469136e-01  9.9999878813302168e-01  9.9999923247555789e-01  9.9999951389513853e-01  9.9999969212949769e-01  9.9999980501263686e-01  9.9999987650623012e-01  9.9999992178613195e-01  9.9999995046381462e-01  9.9999996862661267e-01  9.9999998012989100e-01  9.9999998741540896e-01  9.9999999202964140e-01  9.9999999495203051e-01  9.9999999680290674e-01  9.9999999797514505e-01  9.9999999871757450e-01  9.9999999918778437e-01  9.9999999948558971e-01  9.9999999967420328e-01  9.9999999979365961e-01  9.9999999986931598e-01  9.9999999991723254e-01  9.9999999994757982e-01  9.9999999996680056e-01  9.9999999997897382e-01  9.9999999998668354e-01  9.9999999999156686e-01  9.9999999999465894e-01  9.9999999999661771e-01  9.9999999999785794e-01  9.9999999999864486e-01  9.9999999999914246e-01  9.9999999999945866e-01  9.9999999999965750e-01  9.9999999999978373e-01  9.9999999999986311e-01  9.9999999999991440e-01  9.9999999999994538e-01  9.9999999999996558e-01  9.9999999999997868e-01  9.9999999999998568e-01  9.9999999999999123e-01  9.9999999999999445e-01  9.9999999999999656e-01  9.9999999999999756e-01  9.9999999999999800e-01  9.9999999999999867e-01  9.9999999999999845e-01  9.9999999999999811e-01  9.9999999999999878e-01  9.9999999999999956e-01  9.9999999999999978e-01  9.9999999999999967e-01  9.9999999999999989e-01  1.0000000000000004e+00  1.0000000000000007e+00  1.0000000000000004e+00  1.0000000000000016e+00  1.0000000000000013e+00  1.0000000000000013e+00  1.0000000000000018e+00  1.0000000000000016e+00  1.0000000000000020e+00  1.0000000000000009e+00  1.0000000000000009e+00  9.9999999999999989e-01  1.0000000000000004e+00  1.0000000000000007e+00  1.0000000000000016e+00  1.0000000000000011e+00  1.0000000000000002e+00  1.0000000000000009e+00  1.0000000000000013e+00  1.0000000000000007e+00  1.0000000000000013e+00  1.0000000000000011e+00  1.0000000000000013e+00  1.0000000000000007e+00  1.0000000000000013e+00  1.0000000000000002e+00  1.0000000000000002e+00  1.0000000000000004e+00  1.0000000000000002e+00  1.0000000000000002e+00  0.0000000000000000e+00  -6.2645663265130660e-09  7.1377633157129242e-08  3.0187754337810384e-08  1.3763051730952084e-07  5.9310723861866018e-08  2.2336211450070309e-07  9.0125869584830177e-08  3.4804323790177084e-07  1.2684865221372466e-07  5.3557049911239294e-07  1.7035423683520008e-07  8.1947105906031107e-07  2.1703450030523949e-07  1.2486566832038803e-06  2.5475605668290043e-07  1.8948608705062627e-06  2.5434941887864528e-07  2.8627045350970392e-06  1.5329466060814364e-07  4.3032946824727299e-06  -1.7453898759223665e-07  6.4322230978022912e-06  -9.7397790682361992e-07  9.5527004464462967e-06  -2.7073684118251147e-06  1.4084345234540092e-05  -6.2295303834532126e-06  2.0598229038773707e-05  -1.3093325922601189e-05  2.9860713090070742e-05  -2.6075331440655869e-05  4.2897304827508835e-05  -5.0063455966935397e-05  6.1117184474847417e-05  -9.3518516103860652e-05  8.6626787493136300e-05  -1.7079296112045315e-04  1.2310460327921754e-04  -3.0559048290902468e-04  1.7825687999871732e-04  -5.3555539283821406e-04  2.7053596834251227e-04  -9.1678014159513727e-04  4.4691241570617596e-04  -1.5234873840724778e-03  8.2800936957475415e-04  -2.4300557025983198e-03  1.7155905250903186e-03  -3.6544559229346554e-03  3.8102440221484588e-03  -5.1110359606383700e-03  8.9094914738621529e-03  -1.3850021177304566e-02  -1.8016900623010030e-03  -2.8913884634569273e-02  2.6726252859730532e-01  5.6396110895713458e-01  7.2893577190625569e-01  8.3087070781961414e-01  8.9406150200791745e-01  9.3346267771991409e-01  9.5812649667080230e-01  9.7360948705092409e-01  9.8334945148764397e-01  9.8948607965477797e-01  9.9335688908570341e-01  9.9580060449739671e-01  9.9734439035574862e-01  9.9832015565108989e-01  9.9893714344764561e-01  9.9932739417224226e-01  9.9957429274770704e-01  9.9973052813175145e-01  9.9982940830004263e-01  9.9989199681404639e-01  9.9993161778979356e-01  9.9995670153338290e-01  9.9997258295750457e-01  9.9998263862715542e-01  9.9998900588751194e-01  9.9999303779631132e-01  9.9999559098174950e-01  9.9999720781490409e-01  9.9999823171432223e-01  9.9999888013526517e-01  9.9999929077702066e-01  9.9999955083755221e-01  9.9999971553624767e-01  9.9999981984230246e-01  9.9999988590129330e-01  9.9999992773794333e-01  9.9999995423416821e-01  9.9999997101497884e-01  9.9999998164277881e-01  9.9999998837371007e-01  9.9999999263663775e-01  9.9999999533650263e-01  9.9999999704642417e-01  9.9999999812938356e-01  9.9999999881526225e-01  9.9999999924965866e-01  9.9999999952477814e-01  9.9999999969902176e-01  9.9999999980937804e-01  9.9999999987927135e-01  9.9999999992353694e-01  9.9999999995157274e-01  9.9999999996932887e-01  9.9999999998057443e-01  9.9999999998769717e-01  9.9999999999220768e-01  9.9999999999506617e-01  9.9999999999687605e-01  9.9999999999802225e-01  9.9999999999874700e-01  9.9999999999920708e-01  9.9999999999949796e-01  9.9999999999968248e-01  9.9999999999979849e-01  9.9999999999987277e-01  9.9999999999991940e-01  9.9999999999994971e-01  9.9999999999996869e-01  9.9999999999998035e-01  9.9999999999998945e-01  9.9999999999999412e-01  9.9999999999999645e-01  9.9999999999999811e-01  9.9999999999999878e-01  9.9999999999999933e-01  9.9999999999999967e-01  1.0000000000000000e+00  1.0000000000000004e+00  1.0000000000000002e+00  1.0000000000000007e+00  1.0000000000000011e+00  1.0000000000000016e+00  1.0000000000000011e+00  1.0000000000000007e+00  1.0000000000000007e+00  1.0000000000000009e+00  1.0000000000000000e+00  1.0000000000000004e+00  9.9999999999999989e-01  9.9999999999999956e-01  1.0000000000000002e+00  9.9999999999999978e-01  1.0000000000000011e+00  1.0000000000000009e+00  1.0000000000000009e+00  1.0000000