<?xml version="1.0"?>
<VTKFile type="UnstructuredGrid"  version="0.1"  >
<UnstructuredGrid>
<Piece  NumberOfPoints="21400" NumberOfCells="42336">
<Points>
<DataArray  type="Float64"  NumberOfComponents="3"  format="ascii">0 0 0  0.004583333333333333 0 0  0.009166666666666667 0 0  0.01375 0 0  0.01833333333333333 0 0  0.02291666666666667 0 0  0.0275 0 0  0.03208333333333334 0 0  0.03666666666666667 0 0  0.04125 0 0  0.04583333333333334 0 0  0.05041666666666667 0 0  0.055 0 0  0.05958333333333334 0 0  0.06416666666666668 0 0  0.06875000000000001 0 0  0.07333333333333333 0 0  0.07791666666666666 0 0  0.08249999999999999 0 0  0.08708333333333333 0 0  0.09166666666666667 0 0  0.09625000000000002 0 0  0.1008333333333333 0 0  0.1054166666666667 0 0  0.11 0 0  0.1145833333333333 0 0  0.1191666666666667 0 0  0.12375 0 0  0.1283333333333334 0 0  0.1329166666666667 0 0  0.1375 0 0  0.1420833333333333 0 0  0.1466666666666667 0 0  0.15125 0 0  0.1558333333333333 0 0  0.1604166666666667 0 0  0.165 0 0  0.1695833333333333 0 0  0.1741666666666667 0 0  0.17875 0 0  0.1833333333333333 0 0  0.1879166666666667 0 0  0.1925 0 0  0.1970833333333333 0 0  0.2016666666666667 0 0  0.20625 0 0  0.2108333333333333 0 0  0.2154166666666666 0 0  0.22 0 0  0.2245833333333334 0 0  0.2291666666666667 0 0  0.23375 0 0  0.2383333333333333 0 0  0.2429166666666667 0 0  0.2475 0 0  0.2520833333333333 0 0  0.2566666666666667 0 0  0.26125 0 0  0.2658333333333334 0 0  0.2704166666666666 0 0  0.275 0 0  0.2795833333333334 0 0  0.2841666666666667 0 0  0.28875 0 0  0.2933333333333333 0 0  0.2979166666666667 0 0  0.3025 0 0  0.3070833333333334 0 0  0.3116666666666666 0 0  0.31625 0 0  0.3208333333333333 0 0  0.3254166666666667 0 0  0.33 0 0  0.3345833333333333 0 0  0.3391666666666667 0 0  0.34375 0 0  0.3483333333333333 0 0  0.3529166666666667 0 0  0.3575 0 0  0.3620833333333333 0 0  0.3666666666666667 0 0  0.37125 0 0  0.3758333333333334 0 0  0.3804166666666667 0 0  0.3850000000000001 0 0  0.3895833333333333 0 0  0.3941666666666667 0 0  0.39875 0 0  0.4033333333333334 0 0  0.4079166666666666 0 0  0.4125 0 0  0.4170833333333334 0 0  0.4216666666666667 0 0  0.42625 0 0  0.4308333333333333 0 0  0.4354166666666667 0 0  0.44 0 0  0.4445833333333333 0 0  0.4491666666666667 0 0  0.45375 0 0  0.4583333333333333 0 0  0.4629166666666666 0 0  0.4675 0 0  0.4720833333333334 0 0  0.4766666666666667 0 0  0.4812500000000001 0 0  0.4858333333333333 0 0  0.4904166666666667 0 0  0.495 0 0  0.4995833333333334 0 0  0.5041666666666667 0 0  0.50875 0 0  0.5133333333333334 0 0  0.5179166666666667 0 0  0.5225 0 0  0.5270833333333333 0 0  0.5316666666666667 0 0  0.53625 0 0  0.5408333333333333 0 0  0.5454166666666667 0 0  0.55 0 0  0.5545833333333333 0 0  0.5591666666666667 0 0  0.5637500000000001 0 0  0.5683333333333334 0 0  0.5729166666666666 0 0  0.5775 0 0  0.5820833333333334 0 0  0.5866666666666667 0 0  0.5912499999999999 0 0  0.5958333333333334 0 0  0.6004166666666667 0 0  0.605 0 0  0.6095833333333334 0 0  0.6141666666666667 0 0  0.61875 0 0  0.6233333333333333 0 0  0.6279166666666667 0 0  0.6325000000000001 0 0  0.6370833333333333 0 0  0.6416666666666666 0 0  0.64625 0 0  0.6508333333333334 0 0  0.6554166666666666 0 0  0.6599999999999999 0 0  0.6645833333333334 0 0  0.6691666666666667 0 0  0.67375 0 0  0.6783333333333333 0 0  0.6829166666666667 0 0  0.6875 0 0  0.6920833333333333 0 0  0.6966666666666667 0 0  0.70125 0 0  0.7058333333333333 0 0  0.7104166666666667 0 0  0.7150000000000001 0 0  0.7195833333333334 0 0  0.7241666666666666 0 0  0.72875 0 0  0.7333333333333334 0 0  0.7379166666666667 0 0  0.7425 0 0  0.7470833333333333 0 0  0.7516666666666667 0 0  0.75625 0 0  0.7608333333333334 0 0  0.7654166666666666 0 0  0.7700000000000001 0 0  0 0.002380952380952381 0  0.004583333333333333 0.002380952380952381 0  0.009166666666666667 0.002380952380952381 0  0.01375 0.002380952380952381 0  0.01833333333333333 0.002380952380952381 0  0.02291666666666667 0.002380952380952381 0  0.0275 0.002380952380952381 0  0.03208333333333334 0.002380952380952381 0  0.03666666666666667 0.002380952380952381 0  0.04125 0.002380952380952381 0  0.04583333333333334 0.002380952380952381 0  0.05041666666666667 0.002380952380952381 0  0.055 0.002380952380952381 0  0.05958333333333334 0.002380952380952381 0  0.06416666666666668 0.002380952380952381 0  0.06875000000000001 0.002380952380952381 0  0.07333333333333333 0.002380952380952381 0  0.07791666666666666 0.002380952380952381 0  0.08249999999999999 0.002380952380952381 0  0.08708333333333333 0.002380952380952381 0  0.09166666666666667 0.002380952380952381 0  0.09625000000000002 0.002380952380952381 0  0.1008333333333333 0.002380952380952381 0  0.1054166666666667 0.002380952380952381 0  0.11 0.002380952380952381 0  0.1145833333333333 0.002380952380952381 0  0.1191666666666667 0.002380952380952381 0  0.12375 0.002380952380952381 0  0.1283333333333334 0.002380952380952381 0  0.1329166666666667 0.002380952380952381 0  0.1375 0.002380952380952381 0  0.1420833333333333 0.002380952380952381 0  0.1466666666666667 0.002380952380952381 0  0.15125 0.002380952380952381 0  0.1558333333333333 0.002380952380952381 0  0.1604166666666667 0.002380952380952381 0  0.165 0.002380952380952381 0  0.1695833333333333 0.002380952380952381 0  0.1741666666666667 0.002380952380952381 0  0.17875 0.002380952380952381 0  0.1833333333333333 0.002380952380952381 0  0.1879166666666667 0.002380952380952381 0  0.1925 0.002380952380952381 0  0.1970833333333333 0.002380952380952381 0  0.2016666666666667 0.002380952380952381 0  0.20625 0.002380952380952381 0  0.2108333333333333 0.002380952380952381 0  0.2154166666666666 0.002380952380952381 0  0.22 0.002380952380952381 0  0.2245833333333334 0.002380952380952381 0  0.2291666666666667 0.002380952380952381 0  0.23375 0.002380952380952381 0  0.2383333333333333 0.002380952380952381 0  0.2429166666666667 0.002380952380952381 0  0.2475 0.002380952380952381 0  0.2520833333333333 0.002380952380952381 0  0.2566666666666667 0.002380952380952381 0  0.26125 0.002380952380952381 0  0.2658333333333334 0.002380952380952381 0  0.2704166666666666 0.002380952380952381 0  0.275 0.002380952380952381 0  0.2795833333333334 0.002380952380952381 0  0.2841666666666667 0.002380952380952381 0  0.28875 0.002380952380952381 0  0.2933333333333333 0.002380952380952381 0  0.2979166666666667 0.002380952380952381 0  0.3025 0.002380952380952381 0  0.3070833333333334 0.002380952380952381 0  0.3116666666666666 0.002380952380952381 0  0.31625 0.002380952380952381 0  0.3208333333333333 0.002380952380952381 0  0.3254166666666667 0.002380952380952381 0  0.33 0.002380952380952381 0  0.3345833333333333 0.002380952380952381 0  0.3391666666666667 0.002380952380952381 0  0.34375 0.002380952380952381 0  0.3483333333333333 0.002380952380952381 0  0.3529166666666667 0.002380952380952381 0  0.3575 0.002380952380952381 0  0.3620833333333333 0.002380952380952381 0  0.3666666666666667 0.002380952380952381 0  0.37125 0.002380952380952381 0  0.3758333333333334 0.002380952380952381 0  0.3804166666666667 0.002380952380952381 0  0.3850000000000001 0.002380952380952381 0  0.3895833333333333 0.002380952380952381 0  0.3941666666666667 0.002380952380952381 0  0.39875 0.002380952380952381 0  0.4033333333333334 0.002380952380952381 0  0.4079166666666666 0.002380952380952381 0  0.4125 0.002380952380952381 0  0.4170833333333334 0.002380952380952381 0  0.4216666666666667 0.002380952380952381 0  0.42625 0.002380952380952381 0  0.4308333333333333 0.002380952380952381 0  0.4354166666666667 0.002380952380952381 0  0.44 0.002380952380952381 0  0.4445833333333333 0.002380952380952381 0  0.4491666666666667 0.002380952380952381 0  0.45375 0.002380952380952381 0  0.4583333333333333 0.002380952380952381 0  0.4629166666666666 0.002380952380952381 0  0.4675 0.002380952380952381 0  0.4720833333333334 0.002380952380952381 0  0.4766666666666667 0.002380952380952381 0  0.4812500000000001 0.002380952380952381 0  0.4858333333333333 0.002380952380952381 0  0.4904166666666667 0.002380952380952381 0  0.495 0.002380952380952381 0  0.4995833333333334 0.002380952380952381 0  0.5041666666666667 0.002380952380952381 0  0.50875 0.002380952380952381 0  0.5133333333333334 0.002380952380952381 0  0.5179166666666667 0.002380952380952381 0  0.5225 0.002380952380952381 0  0.5270833333333333 0.002380952380952381 0  0.5316666666666667 0.002380952380952381 0  0.53625 0.002380952380952381 0  0.5408333333333333 0.002380952380952381 0  0.5454166666666667 0.002380952380952381 0  0.55 0.002380952380952381 0  0.5545833333333333 0.002380952380952381 0  0.5591666666666667 0.002380952380952381 0  0.5637500000000001 0.002380952380952381 0  0.5683333333333334 0.002380952380952381 0  0.5729166666666666 0.002380952380952381 0  0.5775 0.002380952380952381 0  0.5820833333333334 0.002380952380952381 0  0.5866666666666667 0.002380952380952381 0  0.5912499999999999 0.002380952380952381 0  0.5958333333333334 0.002380952380952381 0  0.6004166666666667 0.002380952380952381 0  0.605 0.002380952380952381 0  0.6095833333333334 0.002380952380952381 0  0.6141666666666667 0.002380952380952381 0  0.61875 0.002380952380952381 0  0.6233333333333333 0.002380952380952381 0  0.6279166666666667 0.002380952380952381 0  0.6325000000000001 0.002380952380952381 0  0.6370833333333333 0.002380952380952381 0  0.6416666666666666 0.002380952380952381 0  0.64625 0.002380952380952381 0  0.6508333333333334 0.002380952380952381 0  0.6554166666666666 0.002380952380952381 0  0.6599999999999999 0.002380952380952381 0  0.6645833333333334 0.002380952380952381 0  0.6691666666666667 0.002380952380952381 0  0.67375 0.002380952380952381 0  0.6783333333333333 0.002380952380952381 0  0.6829166666666667 0.002380952380952381 0  0.6875 0.002380952380952381 0  0.6920833333333333 0.002380952380952381 0  0.6966666666666667 0.002380952380952381 0  0.70125 0.002380952380952381 0  0.7058333333333333 0.002380952380952381 0  0.7104166666666667 0.002380952380952381 0  0.7150000000000001 0.002380952380952381 
[...]
<PointData  Scalars="concentration"> 
<DataArray  type="Float64"  Name="concentration"  format="ascii">0.0000000000000000e+00  1.1226237858150873e-13  2.5521823743419097e-13  3.1853504709601428e-13  4.7979435043084317e-13  5.4236582206590702e-13  7.7983547124234017e-13  8.6743710264466356e-13  1.2403909005724266e-12  1.3740045914197458e-12  1.9667556487170597e-12  2.1736542853600133e-12  3.1178034295062391e-12  3.4388114828191126e-12  4.9434778375465978e-12  5.4414335598174826e-12  7.8399923861276894e-12  8.6120557122997677e-12  1.2436333722130323e-11  1.3632785742687799e-11  1.9731419108177163e-11  2.1584627240815583e-11  3.1312058080153968e-11  3.4181155548107535e-11  4.9699529798377666e-11  5.4139324888532783e-11  7.8900853727190427e-11  8.5768072929924823e-11  1.2528591452370818e-10  1.3590295159559369e-10  1.9898349009196778e-10  2.1539071290991888e-10  3.1610389902366319e-10  3.4144831479257013e-10  5.0227896884422924e-10  5.4141283983342168e-10  7.9830217734556585e-10  8.5870491658886229e-10  1.2691185108113904e-09  1.3623164541980239e-09  2.0181595193064032e-09  2.1619127208448700e-09  3.2102120541204510e-09  3.4318833402990501e-09  5.1079184673115607e-09  5.4496660411229262e-09  8.1300639188751179e-09  8.6568492197741290e-09  1.2944707673342669e-08  1.3756654543832962e-08  2.0618077856314041e-08  2.1869566757477336e-08  3.2852774181944580e-08  3.4781979046849932e-08  5.2369116182785364e-08  5.5343765642482548e-08  8.3516129648425568e-08  8.8104535807934344e-08  1.3325127778997562e-07  1.4033282464255592e-07  2.1271293204292448e-07  2.2365037987930752e-07  3.3974674921806151e-07  3.5665571820417882e-07  5.4296915935701810e-07  5.6914098244135836e-07  8.6831126876949366e-07  9.0887893390613119e-07  1.3895717563413118e-06  1.4525629502607281e-06  2.2254609171360840e-06  2.3234706366959075e-06  3.5671759630842261e-06  3.7200362286037830e-06  5.7231011390776512e-06  5.9621649923254160e-06  9.1914264285023849e-06  9.5664824981940218e-06  1.4778416527430260e-05  1.5368921241163730e-05  2.3791577368586554e-05  2.4725031544351669e-05  3.8356189476801670e-05  3.9838447253414893e-05  6.1935977053652376e-05  6.4301702960532266e-05  1.0019338606796302e-04  1.0399098149953240e-04  1.6241847499819543e-04  1.6855492304453185e-04  2.6391717734226112e-04  2.7390910852441311e-04  4.3003340352954460e-04  4.4645109396421764e-04  7.0298584596165429e-04  7.3025835256237774e-04  1.1536244808264227e-03  1.1995465128130127e-03  1.9019470809549183e-03  1.9806146511513745e-03  3.1535992392144633e-03  3.2914318623391346e-03  5.2665173841496479e-03  5.5154799965096441e-03  8.8771012056648915e-03  9.3465268991395796e-03  1.5152011979178580e-02  1.6095648965562339e-02  2.6332347670549924e-02  2.8433135326206775e-02  4.7060147955595225e-02  5.2743132554328838e-02  8.7889248948069390e-02  1.0283186851628844e-01  3.8833841712691664e-01  5.3698004435702618e-01  8.4238088286312918e-01  9.6463291108048532e-01  9.8497489512330283e-01  9.9621798794936145e-01  1.0003184551106952e+00  1.0016755063572000e+00  1.0018579092526094e+00  1.0016098051967686e+00  1.0012546959562270e+00  1.0009220434222648e+00  1.0006528136216450e+00  1.0004505649935798e+00  1.0003053158871276e+00  1.0002040714262890e+00  1.0001349718391133e+00  1.0000885371574444e+00  1.0000576983052076e+00  1.0000374033918484e+00  1.0000241433879249e+00  1.0000155296354967e+00  1.0000099601927965e+00  1.0000063728369668e+00  1.0000040694058647e+00  1.0000025942094768e+00  1.0000016514761971e+00  1.0000010500982830e+00  1.0000006670503487e+00  1.0000004233753854e+00  1.0000002685265361e+00  1.0000001702121863e+00  1.0000001078389422e+00  1.0000000682928969e+00  1.0000000432333234e+00  1.0000000273607919e+00  1.0000000173111452e+00  1.0000000109503260e+00  1.0000000069254318e+00  1.0000000043792237e+00  1.0000000027687803e+00  1.0000000017503652e+00  1.0000000011064349e+00  1.0000000006993297e+00  1.0000000004419829e+00  1.0000000002793070e+00  1.0000000001764944e+00  1.0000000001114988e+00  1.0000000000704374e+00  1.0000000000444502e+00  1.0000000000280684e+00  1.0000000000175970e+00  1.0000000000112592e+00  1.0000000000060485e+00  1.0000000000082621e+00  0.0000000000000000e+00  1.0484338024823869e-13  1.6476584782046372e-13  2.9600478469434158e-13  3.4600517181363005e-13  5.2583002353731063e-13  5.8397256716429310e-13  8.5698307299912796e-13  9.3831150626418822e-13  1.3674041358989059e-12  1.4891444033408793e-12  2.1703620924350525e-12  2.3561756017419451e-12  3.4407525475601651e-12  3.7256292197307732e-12  5.4539381650811794e-12  5.8908006408173657e-12  8.6459212476291419e-12  9.3152460676287347e-12  1.3708197404263745e-11  1.4732391378664945e-11  2.1738088903110551e-11  2.3303100397475363e-11  3.4477403869215314e-11  3.6865203621759052e-11  5.4691544854592990e-11  5.8328836519279529e-11  8.6771916239669090e-11  9.2302969019780029e-11  1.3769340425898236e-10  1.4608857601991501e-10  2.1853659993732277e-10  2.3125340551666192e-10  3.4690848877805353e-10  3.6612959147431274e-10  5.5079295506846796e-10  5.7977603252870182e-10  8.7467738841225585e-10  9.1826645063076428e-10  1.3893037740745473e-09  1.4546713299077506e-09  2.2071934491869493e-09  2.3049090198242483e-09  3.5073724929148962e-09  3.6529259530307679e-09  5.5747645793204190e-09  5.7907118136384839e-09  8.8629762403137096e-09  9.1819154009148885e-09  1.4094406330983272e-08  1.4563024234316228e-08  2.2419937616683516e-08  2.3104362085900105e-08  3.5673791145429722e-08  3.6666393858366124e-08  5.6780457014783934e-08  5.8207969309720463e-08  9.0404800624128535e-08  9.2436934424078633e-08  1.4399127081807375e-07  1.4684760900293926e-07  2.2942615022353104e-07  2.3337620296518161e-07  3.6569821875391924e-07  3.7104398408570313e-07  5.8316072054985049e-07  5.9018055860806914e-07  9.3036398346843052e-07  9.3917696542946966e-07  1.4850190861750717e-06  1.4952926611461327e-06  2.3716076760908957e-06  2.3819647492575346e-06  3.7896977495085727e-06  3.7965569119527645e-06  6.0595291874092917e-06  6.0548876411570295e-06  9.6955002599166412e-06  9.6627575205327601e-06  1.5524808716775237e-05  1.5430971626185016e-05  2.4879311470605167e-05  2.4660519895589779e-05  3.9906365133632721e-05  3.9441070832784480e-05  6.4073478826527427e-05  6.3132724652183194e-05  1.0298952993017654e-04  1.0114454159180225e-04  1.6574460423542160e-04  1.6219426574175317e-04  2.6710236489973827e-04  2.6034901557517342e-04  4.3109903942685398e-04  4.1833392817070426e-04  6.9697248912110627e-04  6.7289762997164093e-04  1.1289665906590223e-03  1.0835027935398775e-03  1.8326025805322349e-03  1.7463444177693282e-03  2.9817514109517509e-03  2.8167234963492570e-03  4.8636198036950511e-03  4.5438333088226703e-03  7.9524963066787847e-03  7.3211807851106588e-03  1.3023820795279497e-02  1.1743771446590941e-02  2.1285642279379756e-02  1.8591879255904852e-02  3.4125961892476478e-02  2.8732838208434419e-02  4.6653251053909023e-02  -1.0436264648730941e-02  -7.3127969382858024e-02  1.0066304475550761e-01  4.6263734257652861e-01  6.5803695085580038e-01  7.8448030077250852e-01  8.6396017157496729e-01  9.1408233943417583e-01  9.4570761159142702e-01  9.6568009658541010e-01  9.7830101151202653e-01  9.8627939372227924e-01  9.9132403942478375e-01  9.9451402610559092e-01  9.9653126609525167e-01  9.9780687395741874e-01  9.9861347052333338e-01  9.9912346930204732e-01  9.9944591230609503e-01  9.9964976077793999e-01  9.9977862535902318e-01  9.9986008320957120e-01  9.9991157140240428e-01  9.9994411457380861e-01  9.9996468256240678e-01  9.9997768143287080e-01  9.9998589635098112e-01  9.9999108777518730e-01  9.9999436840413292e-01  9.9999644148629430e-01  9.9999775147048364e-01  9.9999857923519908e-01  9.9999910228148814e-01  9.9999943277779779e-01  9.9999964160504917e-01  9.9999977355295744e-01  9.9999985692361382e-01  9.9999990960046914e-01  9.9999994288349503e-01  9.9999996391268686e-01  9.9999997719945410e-01  9.9999998559431713e-01  9.9999999089833680e-01  9.9999999424949704e-01  9.9999999636679182e-01  9.9999999770452230e-01  9.9999999854969746e-01  9.9999999908369086e-01  9.9999999942104489e-01  9.9999999963420716e-01  9.9999999976883114e-01  9.9999999985394739e-01  9.9999999990759081e-01  9.9999999994164268e-01  9.9999999996294042e-01  0.0000000000000000e+00  7.0132181646631586e-14  1.7765786018590539e-13  2.1291296570142226e-13  3.4561691362125734e-13  3.7594596951756547e-13  5.7180773560728613e-13  6.0844696641097371e-13  9.1421858035860778e-13  9.6541516134871340e-13  1.4499462068913490e-12  1.5245080562076216e-12  2.2953034815869896e-12  2.4046292961168220e-12  3.6321671318238489e-12  3.7918806664125039e-12  5.7475649495003953e-12  5.9791631159039180e-12  9.0955284457610015e-12  9.4281004994816765e-12  1.4394706970112815e-11  1.4866466007084677e-11  2.2782807563280751e-11  2.3441694642875137e-11  3.6061100127733008e-11  3.6962847807902874e-11  5.7081582855533566e-11  5.8282005457584546e-11  9.0360084600864535e-11  9.1895394621826761e-11  1.4304718238845935e-10  1.4489077097827223e-10  2.2646578403948135e-10  2.2844033664707157e-10  3.5854611777470217e-10  3.6015303581720276e-10  5.6768188305777968e-10  5.6778036914085731e-10  8.9883691969109995e-10  8.9505353732980182e-10  1.4232155691036699e-09  1.4108758500231688e-09  2.2535757527213633e-09  2.2237956241227513e-09  3.5684758745124523e-09  3.5047865706780930e-09  5.6506645589823685e-09  5.5230924889149656e-09  8.9478561815633458e-09  8.7026068046553483e-09  1.4168933030961034e-08  1.3710510704486382e-08  2.2436199358840744e-08  2.1596552092157609e-08  3.5526296209710778e-08  3.4011757196364173e-08  5.6251309553088355e-08  5.3551613405511109e-08  8.9061465929891906e-08  8.4294067047498503e-08  1.4099789130781543e-07  1.3264199443794251e-07  2.2319806139447001e-07  2.0864069283207023e-07  3.5327320800884162e-07  3.2803486654827254e-07  5.5906010790080556e-07  5.1547375464940858e-07  8.8453672475754834e-07  8.0949290228833258e-07  1.3991398581128797e-06  1.2702334973950913e-06  2.2124219734893184e-06  1.9913570622907500e-06  3.4970687356193392e-06  3.1183442124827907e-06  5.5249712942687296e-06  4.8764169886514020e-06  8.7236073874944068e-06  7.6127829143402360e-06  1.3763862366020680e-05  1.1859809704130778e-05  2.1696204531509632e-05  1.8427981755904682e-05  3.4160563425259063e-05  2.8539483961149800e-05  5.3707128975821206e-05  4.4013286084643266e-05  8.4280993519268442e-05  6.7506255300107214e-05  1.3194190563654650e-04  1.0279151371828133e-04  2.0590546635390044e-04  1.5499027344607406e-04  3.1998531473845720e-04  2.3050967531490095e-04  4.9443636307987054e-04  3.3604456275619892e-04  7.5791422390672719e-04  4.7506482605729947e-04  1.1484322927528220e-03  6.3798150378540437e-04  1.7099101686852531e-03  7.7678035435743546e-04  2.4746625565061973e-03  7.4133805352279830e-04  3.4044492658889015e-03  1.1861529614367493e-04  4.2073491973225836e-03  -2.1886692754516158e-03  3.7352338043268448e-03  -9.0941121003957643e-03  -2.8631106349327950e-03  -3.4643590603768509e-02  -6.0914647145450061e-03  1.6321205617785270e-01  4.6730748950417700e-01  6.8124884501046645e-01  8.0057697322053700e-01  8.7542541789130224e-01  9.2193958996967396e-01  9.5097869768204346e-01  9.6916080062434884e-01  9.8057256540323046e-01  9.8774839835969008e-01  9.9226719249901052e-01  9.9511602217076689e-01  9.9691365282907485e-01  9.9804878251681250e-01  9.9876598306042119e-01  9.9921933797349172e-01  9.9950602044920756e-01  9.9968736278530079e-01  9.9980210111151491e-01  9.9987471331826405e-01  9.9992067403198759e-01  9.9994976960726267e-01  9.9996819087629463e-01  9.9997985509826681e-01  9.9998724142268036e-01  9.9999191911155305e-01  9.9999488162026229e-01  9.9999675794985421e-01  9.9999794638733863e-01  9.9999869915054840e-01  9.9999917596877341e-01  9.9999947800407585e-01  9.9999966932888074e-01  9.9999979052596277e-01  9.9999986730084534e-01  9.9999991593611215e-01  9.9999994674583115e-01  9.9999996626349397e-01  9.9999997862783008e-01  9.9999998646062072e-01  9.9999999142270368e-01  9.9999999456620559e-01  9.9999999655762850e-01  9.9999999781921489e-01  9.9999999861843269e-01  9.9999999912475090e-01  9.9999999944549456e-01  9.9999999964870323e-01  9.9999999977740661e-01  9.9999999985897714e-01  9.9999999991057831e-01  9.9999999994337385e-01  9.9999999996400879e-01  9.9999999997720335e-01  0.0000000000000000e+00  8.2908629390278202e-14  1.0847141004340413e-13  2.0649797089294347e-13  2.1857517057616776e-13  3.5682368554632399e-13  3.6301660714577391e-13  5.7566319805820525e-13  5.7806802221861251e-13  9.1347132943112284e-13  9.1081832958406874e-13  1.4434476496729001e-12  1.4310166174955598e-12  2.2784219718434398e-12  2.2463115877089439e-12  3.5952800883980625e-12  3.5246932299107999e-12  5.6725493220152364e-12  5.5290120576212626e-12  8.9492576559166905e-12  8.6707084967542526e-12  1.4117526804764188e-11  1.3593672783732323e-11  2.2268380347880419e-11  2.1305166214306066e-11  3.5121365561956384e-11  3.3380124776889607e-11  5.5386093817339673e-11  5.2279762516149294e-11  8.7331318863542860e-11  8.1848027094101862e-11  1.3768037603454595e-10  1.2808449846605929e-10  2.1701959377471067e-10  2.0034646253976327e-10  3.4201257031471158e-10  3.1321638314337606e-10  5.3887970058082639e-10  4.8939945676973528e-10  8.4886290550717961e-10  7.6421306912665094e-10  1.3368028766431950e-09  1.1925315699371888e-09  2.1045922242424278e-09  1.8595095463066547e-09  3.3122597350627769e-09  2.8971046780786704e-09  5.2109849917839778e-09  4.5094752607592219e-09  8.1947419167459972e-09  7.0119094608454912e-09  1.2880990148985700e-08  1.0890299772416200e-08  2.0236587511028363e-08  1.6891652690733274e-08  3.1773971151808386e-08  2.6161190347516614e-08  4.9856293491684968e-08  4.0448866986299925e-08  7.8171072814680605e-08  6.2418316683058160e-08  1.2246370600098282e-07  9.6105105827379357e-08  1.9167030368892436e-07  1.4758911405705831e-07  2.9966157980105175e-07  2.2596728357263630e-07  4.6791705381494551e-07  3.4473453526658110e-07  7.2960683765919883e-07  5.2369291196530593e-07  1.1357867082045458e-06  7.9148951279499837e-07  1.7647350272259309e-06  1.1887833733433409e-06  2.7359017822513657e-06  1.7717576093558807e-06  4.2305146046204140e-06  2.6150185255193601e-06  6.5215715242380595e-06  3.8114471801386560e-06  1.0016628310907453e-05  5.4634889199259828e-06  1.5317125822161005e-05  7.6541327911010927e-06  2.3297202061852165e-05  1.0373474973102909e-05  3.5201244988420694e-05  1.3352622637650199e-05  5.2749228793398052e-05  1.5710076794658893e-05  7.8214882653310623e-05  1.5226548040111002e-05  1.1439005268678208e-04  6.8951480376578879e-06  1.6424387692637074e-04  -1.9922553478495142e-05  2.2988529154714907e-04  -8.6985196086242643e-05  3.1008510092924373e-04  -2.3758252212202020e-04  3.9509019719953330e-04  -5.5580390458633141e-04  4.5706863551838828e-04  -1.2005947953480217e-03  4.3617634779530816e-04  -2.4594844936182787e-03  2.3537960983248729e-04  -4.8027157993924064e-03  -1.9134595304322465e-04  -8.7491226036412791e-03  -2.1329301314049437e-04  -1.3230633901509472e-02  1.3257420390149582e-02  -3.4313010532216063e-03  -1.3099102242188132e-02  2.6606383680474166e-01  5.5728469009400450e-01  7.2110465891276254e-01  8.2402787513597675e-01  8.8880903380336163e-01  9.2969922911598901e-01  9.5553463832687502e-01  9.7186775269669967e-01  9.8219757203977454e-01  9.8873252623998886e-01  9.9286766636571977e-01  9.9548473726293996e-01  9.9714128042411465e-01  9.9818995264011201e-01  9.9885387411713145e-01  9.9927423837636409e-01  9.9954040933477717e-01  9.9970895450734198e-01  9.9981568503844720e-01  9.9988327379521880e-01  9.9992607648389709e-01  9.9995318316387671e-01  9.9997034993373812e-01  9.9998122185861349e-01  9.9998810725252274e-01  9.9999246793769880e-01  9.9999522968250909e-01  9.9999697878253579e-01  9.9999808654733713e-01  9.9999878813494647e-01  9.9999923247696820e-01  9.9999951389618169e-01  9.9999969213027184e-01  9.9999980501321517e-01  9.9999987650666433e-01  9.9999992178645969e-01  9.9999995046406109e-01  9.9999996862680096e-01  9.9999998013003077e-01  9.9999998741551432e-01  9.9999999202971546e-01  9.9999999495208669e-01  9.9999999680293994e-01  9.9999999797516681e-01  9.9999999871757639e-01  9.9999999918778171e-01  9.9999999948556118e-01  9.9999999967417530e-01  9.9999999979358911e-01  9.9999999986926469e-01  9.9999999991710031e-01  9.9999999994745692e-01  9.9999999996659295e-01  0.0000000000000000e+00  2.8380115691612281e-14  1.0473891023291904e-13  1.0790573423021068e-13  2.0588689029380508e-13  1.9449353969557553e-13  3.4063977812415532e-13  3.1411645703575726e-13  5.4265431238755855e-13  4.9425211544528618e-13  8.5626359126654701e-13  7.7219387647591355e-13  1.3476075859789338e-12  1.2036309123283694e-12  2.1191256876659386e-12  1.8740326962672576e-12  3.3310502072778058e-12  2.9154472607055586e-12  5.2345898884905469e-12  4.5320754503428240e-12  8.2237083603457872e-12  7.0394932209054331e-12  1.2916110155288667e-11  1.0924841744064846e-11  2.0279932968257742e-11  1.6939070746556938e-11  3.1831856909590640e-11  2.6238017570603595e-11  4.9946694227531024e-11  4.0597653850491502e-11  7.8340838840541224e-11  6.2741578510880267e-11  1.2282659897072728e-10  9.6837709999924618e-11  1.9248813769319447e-10  1.4924885199804332e-10  3.0151285333824158e-10  2.2966212143217456e-10  4.7204041375921992e-10  3.5278013481824136e-10  7.3858957893437043e-10  5.4083871223678096e-10  1.1549273757495065e-09  8.2732916518044416e-10  1.8047122381432460e-09  1.2624555196661029e-09  2.8179571686523016e-09  1.9210529958603840e-09  4.3964482121802063e-09  2.9139290807979043e-09  6.8529078207473530e-09  4.4038349820179542e-09  1.0671194069634061e-08  6.6274554229756156e-09  1.6598589535878713e-08  9.9247384910075613e-09  2.5786860184729385e-08  1.4776193386240797e-08  4.0007118310483937e-08  2.1846697549991185e-08  6.1975821594634756e-08  3.2029393388734883e-08  9.5847160714951668e-08  4.6472615574198912e-08  1.4795287602435503e-07  6.6551269052671574e-08  2.2790707977248139e-07  9.3702154289773985e-08  3.5024440834703696e-07  1.2896319511527947e-07  5.3682851988404225e-07  1.7190855819221861e-07  8.2035774576444411e-07  2.1840064024932927e-07  1.2494064400524753e-06  2.5608986662381859e-07  1.8955696180187239e-06  2.5571713014669216e-07  2.8634098349509532e-06  1.5472370990433852e-07  4.3040076589661760e-06  -1.7303995700890006e-07  6.4329406591843034e-06  -9.7241177483205882e-07  9.5534092607263316e-06  -2.7057477985227127e-06  1.4085022025075762e-05  -6.2278784980610133e-06  2.0598838985385466e-05  -1.3091678959892264e-05  2.9861207020594234e-05  -2.6073742129119448e-05  4.2897615512438895e-05  -5.0061998059304928e-05  6.1117222375105436e-05  -9.3517289436333928e-05  8.6626436764131366e-05  -1.7079209624165298e-04  1.2310371998937785e-04  -3.0559014278426608e-04  1.7825529709101850e-04  -5.3555576586427180e-04  2.7053351735898236e-04  -9.1678141329383685e-04  4.4690898675884281e-04  -1.5234896610287574e-03  8.2800505422749916e-04  -2.4300588366322233e-03  1.7155859314305754e-03  -3.6544591454771651e-03  3.8102409283958987e-03  -5.1110372809365463e-03  8.9094946542977328e-03  -1.3850019453463832e-02  -1.8016964141137910e-03  -2.8913933305149186e-02  2.6726253455567212e-01  5.6396120229637092e-01  7.2893586349562611e-01  8.3087078143987991e-01  8.9406155643567453e-01  9.3346271616827148e-01  9.5812652307910140e-01  9.7360950485251485e-01  9.8334946333069895e-01  9.8948608745907818e-01  9.9335689419263262e-01  9.9580060782194346e-01  9.9734439251175833e-01  9.9832015704548849e-01  9.9893714434782188e-01  9.9932739475274435e-01  9.9957429312190849e-01  9.9973052837302379e-01  9.9982940845573276e-01  9.9989199691465502e-01  9.9993161785493845e-01  9.9995670157567629e-01  9.9997258298505320e-01  9.9998263864517078e-01  9.9998900589934747e-01  9.9999303780412985e-01  9.9999559098694601e-01  9.9999720781838186e-01  9.9999823171666646e-01  9.9999888013685856e-01  9.9999929077811356e-01  9.9999955083830627e-01  9.9999971553677325e-01  9.9999981984267183e-01  9.9999988590155375e-01  9.99999927