<?xml version="1.0"?>
<VTKFile type="UnstructuredGrid"  version="0.1"  >
<UnstructuredGrid>
<Piece  NumberOfPoints="21400" NumberOfCells="42336">
<Points>
<DataArray  type="Float64"  NumberOfComponents="3"  format="ascii">0 0 0  0.004583333333333333 0 0  0.009166666666666667 0 0  0.01375 0 0  0.01833333333333333 0 0  0.02291666666666667 0 0  0.0275 0 0  0.03208333333333334 0 0  0.03666666666666667 0 0  0.04125 0 0  0.04583333333333334 0 0  0.05041666666666667 0 0  0.055 0 0  0.05958333333333334 0 0  0.06416666666666668 0 0  0.06875000000000001 0 0  0.07333333333333333 0 0  0.07791666666666666 0 0  0.08249999999999999 0 0  0.08708333333333333 0 0  0.09166666666666667 0 0  0.09625000000000002 0 0  0.1008333333333333 0 0  0.1054166666666667 0 0  0.11 0 0  0.1145833333333333 0 0  0.1191666666666667 0 0  0.12375 0 0  0.1283333333333334 0 0  0.1329166666666667 0 0  0.1375 0 0  0.1420833333333333 0 0  0.1466666666666667 0 0  0.15125 0 0  0.1558333333333333 0 0  0.1604166666666667 0 0  0.165 0 0  0.1695833333333333 0 0  0.1741666666666667 0 0  0.17875 0 0  0.1833333333333333 0 0  0.1879166666666667 0 0  0.1925 0 0  0.1970833333333333 0 0  0.2016666666666667 0 0  0.20625 0 0  0.2108333333333333 0 0  0.2154166666666666 0 0  0.22 0 0  0.2245833333333334 0 0  0.2291666666666667 0 0  0.23375 0 0  0.2383333333333333 0 0  0.2429166666666667 0 0  0.2475 0 0  0.2520833333333333 0 0  0.2566666666666667 0 0  0.26125 0 0  0.2658333333333334 0 0  0.2704166666666666 0 0  0.275 0 0  0.2795833333333334 0 0  0.2841666666666667 0 0  0.28875 0 0  0.2933333333333333 0 0  0.2979166666666667 0 0  0.3025 0 0  0.3070833333333334 0 0  0.3116666666666666 0 0  0.31625 0 0  0.3208333333333333 0 0  0.3254166666666667 0 0  0.33 0 0  0.3345833333333333 0 0  0.3391666666666667 0 0  0.34375 0 0  0.3483333333333333 0 0  0.3529166666666667 0 0  0.3575 0 0  0.3620833333333333 0 0  0.3666666666666667 0 0  0.37125 0 0  0.3758333333333334 0 0  0.3804166666666667 0 0  0.3850000000000001 0 0  0.3895833333333333 0 0  0.3941666666666667 0 0  0.39875 0 0  0.4033333333333334 0 0  0.4079166666666666 0 0  0.4125 0 0  0.4170833333333334 0 0  0.4216666666666667 0 0  0.42625 0 0  0.4308333333333333 0 0  0.4354166666666667 0 0  0.44 0 0  0.4445833333333333 0 0  0.4491666666666667 0 0  0.45375 0 0  0.4583333333333333 0 0  0.4629166666666666 0 0  0.4675 0 0  0.4720833333333334 0 0  0.4766666666666667 0 0  0.4812500000000001 0 0  0.4858333333333333 0 0  0.4904166666666667 0 0  0.495 0 0  0.4995833333333334 0 0  0.5041666666666667 0 0  0.50875 0 0  0.5133333333333334 0 0  0.5179166666666667 0 0  0.5225 0 0  0.5270833333333333 0 0  0.5316666666666667 0 0  0.53625 0 0  0.5408333333333333 0 0  0.5454166666666667 0 0  0.55 0 0  0.5545833333333333 0 0  0.5591666666666667 0 0  0.5637500000000001 0 0  0.5683333333333334 0 0  0.5729166666666666 0 0  0.5775 0 0  0.5820833333333334 0 0  0.5866666666666667 0 0  0.5912499999999999 0 0  0.5958333333333334 0 0  0.6004166666666667 0 0  0.605 0 0  0.6095833333333334 0 0  0.6141666666666667 0 0  0.61875 0 0  0.6233333333333333 0 0  0.6279166666666667 0 0  0.6325000000000001 0 0  0.6370833333333333 0 0  0.6416666666666666 0 0  0.64625 0 0  0.6508333333333334 0 0  0.6554166666666666 0 0  0.6599999999999999 0 0  0.6645833333333334 0 0  0.6691666666666667 0 0  0.67375 0 0  0.6783333333333333 0 0  0.6829166666666667 0 0  0.6875 0 0  0.6920833333333333 0 0  0.6966666666666667 0 0  0.70125 0 0  0.7058333333333333 0 0  0.7104166666666667 0 0  0.7150000000000001 0 0  0.7195833333333334 0 0  0.7241666666666666 0 0  0.72875 0 0  0.7333333333333334 0 0  0.7379166666666667 0 0  0.7425 0 0  0.7470833333333333 0 0  0.7516666666666667 0 0  0.75625 0 0  0.7608333333333334 0 0  0.7654166666666666 0 0  0.7700000000000001 0 0  0 0.002380952380952381 0  0.004583333333333333 0.002380952380952381 0  0.009166666666666667 0.002380952380952381 0  0.01375 0.002380952380952381 0  0.01833333333333333 0.002380952380952381 0  0.02291666666666667 0.002380952380952381 0  0.0275 0.002380952380952381 0  0.03208333333333334 0.002380952380952381 0  0.03666666666666667 0.002380952380952381 0  0.04125 0.002380952380952381 0  0.04583333333333334 0.002380952380952381 0  0.05041666666666667 0.002380952380952381 0  0.055 0.002380952380952381 0  0.05958333333333334 0.002380952380952381 0  0.06416666666666668 0.002380952380952381 0  0.06875000000000001 0.002380952380952381 0  0.07333333333333333 0.002380952380952381 0  0.07791666666666666 0.002380952380952381 0  0.08249999999999999 0.002380952380952381 0  0.08708333333333333 0.002380952380952381 0  0.09166666666666667 0.002380952380952381 0  0.09625000000000002 0.002380952380952381 0  0.1008333333333333 0.002380952380952381 0  0.1054166666666667 0.002380952380952381 0  0.11 0.002380952380952381 0  0.1145833333333333 0.002380952380952381 0  0.1191666666666667 0.002380952380952381 0  0.12375 0.002380952380952381 0  0.1283333333333334 0.002380952380952381 0  0.1329166666666667 0.002380952380952381 0  0.1375 0.002380952380952381 0  0.1420833333333333 0.002380952380952381 0  0.1466666666666667 0.002380952380952381 0  0.15125 0.002380952380952381 0  0.1558333333333333 0.002380952380952381 0  0.1604166666666667 0.002380952380952381 0  0.165 0.002380952380952381 0  0.1695833333333333 0.002380952380952381 0  0.1741666666666667 0.002380952380952381 0  0.17875 0.002380952380952381 0  0.1833333333333333 0.002380952380952381 0  0.1879166666666667 0.002380952380952381 0  0.1925 0.002380952380952381 0  0.1970833333333333 0.002380952380952381 0  0.2016666666666667 0.002380952380952381 0  0.20625 0.002380952380952381 0  0.2108333333333333 0.002380952380952381 0  0.2154166666666666 0.002380952380952381 0  0.22 0.002380952380952381 0  0.2245833333333334 0.002380952380952381 0  0.2291666666666667 0.002380952380952381 0  0.23375 0.002380952380952381 0  0.2383333333333333 0.002380952380952381 0  0.2429166666666667 0.002380952380952381 0  0.2475 0.002380952380952381 0  0.2520833333333333 0.002380952380952381 0  0.2566666666666667 0.002380952380952381 0  0.26125 0.002380952380952381 0  0.2658333333333334 0.002380952380952381 0  0.2704166666666666 0.002380952380952381 0  0.275 0.002380952380952381 0  0.2795833333333334 0.002380952380952381 0  0.2841666666666667 0.002380952380952381 0  0.28875 0.002380952380952381 0  0.2933333333333333 0.002380952380952381 0  0.2979166666666667 0.002380952380952381 0  0.3025 0.002380952380952381 0  0.3070833333333334 0.002380952380952381 0  0.3116666666666666 0.002380952380952381 0  0.31625 0.002380952380952381 0  0.3208333333333333 0.002380952380952381 0  0.3254166666666667 0.002380952380952381 0  0.33 0.002380952380952381 0  0.3345833333333333 0.002380952380952381 0  0.3391666666666667 0.002380952380952381 0  0.34375 0.002380952380952381 0  0.3483333333333333 0.002380952380952381 0  0.3529166666666667 0.002380952380952381 0  0.3575 0.002380952380952381 0  0.3620833333333333 0.002380952380952381 0  0.3666666666666667 0.002380952380952381 0  0.37125 0.002380952380952381 0  0.3758333333333334 0.002380952380952381 0  0.3804166666666667 0.002380952380952381 0  0.3850000000000001 0.002380952380952381 0  0.3895833333333333 0.002380952380952381 0  0.3941666666666667 0.002380952380952381 0  0.39875 0.002380952380952381 0  0.4033333333333334 0.002380952380952381 0  0.4079166666666666 0.002380952380952381 0  0.4125 0.002380952380952381 0  0.4170833333333334 0.002380952380952381 0  0.4216666666666667 0.002380952380952381 0  0.42625 0.002380952380952381 0  0.4308333333333333 0.002380952380952381 0  0.4354166666666667 0.002380952380952381 0  0.44 0.002380952380952381 0  0.4445833333333333 0.002380952380952381 0  0.4491666666666667 0.002380952380952381 0  0.45375 0.002380952380952381 0  0.4583333333333333 0.002380952380952381 0  0.4629166666666666 0.002380952380952381 0  0.4675 0.002380952380952381 0  0.4720833333333334 0.002380952380952381 0  0.4766666666666667 0.002380952380952381 0  0.4812500000000001 0.002380952380952381 0  0.4858333333333333 0.002380952380952381 0  0.4904166666666667 0.002380952380952381 0  0.495 0.002380952380952381 0  0.4995833333333334 0.002380952380952381 0  0.5041666666666667 0.002380952380952381 0  0.50875 0.002380952380952381 0  0.5133333333333334 0.002380952380952381 0  0.5179166666666667 0.002380952380952381 0  0.5225 0.002380952380952381 0  0.5270833333333333 0.002380952380952381 0  0.5316666666666667 0.002380952380952381 0  0.53625 0.002380952380952381 0  0.5408333333333333 0.002380952380952381 0  0.5454166666666667 0.002380952380952381 0  0.55 0.002380952380952381 0  0.5545833333333333 0.002380952380952381 0  0.5591666666666667 0.002380952380952381 0  0.5637500000000001 0.002380952380952381 0  0.5683333333333334 0.002380952380952381 0  0.5729166666666666 0.002380952380952381 0  0.5775 0.002380952380952381 0  0.5820833333333334 0.002380952380952381 0  0.5866666666666667 0.002380952380952381 0  0.5912499999999999 0.002380952380952381 0  0.5958333333333334 0.002380952380952381 0  0.6004166666666667 0.002380952380952381 0  0.605 0.002380952380952381 0  0.6095833333333334 0.002380952380952381 0  0.6141666666666667 0.002380952380952381 0  0.61875 0.002380952380952381 0  0.6233333333333333 0.002380952380952381 0  0.6279166666666667 0.002380952380952381 0  0.6325000000000001 0.002380952380952381 0  0.6370833333333333 0.002380952380952381 0  0.6416666666666666 0.002380952380952381 0  0.64625 0.002380952380952381 0  0.6508333333333334 0.002380952380952381 0  0.6554166666666666 0.002380952380952381 0  0.6599999999999999 0.002380952380952381 0  0.6645833333333334 0.002380952380952381 0  0.6691666666666667 0.002380952380952381 0  0.67375 0.002380952380952381 0  0.6783333333333333 0.002380952380952381 0  0.6829166666666667 0.002380952380952381 0  0.6875 0.002380952380952381 0  0.6920833333333333 0.002380952380952381 0  0.6966666666666667 0.002380952380952381 0  0.70125 0.002380952380952381 0  0.7058333333333333 0.002380952380952381 0  0.7104166666666667 0.002380952380952381 0  0.7150000000000001 0.002380952380952381 
[...]
<PointData  Scalars="pressure"> 
<DataArray  type="Float64"  Name="pressure"  format="ascii">1.1662102824522253e+04  1.1499672049270695e+04  1.1345852551411188e+04  1.1193234820995624e+04  1.1041267531425123e+04  1.0889621199290321e+04  1.0738176174838649e+04  1.0586864849875416e+04  1.0435647675041080e+04  1.0284499305944186e+04  1.0133402663636523e+04  9.9823457674002257e+03  9.8313199633985023e+03  9.6803188651602431e+03  9.5293376897371909e+03  9.3783728255261194e+03  9.2274215425432430e+03  9.0764817941243018e+03  8.9255520797384161e+03  8.7746313503699384e+03  8.6237189449098478e+03  8.4728145503376109e+03  8.3219181813110245e+03  8.1710301767624387e+03  8.0201512126124007e+03  7.8692823310098775e+03  7.7184249877804223e+03  7.5675811211770533e+03  7.4167532467613701e+03  7.2659445855125168e+03  7.1151592353576962e+03  6.9644024006325308e+03  6.8136807000341714e+03  6.6630025820612364e+03  6.5123788882614235e+03  6.3618236190941207e+03  6.2113549693376835e+03  6.0609967109008976e+03  5.9107798662164942e+03  5.7607451686825316e+03  5.6109395842546865e+03  5.4614381019705397e+03  5.3122258905583985e+03  5.1634912729636080e+03  5.0083720943770250e+03  3.5453946590845185e+03  3.4546491181520091e+03  3.4170403542964468e+03  3.3888915032922250e+03  3.3613067734446809e+03  3.3335330959031007e+03  3.3056752666748230e+03  3.2777255506398910e+03  3.2497052800941365e+03  3.2216305707809984e+03  3.1935144100410207e+03  3.1653665553809928e+03  3.1371942990331700e+03  3.1090030974972265e+03  3.0807970645338160e+03  3.0525793309069286e+03  3.0243523029034973e+03  2.9961178476156574e+03  2.9678774264663630e+03  2.9396321923237856e+03  2.9113830609117254e+03  2.8831307639307483e+03  2.8548758890322392e+03  2.8266189102336980e+03  2.7983602113016059e+03  2.7701001038991994e+03  2.7418388417922774e+03  2.7135766320543889e+03  2.6853136439646619e+03  2.6570500161148348e+03  2.6287858621146161e+03  2.6005212751917002e+03  2.5722563319142796e+03  2.5439910952128821e+03  2.5157256168398794e+03  2.4874599393757635e+03  2.4591940978687453e+03  2.4309281211767498e+03  2.4026620330672818e+03  2.3743958531197709e+03  2.3461295974665691e+03  2.3178632794018704e+03  2.2895969098824175e+03  2.2613304979394256e+03  2.2330640510176199e+03  2.2047975752543653e+03  2.1765310757095381e+03  2.1482645565549115e+03  2.1199980212301575e+03  2.0917314725714250e+03  2.0634649129172963e+03  2.0351983441961252e+03  2.0069317679980302e+03  1.9786651856342448e+03  1.9503985981860487e+03  1.9221320065451077e+03  1.8938654114467420e+03  1.8655988134973447e+03  1.8373322131970110e+03  1.8090656109581748e+03  1.7807990071209972e+03  1.7525324019660475e+03  1.7242657957247659e+03  1.6959991885880906e+03  1.6677325807135794e+03  1.6394659722312836e+03  1.6111993632485930e+03  1.5829327538542468e+03  1.5546661441216361e+03  1.5263995341115408e+03  1.4981329238743949e+03  1.4698663134521728e+03  1.4415997028799466e+03  1.4133330921871959e+03  1.3850664813989085e+03  1.3567998705365108e+03  1.3285332596186686e+03  1.3002666486619778e+03  1.2720000376815919e+03  1.2437334266917812e+03  1.2154668157064646e+03  1.1872002047397343e+03  1.1589335938063807e+03  1.1306669829224484e+03  1.1024003721058305e+03  1.0741337613769485e+03  1.0458671507595211e+03  1.0176005402814544e+03  9.8933392997590158e+02  9.6106731988252443e+02  9.3280071004900617e+02  9.0453410053288201e+02  8.7626749140375978e+02  8.4800088274603365e+02  8.1973427466219698e+02  7.9146766727691204e+02  7.6320106074202579e+02  7.3493445524278309e+02  7.0666785100553693e+02  6.7840124830739114e+02  6.5013464748832155e+02  6.2186804896652268e+02  5.9360145325798180e+02  5.6533486100171035e+02  5.3706827299258930e+02  5.0880169022467271e+02  4.8053511394906928e+02  4.5226854575255896e+02  4.2400198766627068e+02  3.9573544231894999e+02  3.6746891315799411e+02  3.3920240477634394e+02  3.1093592340967291e+02  2.8266947771790046e+02  2.5440308005325988e+02  2.2613674865567683e+02  1.9787051121771461e+02  1.6960441452033027e+02  1.4133851893086336e+02  1.1307309740090857e+02  8.4807248966005844e+01  5.6551537994219764e+01  2.8205951008008853e+01  7.9925960190431433e-01  1.1653820243931825e+04  1.1499721402440500e+04  1.1345668800875554e+04  1.1193182941477608e+04  1.1041233494846130e+04  1.0889600468052697e+04  1.0738162100599795e+04  1.0586854887701003e+04  1.0435640360488025e+04  1.0284493791999810e+04  1.0133398419293586e+04  9.9823424436481473e+03  9.8313173209008783e+03  9.6803167338821368e+03  9.5293359450219850e+03  9.3783713732755878e+03  9.2274203096450492e+03  9.0764807220194507e+03  8.9255511199201592e+03  8.7746304610913612e+03  8.6237180886483748e+03  8.4728136917193951e+03  8.3219172852866650e+03  8.1710292068738763e+03  8.0201501292128623e+03  7.8692810893010401e+03  7.7184235355154733e+03  7.5675793958438753e+03  7.4167511720022512e+03  7.2659420664477666e+03  7.1151561523485061e+03  6.9643986008281718e+03  6.8136759857846064e+03  6.6629966949238824e+03  6.5123714870269932e+03  6.3618142497265808e+03  6.2113430271077787e+03  6.0609813874845322e+03  5.9107602037028646e+03  5.7607193428415694e+03  5.6109100287728743e+03  5.4613881144592569e+03  5.3122060753806099e+03  5.1629960614147976e+03  5.0139697061611923e+03  4.8715204931332037e+03  4.7410079123009828e+03  3.4157143385167660e+03  3.3890691726317332e+03  3.3612912694823017e+03  3.3335481313826976e+03  3.3056846640429699e+03  3.2777333133376096e+03  3.2497111635274819e+03  3.2216350575341007e+03  3.1935178414403745e+03  3.1653692008006142e+03  3.1371963561625289e+03  3.1090047108323442e+03  3.0807983398069646e+03  3.0525803460949483e+03  3.0243531160976777e+03  2.9961185025700520e+03  2.9678779564973565e+03  2.9396326230637865e+03  2.9113834122701860e+03  2.8831310515054274e+03  2.8548761251365545e+03  2.8266191046535137e+03  2.7983603718593035e+03  2.7701002368789109e+03  2.7418389522639309e+03  2.7135767241231283e+03  2.6853137209646134e+03  2.6570500807608792e+03  2.6287859166221633e+03  2.6005213213718407e+03  2.5722563712497936e+03  2.5439911289192664e+03  2.5157256459145674e+03  2.4874599646379465e+03  2.4591941199917028e+03  2.4309281407141680e+03  2.4026620504747143e+03  2.3743958687721870e+03  2.3461296116727090e+03  2.3178632924160129e+03  2.2895969219140320e+03  2.2613305091611064e+03  2.2330640615715947e+03  2.2047975852578511e+03  2.1765310852591579e+03  2.1482645657303110e+03  2.1199980300969969e+03  2.0917314811838364e+03  2.0634649213199100e+03  2.0351983524257398e+03  2.0069317760849874e+03  1.9786651936035626e+03  1.9503986060583557e+03  1.9221320143374151e+03  1.8938654191730743e+03  1.8655988211692695e+03  1.8373322208240636e+03  1.8090656185482198e+03  1.7807990146805168e+03  1.7525324095003882e+03  1.7242658032383324e+03  1.6959991960845157e+03  1.6677325881958552e+03  1.6394659797018762e+03  1.6111993707095319e+03  1.5829327613072016e+03  1.5546661515679784e+03  1.5263995415523968e+03  1.4981329313106860e+03  1.4698663208846497e+03  1.4415997103092177e+03  1.4133330996137506e+03  1.3850664888231338e+03  1.3567998779587085e+03  1.3285332670390635e+03  1.3002666560807295e+03  1.2720000450987961e+03  1.2437334341074768e+03  1.2154668231206347e+03  1.1872002121523046e+03  1.1589336012172180e+03  1.1306669903313516e+03  1.1024003795125288e+03  1.0741337687810869e+03  1.0458671581606486e+03  1.0176005476790050e+03  9.8933393736917390e+02  9.6106732727065389e+02  9.3280071743093094e+02  9.0453410790730038e+02  8.7626749876907820e+02  8.4800089010030183e+02  8.1973428200302590e+02  7.9146767460137232e+02  7.6320106804652107e+02  7.3493446252288538e+02  7.0666785825578290e+02  6.7840125552101506e+02  6.5013465465690979e+02  6.2186805607956148e+02  5.9360146030225440e+02  5.6533486796048385e+02  5.3706827984450399e+02  5.0880169694219188e+02  4.8053512049628551e+02  4.5226855208201823e+02  4.2400199371428010e+02  3.9573544799847133e+02  3.6746891834759901e+02  3.3920240930251811e+02  3.1093592701764595e+02  2.8266948002065311e+02  2.5440308044766701e+02  2.2613674610249461e+02  1.9787050432642994e+02  1.6960439735306198e+02  1.4133850851342814e+02  1.1307288684575512e+02  8.4808461689044819e+01  5.6540124276159752e+01  2.8309264635229347e+01  -4.3494475678292621e-02  1.1650150898442404e+04  1.1498220764470849e+04  1.1345289496896621e+04  1.1192981915098690e+04  1.1041121530739201e+04  1.0889529202189258e+04  1.0738113832446956e+04  1.0586820567878625e+04  1.0435615108265121e+04  1.0284474719746491e+04  1.0133383714896601e+04  9.9823309114169970e+03  9.8313081390141851e+03  9.6803093174053811e+03  9.5293298645319119e+03  9.3783663042768512e+03  9.2274159998172254e+03  9.0764769691623442e+03  8.9255477564957600e+03  8.7746273429018202e+03  8.6237150861085083e+03  8.4728106827080446e+03  8.3219141488626665e+03  8.1710258173075426e+03  8.0201463498594185e+03  7.8692767658502135e+03  7.7184184880989706e+03  7.5675734093652609e+03  7.4167439838568025e+03  7.2659333504968527e+03  7.1151454975642691e+03  6.9643854823780666e+03  6.8136597254265653e+03  6.6629764064279652e+03  6.5123460010647796e+03  6.3617820121356799e+03  6.2113019667150375e+03  6.0609287710824829e+03  5.9106924829920499e+03  5.7606325266235835e+03  5.6108002539922491e+03  5.4612566168698322e+03  5.3120546134737697e+03  5.1632000107806207e+03  5.0159815274092980e+03  4.8665266565011452e+03  3.4512554118606272e+03  3.4172368831066774e+03  3.3888464766361653e+03  3.3613531522417757e+03  3.3335860553525322e+03  3.3057189910077436e+03  3.2777597566081049e+03  3.2497313674908005e+03  3.2216504225404242e+03  3.1935295878559300e+03  3.1653782507757955e+03  3.1372033885665128e+03  3.1090102208460262e+03  3.0808026897500158e+03  3.0525838032119323e+03  3.0243558795506415e+03  2.9961207224292930e+03  2.9678797470826780e+03  2.9396340723650851e+03  2.9113845886579447e+03  2.8831320085618468e+03  2.8548769051741165e+03  2.8266197413081654e+03  2.7983608920242200e+03  2.7701006621629990e+03  2.7418393001037498e+03  2.7135770086391185e+03  2.6853139536264816e+03  2.6570502709089874e+03  2.6287860718791158e+03  2.6005214479695019e+03  2.5722564742906197e+03  2.5439912125861656e+03  2.5157257136401436e+03  2.4874600192414887e+03  2.4591941637904038e+03  2.4309281756136565e+03  2.4026620780429157e+03  2.3743958902996787e+03  2.3461296282221365e+03  2.3178633048625788e+03  2.2895969309787260e+03  2.2613305154379827e+03  2.2330640655502011e+03  2.2047975873416594e+03  2.1765310857807349e+03  2.1482645649638021e+03  2.1199980282684055e+03  2.0917314784794885e+03  2.0634649178934283e+03  2.0351983484037848e+03  2.0069317715719956e+03  1.9786651886856478e+03  1.9503986008065244e+03  1.9221320088102175e+03  1.8938654134187896e+03  1.8655988152277073e+03  1.8373322147280505e+03  1.8090656123248209e+03  1.7807990083520488e+03  1.7525324030852487e+03  1.7242657967516898e+03  1.6959991895388691e+03  1.6677325816015070e+03  1.6394659730673106e+03  1.6111993640417363e+03  1.5829327546119225e+03  1.5546661448499392e+03  1.5263995348154704e+03  1.4981329245580437e+03  1.4698663141188733e+03  1.4415997035324031e+03  1.4133330928275802e+03  1.3850664820289419e+03  1.3567998711575292e+03  1.3285332602316723e+03  1.3002666492676683e+03  1.2720000382803958e+03  1.2437334272838691e+03  1.2154668162917571e+03  1.1872002053178971e+03  1.1589335943768137e+03  1.1306669834842594e+03  1.1024003726578048e+03  1.0741337619175013e+03  1.0458671512866363e+03  1.0176005407926071e+03  9.8933393046796016e+02  9.6106732035162895e+02  9.3280071049041669e+02  9.0453410094078833e+02  8.7626749177105035e+02  8.4800088306400266e+02  8.1973427492018311e+02  7.9146766746184392e+02  7.6320106083785333e+02  7.3493445522975287e+02  7.0666785085927449e+02  6.7840124799771604e+02  6.5013464697771121e+02  6.2186804820809516e+02  5.9360145219281640e+02  5.6533485955523349e+02  5.3706827106963533e+02  5.0880168770260741e+02  4.8053511066805430e+02  4.5226854150148057e+02  4.2400198216196486e+02  3.9573543517478680e+02  3.6746890383511510e+02  3.3920239250573002e+02  3.1093590706352103e+02  2.8266945558896032e+02  2.5440304946374857e+02  2.2613670519964069e+02  1.9787044748127133e+02  1.6960431552293821e+02  1.4133836852427402e+02  1.1307274709535073e+02  8.4807457144246456e+01  5.6544055777225253e+01  2.8285121436903093e+01  5.6319887885776174e-03  1.1647979320428218e+04  1.1496792486140459e+04  1.1344680397256587e+04  1.1192673708562668e+04  1.1040939087438985e+04  1.0889411786996450e+04  1.0738033386702371e+04  1.0586763009380556e+04  1.0435572570682292e+04  1.0284442494595529e+04  1.0133358814818906e+04  9.9823113506635291e+03  9.8312925450172279e+03  9.6802967090230431e+03  9.5293195190407114e+03  9.3783576740867393e+03  9.2274086582198870e+03  9.0764705736180040e+03  8.9255420227920768e+03  8.7746220261580329e+03  8.6237099660869371e+03  8.4728055517520279e+03  8.3219088012730299e+03  8.1710200392408169e+03  8.0201399089543402e+03  7.8692693998008626e+03  7.7184098913042881e+03  7.5675632165881343e+03  7.4167317494962645e+03  7.2659185215692078e+03  7.1151273777360038e+03  6.9643631833040545e+03  6.8136321001208571e+03  6.6629419573804926e+03  6.5123027534999483e+03  6.3617273412123368e+03  6.2112323709271541e+03  6.0608395990498020e+03  5.9105777039497543e+03  5.7604848806994414e+03  5.6106123766919900e+03  5.4610280902412178e+03  5.3118263749870057e+03  5.1632743441314005e+03  5.0158284361365195e+03  4.8727103137157455e+03  4.7404126727146941e+03  3.4149972109838745e+03  3.3890488024110246e+03  3.3614098580071250e+03  3.3336595522123098e+03  3.3057770808912078e+03  3.2778047531317379e+03  3.2497655509434012e+03  3.2216764051023588e+03  3.1935494536139322e+03  3.1653935654489733e+03  3.1372152974383239e+03  3.1090195580521599e+03  3.0808100655388353e+03  3.0525896679939028e+03  3.0243605693182380e+03  2.9961244906302009e+03  2.9678827869951574e+03  2.9396365329028204e+03  2.9113865856376033e+03  2.8831336328239672e+03  2.8548782285047964e+03  2.8266208208087514e+03  2.7983617733737919e+03  2.7701013820818530e+03  2.7418398882335191e+03  2.7135774889919526e+03  2.6853143457122324e+03  2.6570505906191561e+03  2.6287863321851191e+03  2.6005216594778221e+03  2.5722566456866643e+03  2.5439913509908670e+03  2.5157258248976568e+03  2.4874601081521355e+03  2.4591942342998454e+03  2.4309282309669265e+03  2.4026621209100890e+03  2.3743959228786084e+03  2.3461296523225560e+03  2.3178633219750359e+03  2.2895969423311512e+03  2.2613305220421439e+03  2.2330640682398757e+03  2.2047975868040394e+03  2.1765310825822512e+03  2.1482645595713848e+03  2.1199980210669892e+03  2.0917314697864317e+03  2.0634649079703840e+03  2.0351983374664912e+03  2.0069317597983361e+03  1.9786651762222953e+03  1.9503985877744212e+03  1.9221319953090906e+03  1.8938653995308714e+03  1.8655988010208046e+03  1.8373322002580735e+03  1.8090655976378712e+03  1.7807989934861366e+03  1.7525323880717121e+03  1.7242657816163617e+03  1.6959991743030425e+03  1.6677325662827272e+03  1.6394659576800307e+03  1.6111993485978549e+03  1.5829327391212289e+03  1.5546661293204772e+03  1.5263995192538391e+03  1.4981329089696405e+03  1.4698662985081005e+03  1.4415996879028276e+03  1.4133330771820677e+03  1.3850664663697646e+03  1.3567998554864498e+03  1.3285332445500082e+03  1.3002666335763433e+03  1.2720000225799740e+03  1.2437334115745741e+03  1.2154668005734804e+03  1.1872001895901960e+03  1.1589335786388904e+03  1.1306669677349346e+03  1.1024003568954715e+03  1.0741337461400608e+03  1.0458671354914215e+03  1.0176005249762776e+03  9.8933391462637394e+02  9.6106730447968027e+02  9.3280069458183630e+02  9.0453408498789395e+02  8.7626747576443790e+02  8.4800086699216308e+02  8.1973425876902365e+02  7.9146765121409055e+02  7.6320104447229880e+02  7.3493443872030753e+02  7.0666783417375325e+02  6.7840123109628644e+02  6.5013462981087491e+02  6.2186803071404677e+02  5.9360143429393554e+02  5.6533484115336864e+02  5.3706825203966355e+02  5.0880166788349953e+02  4.8053508985024990e+02  4.5226851940870455e+02  4.2400195842447414e+02  3.9573540928908614e+02  3.6746887510173718e+02  3.3920235993038085e+02  3.1093586919505236e+02  2.8266941024393157e+02  2.5440299324181262e+02  2.2613663257031541e+02  1.9787034914009024e+02  1.6960417398900859e+02  1.4133815603372184e+02  1.1307236827122952e+02  8.4806939091368491e+01  5.6542509718121153e+01  2.8277085991398486e+01  -4.2735393690605892e-04  1.1646466024709451e+04  1.1495591167252342e+04  1.1343996868395070e+04  1.1192288883481606e+04  1.1040701665869550e+04  1.0889254935079889e+04  1.0737924340412161e+04  1.0586684240485871e+04  1.0435513989794772e+04  1.0284397921675336e+04  1.0133324267653012e+04  9.9822841517203669e+03  9.8312708276664762e+03  9.6802791301536909e+03  9.5293050841889872e+03  9.3783456266738613e+03  9.2273984067289912e+03  9.0764616419312970e+03  8.9255340150046268e+03  8.7746146005652081e+03  8.6237028149719099e+03  8.4727983847200921e+03  8.3219013305284789e+03  8.1710119655598519e+03  8.0201309072698505e+03  7.8692591033276867e+03  7.7183978730109666e+03  7.5675489665520063e+03  7.4167146462281271e+03  7.2658977946994928e+03  7.1151020584217331e+03  6.9643320372124754e+03  6.8135935357110402e+03  6.6628938993005322e+03  6.5122424673225059e+03  6.3616511923843391e+03  6.2111355010474208e+03  6.0607155178038329e+03  5.9104178651949451e+03  5.7602784950443920e+03  5.6103474220057924e+03  5.4606981398054913e+03  5.3114590561456807e+03  5.1629467418496433e+03  5.0154828373607033e+03  4.8721958967011269e+03  4.7400640079447285e+03  3.4149889048953019e+03  3.3891483833867742e+03  3.3615308959828403e+03  3.3337641380796799e+03  3.3058593916572045e+03  3.2778674895158165e+03  3.2498130381465267e+03  3.2217124690254795e+03  3.1935770474475557e+03  3.1654148658275453e+03  3.1372318862046732e+03  3.1090325848789362e+03  3.0808203716466878e+03  3.0525978749929614e+03  3.0243671416532043e+03  2.9961297792490905e+03  2.9678870599836864e+03  2.9396399971382375e+03  2.9113894022482455e+03  2.8831359283514034e+03  2.8548801030589620e+03  2.8266223540975066e+03  2.7983630292132625e+03  2.7701024118083128e+03  2.7418407333116643e+03  2.7135781830284081e+03  2.6853149160238395e+03  2.6570510594643242e+03  2.6287867177375783e+03  2.6005219766015221e+03  2.5722569065558214e+03  2.5439915655884774e+03  2.5157260014179201e+03  2.4874602533264497e+03  2.4591943536616659e+03  2.4309283290674916e+03  2.4026622014944933e+03  2.3743959890297660e+03  2.3461297065790768e+03  2.3178633664278727e+03  2.2895969787029035e+03  2.2613305517522022e+03  2.2330640924579629e+03  2.2047976064942386e+03  2.1765310985392398e+03  2.1482645724502536e+03  2.1199980314077975e+03  2.0917314780344300e+03  2.0634649144926752e+03  2.0351983425657586e+03  2.0069317637241511e+03  1.9786651791804463e+03  1.9503985899345928e+03  1.9221319968112025e+03  1.8938654004902985e+03  1.8655988015326827e+03  1.8373322004008471e+03  1.8090655974762224e+03  1.7807989930733956e+03  1.7525323874518469e+03  1.7242657808256172e+03  1.6959991733712934e+03  1.6677325652345908e+03  1.6394659565357849e+03  1.6111993473741948e+03  1.5829327378318887e+03  1.5546661279767429e+03  1.5263995178649677e+03  1.4981329075432081e+03  1.4698662970502819e+03  1.4415996864186270e+03  1.4133330756755063e+03  1.3850664648440297e+03  1.3567998539440139e+03  1.3285332429927212e+03  1.3002666320055009e+03  1.2720000209963657e+03  1.2437334099785130e+03  1.2154667989648158e+03  1.1872001879683037e+03  1.1589335770026530e+03  1.1306669660826963e+03  1.1024003552249749e+03  1.0741337444483631e+03  1.0458671337747792e+03  1.0176005232300035e+03  9.8933391284465642e+02  9.6106730265535634e+02  9.3280069270611148e+02  9.0453408304999300e+02  8.7626747375117270e+02  8.4800086488739646e+02  8.1973425655300014e+02  7.9146764886260235e+02  7.6320104195563613e+02  7.3493443600193393e+02  7.0666783120862124e+02  6.7840122782867547e+02  6.5013462617159394e+02  6.2186802661677450e+02  5.9360142963037561e+02  5.6533483578674816e+02  5.3706824579588670e+02  5.0880166053890997e+02  4.8053508111441050e+02  4.5226850889970206e+02  4.2400194