<?xml version="1.0"?>
<VTKFile type="UnstructuredGrid"  version="0.1"  >
<UnstructuredGrid>
<Piece  NumberOfPoints="21400" NumberOfCells="42336">
<Points>
<DataArray  type="Float64"  NumberOfComponents="3"  format="ascii">0 0 0  0.004583333333333333 0 0  0.009166666666666667 0 0  0.01375 0 0  0.01833333333333333 0 0  0.02291666666666667 0 0  0.0275 0 0  0.03208333333333334 0 0  0.03666666666666667 0 0  0.04125 0 0  0.04583333333333334 0 0  0.05041666666666667 0 0  0.055 0 0  0.05958333333333334 0 0  0.06416666666666668 0 0  0.06875000000000001 0 0  0.07333333333333333 0 0  0.07791666666666666 0 0  0.08249999999999999 0 0  0.08708333333333333 0 0  0.09166666666666667 0 0  0.09625000000000002 0 0  0.1008333333333333 0 0  0.1054166666666667 0 0  0.11 0 0  0.1145833333333333 0 0  0.1191666666666667 0 0  0.12375 0 0  0.1283333333333334 0 0  0.1329166666666667 0 0  0.1375 0 0  0.1420833333333333 0 0  0.1466666666666667 0 0  0.15125 0 0  0.1558333333333333 0 0  0.1604166666666667 0 0  0.165 0 0  0.1695833333333333 0 0  0.1741666666666667 0 0  0.17875 0 0  0.1833333333333333 0 0  0.1879166666666667 0 0  0.1925 0 0  0.1970833333333333 0 0  0.2016666666666667 0 0  0.20625 0 0  0.2108333333333333 0 0  0.2154166666666666 0 0  0.22 0 0  0.2245833333333334 0 0  0.2291666666666667 0 0  0.23375 0 0  0.2383333333333333 0 0  0.2429166666666667 0 0  0.2475 0 0  0.2520833333333333 0 0  0.2566666666666667 0 0  0.26125 0 0  0.2658333333333334 0 0  0.2704166666666666 0 0  0.275 0 0  0.2795833333333334 0 0  0.2841666666666667 0 0  0.28875 0 0  0.2933333333333333 0 0  0.2979166666666667 0 0  0.3025 0 0  0.3070833333333334 0 0  0.3116666666666666 0 0  0.31625 0 0  0.3208333333333333 0 0  0.3254166666666667 0 0  0.33 0 0  0.3345833333333333 0 0  0.3391666666666667 0 0  0.34375 0 0  0.3483333333333333 0 0  0.3529166666666667 0 0  0.3575 0 0  0.3620833333333333 0 0  0.3666666666666667 0 0  0.37125 0 0  0.3758333333333334 0 0  0.3804166666666667 0 0  0.3850000000000001 0 0  0.3895833333333333 0 0  0.3941666666666667 0 0  0.39875 0 0  0.4033333333333334 0 0  0.4079166666666666 0 0  0.4125 0 0  0.4170833333333334 0 0  0.4216666666666667 0 0  0.42625 0 0  0.4308333333333333 0 0  0.4354166666666667 0 0  0.44 0 0  0.4445833333333333 0 0  0.4491666666666667 0 0  0.45375 0 0  0.4583333333333333 0 0  0.4629166666666666 0 0  0.4675 0 0  0.4720833333333334 0 0  0.4766666666666667 0 0  0.4812500000000001 0 0  0.4858333333333333 0 0  0.4904166666666667 0 0  0.495 0 0  0.4995833333333334 0 0  0.5041666666666667 0 0  0.50875 0 0  0.5133333333333334 0 0  0.5179166666666667 0 0  0.5225 0 0  0.5270833333333333 0 0  0.5316666666666667 0 0  0.53625 0 0  0.5408333333333333 0 0  0.5454166666666667 0 0  0.55 0 0  0.5545833333333333 0 0  0.5591666666666667 0 0  0.5637500000000001 0 0  0.5683333333333334 0 0  0.5729166666666666 0 0  0.5775 0 0  0.5820833333333334 0 0  0.5866666666666667 0 0  0.5912499999999999 0 0  0.5958333333333334 0 0  0.6004166666666667 0 0  0.605 0 0  0.6095833333333334 0 0  0.6141666666666667 0 0  0.61875 0 0  0.6233333333333333 0 0  0.6279166666666667 0 0  0.6325000000000001 0 0  0.6370833333333333 0 0  0.6416666666666666 0 0  0.64625 0 0  0.6508333333333334 0 0  0.6554166666666666 0 0  0.6599999999999999 0 0  0.6645833333333334 0 0  0.6691666666666667 0 0  0.67375 0 0  0.6783333333333333 0 0  0.6829166666666667 0 0  0.6875 0 0  0.6920833333333333 0 0  0.6966666666666667 0 0  0.70125 0 0  0.7058333333333333 0 0  0.7104166666666667 0 0  0.7150000000000001 0 0  0.7195833333333334 0 0  0.7241666666666666 0 0  0.72875 0 0  0.7333333333333334 0 0  0.7379166666666667 0 0  0.7425 0 0  0.7470833333333333 0 0  0.7516666666666667 0 0  0.75625 0 0  0.7608333333333334 0 0  0.7654166666666666 0 0  0.7700000000000001 0 0  0 0.002380952380952381 0  0.004583333333333333 0.002380952380952381 0  0.009166666666666667 0.002380952380952381 0  0.01375 0.002380952380952381 0  0.01833333333333333 0.002380952380952381 0  0.02291666666666667 0.002380952380952381 0  0.0275 0.002380952380952381 0  0.03208333333333334 0.002380952380952381 0  0.03666666666666667 0.002380952380952381 0  0.04125 0.002380952380952381 0  0.04583333333333334 0.002380952380952381 0  0.05041666666666667 0.002380952380952381 0  0.055 0.002380952380952381 0  0.05958333333333334 0.002380952380952381 0  0.06416666666666668 0.002380952380952381 0  0.06875000000000001 0.002380952380952381 0  0.07333333333333333 0.002380952380952381 0  0.07791666666666666 0.002380952380952381 0  0.08249999999999999 0.002380952380952381 0  0.08708333333333333 0.002380952380952381 0  0.09166666666666667 0.002380952380952381 0  0.09625000000000002 0.002380952380952381 0  0.1008333333333333 0.002380952380952381 0  0.1054166666666667 0.002380952380952381 0  0.11 0.002380952380952381 0  0.1145833333333333 0.002380952380952381 0  0.1191666666666667 0.002380952380952381 0  0.12375 0.002380952380952381 0  0.1283333333333334 0.002380952380952381 0  0.1329166666666667 0.002380952380952381 0  0.1375 0.002380952380952381 0  0.1420833333333333 0.002380952380952381 0  0.1466666666666667 0.002380952380952381 0  0.15125 0.002380952380952381 0  0.1558333333333333 0.002380952380952381 0  0.1604166666666667 0.002380952380952381 0  0.165 0.002380952380952381 0  0.1695833333333333 0.002380952380952381 0  0.1741666666666667 0.002380952380952381 0  0.17875 0.002380952380952381 0  0.1833333333333333 0.002380952380952381 0  0.1879166666666667 0.002380952380952381 0  0.1925 0.002380952380952381 0  0.1970833333333333 0.002380952380952381 0  0.2016666666666667 0.002380952380952381 0  0.20625 0.002380952380952381 0  0.2108333333333333 0.002380952380952381 0  0.2154166666666666 0.002380952380952381 0  0.22 0.002380952380952381 0  0.2245833333333334 0.002380952380952381 0  0.2291666666666667 0.002380952380952381 0  0.23375 0.002380952380952381 0  0.2383333333333333 0.002380952380952381 0  0.2429166666666667 0.002380952380952381 0  0.2475 0.002380952380952381 0  0.2520833333333333 0.002380952380952381 0  0.2566666666666667 0.002380952380952381 0  0.26125 0.002380952380952381 0  0.2658333333333334 0.002380952380952381 0  0.2704166666666666 0.002380952380952381 0  0.275 0.002380952380952381 0  0.2795833333333334 0.002380952380952381 0  0.2841666666666667 0.002380952380952381 0  0.28875 0.002380952380952381 0  0.2933333333333333 0.002380952380952381 0  0.2979166666666667 0.002380952380952381 0  0.3025 0.002380952380952381 0  0.3070833333333334 0.002380952380952381 0  0.3116666666666666 0.002380952380952381 0  0.31625 0.002380952380952381 0  0.3208333333333333 0.002380952380952381 0  0.3254166666666667 0.002380952380952381 0  0.33 0.002380952380952381 0  0.3345833333333333 0.002380952380952381 0  0.3391666666666667 0.002380952380952381 0  0.34375 0.002380952380952381 0  0.3483333333333333 0.002380952380952381 0  0.3529166666666667 0.002380952380952381 0  0.3575 0.002380952380952381 0  0.3620833333333333 0.002380952380952381 0  0.3666666666666667 0.002380952380952381 0  0.37125 0.002380952380952381 0  0.3758333333333334 0.002380952380952381 0  0.3804166666666667 0.002380952380952381 0  0.3850000000000001 0.002380952380952381 0  0.3895833333333333 0.002380952380952381 0  0.3941666666666667 0.002380952380952381 0  0.39875 0.002380952380952381 0  0.4033333333333334 0.002380952380952381 0  0.4079166666666666 0.002380952380952381 0  0.4125 0.002380952380952381 0  0.4170833333333334 0.002380952380952381 0  0.4216666666666667 0.002380952380952381 0  0.42625 0.002380952380952381 0  0.4308333333333333 0.002380952380952381 0  0.4354166666666667 0.002380952380952381 0  0.44 0.002380952380952381 0  0.4445833333333333 0.002380952380952381 0  0.4491666666666667 0.002380952380952381 0  0.45375 0.002380952380952381 0  0.4583333333333333 0.002380952380952381 0  0.4629166666666666 0.002380952380952381 0  0.4675 0.002380952380952381 0  0.4720833333333334 0.002380952380952381 0  0.4766666666666667 0.002380952380952381 0  0.4812500000000001 0.002380952380952381 0  0.4858333333333333 0.002380952380952381 0  0.4904166666666667 0.002380952380952381 0  0.495 0.002380952380952381 0  0.4995833333333334 0.002380952380952381 0  0.5041666666666667 0.002380952380952381 0  0.50875 0.002380952380952381 0  0.5133333333333334 0.002380952380952381 0  0.5179166666666667 0.002380952380952381 0  0.5225 0.002380952380952381 0  0.5270833333333333 0.002380952380952381 0  0.5316666666666667 0.002380952380952381 0  0.53625 0.002380952380952381 0  0.5408333333333333 0.002380952380952381 0  0.5454166666666667 0.002380952380952381 0  0.55 0.002380952380952381 0  0.5545833333333333 0.002380952380952381 0  0.5591666666666667 0.002380952380952381 0  0.5637500000000001 0.002380952380952381 0  0.5683333333333334 0.002380952380952381 0  0.5729166666666666 0.002380952380952381 0  0.5775 0.002380952380952381 0  0.5820833333333334 0.002380952380952381 0  0.5866666666666667 0.002380952380952381 0  0.5912499999999999 0.002380952380952381 0  0.5958333333333334 0.002380952380952381 0  0.6004166666666667 0.002380952380952381 0  0.605 0.002380952380952381 0  0.6095833333333334 0.002380952380952381 0  0.6141666666666667 0.002380952380952381 0  0.61875 0.002380952380952381 0  0.6233333333333333 0.002380952380952381 0  0.6279166666666667 0.002380952380952381 0  0.6325000000000001 0.002380952380952381 0  0.6370833333333333 0.002380952380952381 0  0.6416666666666666 0.002380952380952381 0  0.64625 0.002380952380952381 0  0.6508333333333334 0.002380952380952381 0  0.6554166666666666 0.002380952380952381 0  0.6599999999999999 0.002380952380952381 0  0.6645833333333334 0.002380952380952381 0  0.6691666666666667 0.002380952380952381 0  0.67375 0.002380952380952381 0  0.6783333333333333 0.002380952380952381 0  0.6829166666666667 0.002380952380952381 0  0.6875 0.002380952380952381 0  0.6920833333333333 0.002380952380952381 0  0.6966666666666667 0.002380952380952381 0  0.70125 0.002380952380952381 0  0.7058333333333333 0.002380952380952381 0  0.7104166666666667 0.002380952380952381 0  0.7150000000000001 0.002380952380952381 
[...]
<PointData  Scalars="pressure"> 
<DataArray  type="Float64"  Name="pressure"  format="ascii">1.1167430944568425e+04  1.1005000152431179e+04  1.0851180600628251e+04  1.0698562776836148e+04  1.0546595350973743e+04  1.0394948834576438e+04  1.0243503571061674e+04  1.0092191943376860e+04  9.9409743909511380e+03  9.7898255554172774e+03  9.6387283405755661e+03  9.4876707445517877e+03  9.3366440876791821e+03  9.1856419520486525e+03  9.0346595165348645e+03  8.8836931232537991e+03  8.7327399861958311e+03  8.5817979909573769e+03  8.4308655552008422e+03  8.2799415312300753e+03  8.1290251390455551e+03  7.9781159225707870e+03  7.8272137245603799e+03  7.6763186776517878e+03  7.5254312104782848e+03  7.3745520689377990e+03  7.2236823537168339e+03  7.0728235759814479e+03  6.9219777335145554e+03  6.7711474087046554e+03  6.6203358855327006e+03  6.4695472695786075e+03  6.3187865569534324e+03  6.1680594772295754e+03  6.0173718242549994e+03  5.8667255160024524e+03  5.7161146509038390e+03  5.5654450990382466e+03  5.4149610383125073e+03  5.2574754391345068e+03  3.7238141734548908e+03  3.6243326570819972e+03  3.5680817710544302e+03  3.5301508052603017e+03  3.5031832571837813e+03  3.4756243940584523e+03  3.4476764812774195e+03  3.4196254659016049e+03  3.3915071041112460e+03  3.3633482467981721e+03  3.3351620822694795e+03  3.3069568066924307e+03  3.2787376917035340e+03  3.2505083079279730e+03  3.2222711558037386e+03  3.1940280352712007e+03  3.1657802712336670e+03  3.1375288571883057e+03  3.1092745497809451e+03  3.0810179328430868e+03  3.0527594618365347e+03  3.0244994953750033e+03  2.9962383180153279e+03  2.9679761570227424e+03  2.9397131948948340e+03  2.9114495788463510e+03  2.8831854280802672e+03  2.8549208394217749e+03  2.8266558917249122e+03  2.7983906493473655e+03  2.7701251649098431e+03  2.7418594815005567e+03  2.7135936344454835e+03  2.6853276527361718e+03  2.6570615601855779e+03  2.6287953763666469e+03  2.6005291173764917e+03  2.5722627964598842e+03  2.5439964245189344e+03  2.5157300105303302e+03  2.4874635618873381e+03  2.4591970846804479e+03  2.4309305839278313e+03  2.4026640637647579e+03  2.3743975275993498e+03  2.3461309782407275e+03  2.3178644180044798e+03  2.2895978487995012e+03  2.2613312721995185e+03  2.2330646895019922e+03  2.2047981017766592e+03  2.1765315099055333e+03  2.1482649146158656e+03  2.1199983165073131e+03  2.0917317160743378e+03  2.0634651137246660e+03  2.0351985097945135e+03  2.0069319045611296e+03  1.9786652982531441e+03  1.9503986910591041e+03  1.9221320831345029e+03  1.8938654746075845e+03  1.8655988655841236e+03  1.8373322561513789e+03  1.8090656463813411e+03  1.7807990363334211e+03  1.7525324260566665e+03  1.7242658155915897e+03  1.6959992049716793e+03  1.6677325942246482e+03  1.6394659833734711e+03  1.6111993724372342e+03  1.5829327614318549e+03  1.5546661503706734e+03  1.5263995392649435e+03  1.4981329281242597e+03  1.4698663169569163e+03  1.4415997057702100e+03  1.4133330945707153e+03  1.3850664833645299e+03  1.3567998721575038e+03  1.3285332609554569e+03  1.3002666497643902e+03  1.2720000385907213e+03  1.2437334274415150e+03  1.2154668163247507e+03  1.1872002052496182e+03  1.1589335942268692e+03  1.1306669832692139e+03  1.1024003723917992e+03  1.0741337616127801e+03  1.0458671509540059e+03  1.0176005404418418e+03  9.8933393010816940e+02  9.6106731999160309e+02  9.3280071013896134e+02  9.0453410060706608e+02  8.7626749146493762e+02  8.4800088279648617e+02  8.1973427470380454e+02  7.9146766731122500e+02  7.6320106077032347e+02  7.3493445526611958e+02  7.0666785102478229e+02  6.7840124832326285e+02  6.5013464750141043e+02  6.2186804897731633e+02  5.9360145326688291e+02  5.6533486100904997e+02  5.3706827299864153e+02  5.0880169022966265e+02  4.8053511395318304e+02  4.5226854575594939e+02  4.2400198766906425e+02  3.9573544232125067e+02  3.6746891315988773e+02  3.3920240477790105e+02  3.1093592341095126e+02  2.8266947771894752e+02  2.5440308005411461e+02  2.2613674865637114e+02  1.9787051121827463e+02  1.6960441452077649e+02  1.4133851893121232e+02  1.1307309740117326e+02  8.4807248966196227e+01  5.6551537994342929e+01  2.8205951008069150e+01  7.9925960190604295e-01  1.1159148368632181e+04  1.1005049510347990e+04  1.0850996855082734e+04  1.0698510902746506e+04  1.0546561320462386e+04  1.0394928110270952e+04  1.0243489504876568e+04  1.0092181990676328e+04  9.9409670876430428e+03  9.7898200549051289e+03  9.6387241123488075e+03  9.4876674401950695e+03  9.3366414685714481e+03  9.1856398490162483e+03  9.0346578059592466e+03  8.8836917122885498e+03  8.7327388032384042e+03  8.5817969792694348e+03  8.4308646684704963e+03  8.2799407303552343e+03  8.1290243896894481e+03  7.9781151931963741e+03  7.8272129847409014e+03  7.6763178965069828e+03  7.5254303551159546e+03  7.3745511027994717e+03  7.2236812347471723e+03  7.0728222545863100e+03  6.9219761503918980e+03  6.7711454929540550e+03  6.6203335543469539e+03  6.4695444328040576e+03  6.3187831345097620e+03  6.1680554865882168e+03  6.0173673632212976e+03  5.8667226017202793e+03  5.7161113015079045e+03  5.5655206310694984e+03  5.4144855297112945e+03  5.2634335338325345e+03  5.1168296838898168e+03  4.9789096026486986e+03  4.8927646273494684e+03  3.5293425662062191e+03  3.5034194313800781e+03  3.4756276923501669e+03  3.4476907632965290e+03  3.4196318214067624e+03  3.3915113919393261e+03  3.3633511117544604e+03  3.3351641060641546e+03  3.3069582776633310e+03  3.2787387872861768e+03  3.2505091396436819e+03  3.2222717971535931e+03  3.1940285362597992e+03  3.1657806668384537e+03  3.1375291724555254e+03  3.1092748030127091e+03  3.0810181376507044e+03  3.0527596284987862e+03  3.0244996317578002e+03  2.9962384302076630e+03  2.9679762497849788e+03  2.9397132719803271e+03  2.9114496432359897e+03  2.8831854821560637e+03  2.8549208850971158e+03  2.8266559305435167e+03  2.7983906825593003e+03  2.7701251935305158e+03  2.7418595063568887e+03  2.7135936562123529e+03  2.6853276719653504e+03  2.6570615773288564e+03  2.6287953917944133e+03  2.6005291313927000e+03  2.5722628093141889e+03  2.5439964364165280e+03  2.5157300216399608e+03  2.4874635723478509e+03  2.4591970946061242e+03  2.4309305934127692e+03  2.4026640728864568e+03  2.3743975364216499e+03  2.3461309868162293e+03  2.3178644263765277e+03  2.2895978570038205e+03  2.2613312802655528e+03  2.2330646974540118e+03  2.2047981096346725e+03  2.1765315176860349e+03  2.1482649223324543e+03  2.1199983241712016e+03  2.0917317236947697e+03  2.0634651213092643e+03  2.0351985173495621e+03  2.0069319120918096e+03  1.9786653057637293e+03  1.9503986985531158e+03  1.9221320906148467e+03  1.8938654820766535e+03  1.8655988730438930e+03  1.8373322636034752e+03  1.8090656538271055e+03  1.7807990437739577e+03  1.7525324334928855e+03  1.7242658230242389e+03  1.6959992124013738e+03  1.6677326016518941e+03  1.6394659907986818e+03  1.6111993798607475e+03  1.5829327688539463e+03  1.5546661577915636e+03  1.5263995466848100e+03  1.4981329355432417e+03  1.4698663243751184e+03  1.4415997131877089e+03  1.4133331019875616e+03  1.3850664907807495e+03  1.3567998795730996e+03  1.3285332683704073e+03  1.3002666571786517e+03  1.2720000460042227e+03  1.2437334348541572e+03  1.2154668237364024e+03  1.1872002126601119e+03  1.1589336016359932e+03  1.1306669906767049e+03  1.1024003797973330e+03  1.0741337690159580e+03  1.0458671583543412e+03  1.0176005478387390e+03  9.8933393750090318e+02  9.6106732737928814e+02  9.3280071752051970e+02  9.0453410798118227e+02  8.7626749883000730e+02  8.4800089015054891e+02  8.1973428204446407e+02  7.9146767463554590e+02  7.6320106807470336e+02  7.3493446254612695e+02  7.0666785827494994e+02  6.7840125553682174e+02  6.5013465466994512e+02  6.2186805609031126e+02  5.9360146031111913e+02  5.6533486796779403e+02  5.3706827985053155e+02  5.0880169694716153e+02  4.8053512050038233e+02  4.5226855208539484e+02  4.2400199371706231e+02  3.9573544800076280e+02  3.6746891834948502e+02  3.3920240930406862e+02  3.1093592701891902e+02  2.8266948002169585e+02  2.5440308044851830e+02  2.2613674610318625e+02  1.9787050432698760e+02  1.6960439735350639e+02  1.4133850851377568e+02  1.1307288684601878e+02  8.4808461689234420e+01  5.6540124276282391e+01  2.8309264635289626e+01  -4.3494475678405524e-02  1.1155479037535113e+04  1.1003548887025925e+04  1.0850617566531519e+04  1.0698309893148513e+04  1.0546449375112445e+04  1.0394856865835736e+04  1.0243441261616766e+04  1.0092147700132873e+04  9.9409418701671748e+03  9.7898010241497177e+03  9.6387094577302723e+03  9.4876559678545236e+03  9.3366323588864725e+03  9.1856325196964590e+03  9.0346518307633560e+03  8.8836867705511886e+03  8.7327346472478475e+03  8.5817934123677533e+03  8.4308615297783163e+03  8.2799378836652195e+03  8.1290217149926566e+03  7.9781125798337007e+03  7.8272103254776412e+03  7.6763150820038181e+03  7.5254272683671406e+03  7.3745476131663299e+03  7.2236771912732102e+03  7.0728174784121866e+03  6.9219704264622069e+03  6.7711385622425314e+03  6.6203251105428317e+03  6.4695341345089828e+03  6.3187706666968515e+03  6.1680407408209967e+03  6.0173510840590789e+03  5.8667077947626976e+03  5.7161140656227353e+03  5.5655459790612331e+03  5.4149572754719775e+03  5.2651193390923336e+03  5.1184795229398624e+03  4.9714581955385929e+03  3.5609400852274557e+03  3.5315475048028566e+03  3.5035155952847222e+03  3.4757196931253961e+03  3.4477279856708756e+03  3.4196546713922180e+03  3.3915258642953295e+03  3.3633609529478740e+03  3.3351710553618973e+03  3.3069633348335651e+03  3.2787425525414628e+03  3.2505119945376514e+03  3.2222739937738697e+03  3.1940302466533913e+03  3.1657820116335638e+03  3.1375302382041673e+03  3.1092756530684705e+03  3.0810188191978191e+03  3.0527601772130665e+03  3.0245000749692040e+03  2.9962387890913019e+03  2.9679765409081774e+03  2.9397135084142528e+03  2.9114498353673648e+03  2.8831856382887049e+03  2.8549210119037953e+03  2.8266560334095702e+03  2.7983907658468438e+03  2.7701252607836163e+03  2.7418595604623038e+03  2.7135936995264228e+03  2.6853277064148438e+03  2.6570616044915919e+03  2.6287954129640234e+03  2.6005291476308821e+03  2.5722628214930132e+03  2.5439964452528025e+03  2.5157300277232039e+03  2.4874635761631253e+03  2.4591970965527007e+03  2.4309305938194043e+03  2.4026640720239170e+03  2.3743975345129911e+03  2.3461309840452350e+03  2.3178644228946459e+03  2.2895978529358704e+03  2.2613312757144131e+03  2.2330646925044889e+03  2.2047981043566756e+03  2.1765315121371996e+03  2.1482649165602966e+03  2.1199983182148985e+03  2.0917317175866224e+03  2.0634651150759046e+03  2.0351985110129499e+03  2.0069319056700508e+03  1.9786652992717527e+03  1.9503986920032314e+03  1.9221320840172020e+03  1.8938654754396152e+03  1.8655988663743583e+03  1.8373322569071299e+03  1.8090656471086340e+03  1.7807990370372202e+03  1.7525324267410601e+03  1.7242658162599419e+03  1.6959992056267549e+03  1.6677325948687194e+03  1.6394659840083975e+03  1.6111993730645352e+03  1.5829327620527665e+03  1.5546661509861901e+03  1.5263995398758620e+03  1.4981329287312042e+03  1.4698663175603617e+03  1.4415997063705015e+03  1.4133330951680803e+03  1.3850664839590870e+03  1.3567998727492666e+03  1.3285332615443335e+03  1.3002666503501837e+03  1.2720000391731169e+03  1.2437334280200716e+03  1.2154668168988842e+03  1.1872002058185790e+03  1.1589335947897127e+03  1.1306669838247662e+03  1.1024003729386127e+03  1.0741337621490766e+03  1.0458671514776111e+03  1.0176005409500996e+03  9.8933393059784100e+02  9.6106732045873866e+02  9.3280071057874795e+02  9.0453410101363352e+02  8.7626749183112406e+02  8.4800088311354443e+02  8.1973427496103955e+02  7.9146766749553774e+02  7.6320106086564010e+02  7.3493445525266850e+02  7.0666785087817254e+02  6.7840124801330103e+02  6.5013464699056362e+02  6.2186804821869418e+02  5.9360145220155687e+02  5.6533485956244090e+02  5.3706827107557808e+02  5.0880168770750737e+02  4.8053511067209382e+02  4.5226854150481000e+02  4.2400198216470818e+02  3.9573543517704604e+02  3.6746890383697450e+02  3.3920239250725893e+02  3.1093590706477619e+02  2.8266945558998844e+02  2.5440304946458804e+02  2.2613670520032261e+02  1.9787044748182109e+02  1.6960431552337627e+02  1.4133836852461667e+02  1.1307274709561072e+02  8.4807457144433428e+01  5.6544055777346173e+01  2.8285121436962481e+01  5.6319887885686428e-03  1.1153307483591569e+04  1.1002120633178360e+04  1.0850008492682977e+04  1.0698001714667354e+04  1.0546266963170783e+04  1.0394739486467146e+04  1.0243360857488464e+04  1.0092090190582632e+04  9.9408993906724172e+03  9.7897688683707147e+03  9.6386846408644669e+03  9.4876365072130848e+03  9.3366168855750857e+03  9.1856200569895391e+03  9.0346416612508401e+03  8.8836783530367611e+03  8.7327275627143481e+03  8.5817873275205566e+03  8.4308561715065243e+03  8.2799330204009075e+03  8.1290171424388127e+03  7.9781081093913381e+03  7.8272057742019388e+03  7.6763102632046239e+03  7.5254219821252927e+03  7.3745416361231446e+03  7.2236702651287051e+03  7.0728092967483690e+03  6.9219606200403741e+03  6.7711266844174515e+03  6.6203106283996913e+03  6.4695164421826021e+03  6.3187491647536672e+03  6.1680151060562030e+03  6.0173220795821608e+03  5.8666798835185182e+03  5.7161010899412440e+03  5.5656052571121036e+03  5.4153279302076926e+03  5.2659239002744589e+03  5.1183452644085082e+03  4.9687082772140066e+03  3.5601765468495264e+03  3.5322175630974439e+03  3.5038289470391446e+03  3.4758299969618888e+03  3.4477900738837843e+03  3.4196914424788501e+03  3.3915498421204302e+03  3.3633773578856449e+03  3.3351827099165130e+03  3.3069718475470390e+03  3.2787489077932419e+03  3.2505168226842870e+03  3.2222777139834320e+03  3.1940331463376233e+03  3.1657842930567062e+03  3.1375320469284857e+03  3.1092770959048335e+03  3.0810199758601775e+03  3.0527611080768111e+03  3.0245008263528480e+03  2.9962393969260156e+03  2.9679770333352467e+03  2.9397139076555573e+03  2.9114501590938353e+03  2.8831859006362001e+03  2.8549212242373505e+03  2.8266562049053473e+03  2.7983909039401406e+03  2.7701253715171265e+03  2.7418596487591935e+03  2.7135937694060767e+03  2.6853277611644485e+03  2.6570616468033736e+03  2.6287954450455563e+03  2.6005291712941162e+03  2.5722628382263888e+03  2.5439964562798332e+03  2.5157300340501938e+03  2.4874635786181075e+03  2.4591970958172801e+03  2.4309305904548269e+03  2.4026640664924416e+03  2.3743975271954296e+03  2.3461309752553580e+03  2.3178644128910232e+03  2.2895978419316061e+03  2.2613312638851598e+03  2.2330646799950373e+03  2.2047980912863895e+03  2.1765314986044832e+03  2.1482649026462796e+03  2.1199983039864696e+03  2.0917317030989329e+03  2.0634651003744275e+03  2.0351984961351779e+03  2.0069318906468991e+03  1.9786652841287096e+03  1.9503986767613146e+03  1.9221320686937383e+03  1.8938654600488906e+03  1.8655988509281494e+03  1.8373322414151432e+03  1.8090656315788694e+03  1.7807990214762674e+03  1.7525324111543468e+03  1.7242658006519339e+03  1.6959991900011244e+03  1.6677325792284798e+03  1.6394659683560189e+03  1.6111993574020362e+03  1.5829327463817849e+03  1.5546661353080503e+03  1.5263995241916195e+03  1.4981329130416882e+03  1.4698663018662037e+03  1.4415996906721600e+03  1.4133330794658589e+03  1.3850664682531433e+03  1.3567998570396198e+03  1.3285332458308646e+03  1.3002666346326309e+03  1.2720000234510653e+03  1.2437334122929392e+03  1.2154668011658973e+03  1.1872001900787461e+03  1.1589335790417856e+03  1.1306669680671919e+03  1.1024003571694755e+03  1.0741337463660252e+03  1.0458671356777693e+03  1.0176005251299545e+03  9.8933391475310782e+02  9.6106730458419520e+02  9.3280069466802763e+02  9.0453408505897437e+02  8.7626747582305643e+02  8.4800086704050489e+02  8.1973425880889044e+02  7.9146765124696822e+02  7.6320104449941266e+02  7.3493443874266791e+02  7.0666783419219371e+02  6.7840123111149376e+02  6.5013462982341605e+02  6.2186803072438909e+02  5.9360143430246433e+02  5.6533484116040154e+02  5.3706825204546249e+02  5.0880166788828086e+02  4.8053508985419160e+02  4.5226851941195332e+02  4.2400195842715101e+02  3.9573540929129086e+02  3.6746887510355168e+02  3.3920235993187265e+02  3.1093586919627717e+02  2.8266941024493485e+02  2.5440299324263182e+02  2.2613663257098091e+02  1.9787034914062676e+02  1.6960417398943602e+02  1.4133815603405623e+02  1.1307236827148326e+02  8.4806939091550959e+01  5.6542509718239160e+01  2.8277085991456417e+01  -4.2735393692557244e-04  1.1151794221390968e+04  1.1000919348378478e+04  1.0849324999731785e+04  1.0697616928648737e+04  1.0546029585263943e+04  1.0394582684431134e+04  1.0243251869143580e+04  1.0092011489841538e+04  9.9408408906651312e+03  9.7897243920421297e+03  9.6386502095605192e+03  9.4876094476631552e+03  9.3365953362636101e+03  9.1856026809546347e+03  9.0346274714269493e+03  8.8836666017473854e+03  8.7327176691510685e+03  8.5817788284370417e+03  8.4308486864524002e+03  8.2799262262019274e+03  8.1290107535607940e+03  7.9781018619487813e+03  7.8271994120282216e+03  7.6763035247749176e+03  7.5254145873233902e+03  7.3745332719424005e+03  7.2236605694694808e+03  7.0727978396446770e+03  6.9219468821949313e+03  6.7711100345153764e+03  6.6202903049970082e+03  6.4694915573053759e+03  6.3187187759177386e+03  6.1679784832413061e+03  6.0172795178687238e+03  5.8666349289503532e+03  5.7160669006003445e+03  5.5656284594742501e+03  5.4155018115032244e+03  5.2661235456324303e+03  5.1178457779388182e+03  4.9668664387807030e+03  3.5595486202836569e+03  3.5324656074840773e+03  3.5040842157924722e+03  3.4759640454689747e+03  3.4478671054864699e+03  3.4197398528779204e+03  3.3915819810843486e+03  3.3633996496319842e+03  3.3351986801023463e+03  3.3069835849328915e+03  3.2787577122881466e+03  3.2505235377133290e+03  3.2222829055336210e+03  3.1940372052196085e+03  3.1657874958211000e+03  3.1375345934888205e+03  3.1092791334934277e+03  3.0810216146938919e+03  3.0527624318475400e+03  3.0245018994048469e+03  2.9962402692638452e+03  2.9679777441818701e+03  2.9397144880229639e+03  2.9114506336691984e+03  2.8831862891856440e+03  2.8549215426644082e+03  2.8266564660585623e+03  2.7983911182358629e+03  2.7701255474244031e+03  2.7418597931804734e+03  2.7135938879783444e+03  2.6853278584989471e+03  2.6570617266775062e+03  2.6287955105572378e+03  2.6005292249864328e+03  2.5722628821886151e+03  2.5439964922295408e+03  2.5157300634001394e+03  2.4874636025308537e+03  2.4591971152498490e+03  2.4309306061952839e+03  2.4026640791898853e+03  2.3743975373846074e+03  2.3461309833768869e+03  2.3178644193080099e+03  2.2895978469433162e+03  2.2613312677382664e+03  2.2330646828928811e+03  2.2047980933965982e+03  2.1765315000652531e+03  2.1482649035715485e+03  2.1199983044701762e+03  2.0917317032185310e+03  2.0634651001937782e+03  2.0351984957069374e+03  2.0069318900144831e+03  1.9786652833279172e+03  1.9503986758216604e+03  1.9221320676395590e+03  1.8938654589002485e+03  1.8655988497015840e+03  1.8373322401242867e+03  1.8090656302349562e+03  1.7807990200885536e+03  1.7525324097304538e+03  1.7242657991981339e+03  1.6959991885225738e+03  1.6677325777294134e+03  1.6394659668399054e+03  1.6111993558717079e+03  1.5829327448395450e+03  1.5546661337557568e+03  1.5263995226307563e+03  1.4981329114734190e+03  1.4698663002914161e+03  1.4415996890914985e+03  1.4133330778797490e+03  1.3850664666618068e+03  1.3567998554430844e+03  1.3285332442289632e+03  1.3002666330249956e+03  1.2720000218371154e+03  1.2437334106718565e+03  1.2154667995365976e+03  1.1872001884398376e+03  1.1589335773915147e+03  1.1306669664033807e+03  1.1024003554894355e+03  1.0741337446664575e+03  1.0458671339546363e+03  1.0176005233783278e+03  9.8933391296697630e+02  9.6106730275623102e+02  9.3280069278930046e+02  9.0453408311859755e+02  8.7626747380775021e+02  8.4800086493405468e+02  8.1973425659147858e+02  7.9146764889433496e+02  7.6320104198180582e+02  7.3493443602351590e+02  7.0666783122641959e+02  6.7840122784335324e+02  6.5013462618369851e+02  6.2186802662675700e+02  5.9360142963860721e+02  5.6533483579353594e+02  5.3706824580148384e+02  5.0880166054352486e+02  4.8053508111821498e+02  4.5226850890283788e+02  4.2400194