<?xml version="1.0"?>
<VTKFile type="UnstructuredGrid"  version="0.1"  >
<UnstructuredGrid>
<Piece  NumberOfPoints="21400" NumberOfCells="42336">
<Points>
<DataArray  type="Float64"  NumberOfComponents="3"  format="ascii">0 0 0  0.004583333333333333 0 0  0.009166666666666667 0 0  0.01375 0 0  0.01833333333333333 0 0  0.02291666666666667 0 0  0.0275 0 0  0.03208333333333334 0 0  0.03666666666666667 0 0  0.04125 0 0  0.04583333333333334 0 0  0.05041666666666667 0 0  0.055 0 0  0.05958333333333334 0 0  0.06416666666666668 0 0  0.06875000000000001 0 0  0.07333333333333333 0 0  0.07791666666666666 0 0  0.08249999999999999 0 0  0.08708333333333333 0 0  0.09166666666666667 0 0  0.09625000000000002 0 0  0.1008333333333333 0 0  0.1054166666666667 0 0  0.11 0 0  0.1145833333333333 0 0  0.1191666666666667 0 0  0.12375 0 0  0.1283333333333334 0 0  0.1329166666666667 0 0  0.1375 0 0  0.1420833333333333 0 0  0.1466666666666667 0 0  0.15125 0 0  0.1558333333333333 0 0  0.1604166666666667 0 0  0.165 0 0  0.1695833333333333 0 0  0.1741666666666667 0 0  0.17875 0 0  0.1833333333333333 0 0  0.1879166666666667 0 0  0.1925 0 0  0.1970833333333333 0 0  0.2016666666666667 0 0  0.20625 0 0  0.2108333333333333 0 0  0.2154166666666666 0 0  0.22 0 0  0.2245833333333334 0 0  0.2291666666666667 0 0  0.23375 0 0  0.2383333333333333 0 0  0.2429166666666667 0 0  0.2475 0 0  0.2520833333333333 0 0  0.2566666666666667 0 0  0.26125 0 0  0.2658333333333334 0 0  0.2704166666666666 0 0  0.275 0 0  0.2795833333333334 0 0  0.2841666666666667 0 0  0.28875 0 0  0.2933333333333333 0 0  0.2979166666666667 0 0  0.3025 0 0  0.3070833333333334 0 0  0.3116666666666666 0 0  0.31625 0 0  0.3208333333333333 0 0  0.3254166666666667 0 0  0.33 0 0  0.3345833333333333 0 0  0.3391666666666667 0 0  0.34375 0 0  0.3483333333333333 0 0  0.3529166666666667 0 0  0.3575 0 0  0.3620833333333333 0 0  0.3666666666666667 0 0  0.37125 0 0  0.3758333333333334 0 0  0.3804166666666667 0 0  0.3850000000000001 0 0  0.3895833333333333 0 0  0.3941666666666667 0 0  0.39875 0 0  0.4033333333333334 0 0  0.4079166666666666 0 0  0.4125 0 0  0.4170833333333334 0 0  0.4216666666666667 0 0  0.42625 0 0  0.4308333333333333 0 0  0.4354166666666667 0 0  0.44 0 0  0.4445833333333333 0 0  0.4491666666666667 0 0  0.45375 0 0  0.4583333333333333 0 0  0.4629166666666666 0 0  0.4675 0 0  0.4720833333333334 0 0  0.4766666666666667 0 0  0.4812500000000001 0 0  0.4858333333333333 0 0  0.4904166666666667 0 0  0.495 0 0  0.4995833333333334 0 0  0.5041666666666667 0 0  0.50875 0 0  0.5133333333333334 0 0  0.5179166666666667 0 0  0.5225 0 0  0.5270833333333333 0 0  0.5316666666666667 0 0  0.53625 0 0  0.5408333333333333 0 0  0.5454166666666667 0 0  0.55 0 0  0.5545833333333333 0 0  0.5591666666666667 0 0  0.5637500000000001 0 0  0.5683333333333334 0 0  0.5729166666666666 0 0  0.5775 0 0  0.5820833333333334 0 0  0.5866666666666667 0 0  0.5912499999999999 0 0  0.5958333333333334 0 0  0.6004166666666667 0 0  0.605 0 0  0.6095833333333334 0 0  0.6141666666666667 0 0  0.61875 0 0  0.6233333333333333 0 0  0.6279166666666667 0 0  0.6325000000000001 0 0  0.6370833333333333 0 0  0.6416666666666666 0 0  0.64625 0 0  0.6508333333333334 0 0  0.6554166666666666 0 0  0.6599999999999999 0 0  0.6645833333333334 0 0  0.6691666666666667 0 0  0.67375 0 0  0.6783333333333333 0 0  0.6829166666666667 0 0  0.6875 0 0  0.6920833333333333 0 0  0.6966666666666667 0 0  0.70125 0 0  0.7058333333333333 0 0  0.7104166666666667 0 0  0.7150000000000001 0 0  0.7195833333333334 0 0  0.7241666666666666 0 0  0.72875 0 0  0.7333333333333334 0 0  0.7379166666666667 0 0  0.7425 0 0  0.7470833333333333 0 0  0.7516666666666667 0 0  0.75625 0 0  0.7608333333333334 0 0  0.7654166666666666 0 0  0.7700000000000001 0 0  0 0.002380952380952381 0  0.004583333333333333 0.002380952380952381 0  0.009166666666666667 0.002380952380952381 0  0.01375 0.002380952380952381 0  0.01833333333333333 0.002380952380952381 0  0.02291666666666667 0.002380952380952381 0  0.0275 0.002380952380952381 0  0.03208333333333334 0.002380952380952381 0  0.03666666666666667 0.002380952380952381 0  0.04125 0.002380952380952381 0  0.04583333333333334 0.002380952380952381 0  0.05041666666666667 0.002380952380952381 0  0.055 0.002380952380952381 0  0.05958333333333334 0.002380952380952381 0  0.06416666666666668 0.002380952380952381 0  0.06875000000000001 0.002380952380952381 0  0.07333333333333333 0.002380952380952381 0  0.07791666666666666 0.002380952380952381 0  0.08249999999999999 0.002380952380952381 0  0.08708333333333333 0.002380952380952381 0  0.09166666666666667 0.002380952380952381 0  0.09625000000000002 0.002380952380952381 0  0.1008333333333333 0.002380952380952381 0  0.1054166666666667 0.002380952380952381 0  0.11 0.002380952380952381 0  0.1145833333333333 0.002380952380952381 0  0.1191666666666667 0.002380952380952381 0  0.12375 0.002380952380952381 0  0.1283333333333334 0.002380952380952381 0  0.1329166666666667 0.002380952380952381 0  0.1375 0.002380952380952381 0  0.1420833333333333 0.002380952380952381 0  0.1466666666666667 0.002380952380952381 0  0.15125 0.002380952380952381 0  0.1558333333333333 0.002380952380952381 0  0.1604166666666667 0.002380952380952381 0  0.165 0.002380952380952381 0  0.1695833333333333 0.002380952380952381 0  0.1741666666666667 0.002380952380952381 0  0.17875 0.002380952380952381 0  0.1833333333333333 0.002380952380952381 0  0.1879166666666667 0.002380952380952381 0  0.1925 0.002380952380952381 0  0.1970833333333333 0.002380952380952381 0  0.2016666666666667 0.002380952380952381 0  0.20625 0.002380952380952381 0  0.2108333333333333 0.002380952380952381 0  0.2154166666666666 0.002380952380952381 0  0.22 0.002380952380952381 0  0.2245833333333334 0.002380952380952381 0  0.2291666666666667 0.002380952380952381 0  0.23375 0.002380952380952381 0  0.2383333333333333 0.002380952380952381 0  0.2429166666666667 0.002380952380952381 0  0.2475 0.002380952380952381 0  0.2520833333333333 0.002380952380952381 0  0.2566666666666667 0.002380952380952381 0  0.26125 0.002380952380952381 0  0.2658333333333334 0.002380952380952381 0  0.2704166666666666 0.002380952380952381 0  0.275 0.002380952380952381 0  0.2795833333333334 0.002380952380952381 0  0.2841666666666667 0.002380952380952381 0  0.28875 0.002380952380952381 0  0.2933333333333333 0.002380952380952381 0  0.2979166666666667 0.002380952380952381 0  0.3025 0.002380952380952381 0  0.3070833333333334 0.002380952380952381 0  0.3116666666666666 0.002380952380952381 0  0.31625 0.002380952380952381 0  0.3208333333333333 0.002380952380952381 0  0.3254166666666667 0.002380952380952381 0  0.33 0.002380952380952381 0  0.3345833333333333 0.002380952380952381 0  0.3391666666666667 0.002380952380952381 0  0.34375 0.002380952380952381 0  0.3483333333333333 0.002380952380952381 0  0.3529166666666667 0.002380952380952381 0  0.3575 0.002380952380952381 0  0.3620833333333333 0.002380952380952381 0  0.3666666666666667 0.002380952380952381 0  0.37125 0.002380952380952381 0  0.3758333333333334 0.002380952380952381 0  0.3804166666666667 0.002380952380952381 0  0.3850000000000001 0.002380952380952381 0  0.3895833333333333 0.002380952380952381 0  0.3941666666666667 0.002380952380952381 0  0.39875 0.002380952380952381 0  0.4033333333333334 0.002380952380952381 0  0.4079166666666666 0.002380952380952381 0  0.4125 0.002380952380952381 0  0.4170833333333334 0.002380952380952381 0  0.4216666666666667 0.002380952380952381 0  0.42625 0.002380952380952381 0  0.4308333333333333 0.002380952380952381 0  0.4354166666666667 0.002380952380952381 0  0.44 0.002380952380952381 0  0.4445833333333333 0.002380952380952381 0  0.4491666666666667 0.002380952380952381 0  0.45375 0.002380952380952381 0  0.4583333333333333 0.002380952380952381 0  0.4629166666666666 0.002380952380952381 0  0.4675 0.002380952380952381 0  0.4720833333333334 0.002380952380952381 0  0.4766666666666667 0.002380952380952381 0  0.4812500000000001 0.002380952380952381 0  0.4858333333333333 0.002380952380952381 0  0.4904166666666667 0.002380952380952381 0  0.495 0.002380952380952381 0  0.4995833333333334 0.002380952380952381 0  0.5041666666666667 0.002380952380952381 0  0.50875 0.002380952380952381 0  0.5133333333333334 0.002380952380952381 0  0.5179166666666667 0.002380952380952381 0  0.5225 0.002380952380952381 0  0.5270833333333333 0.002380952380952381 0  0.5316666666666667 0.002380952380952381 0  0.53625 0.002380952380952381 0  0.5408333333333333 0.002380952380952381 0  0.5454166666666667 0.002380952380952381 0  0.55 0.002380952380952381 0  0.5545833333333333 0.002380952380952381 0  0.5591666666666667 0.002380952380952381 0  0.5637500000000001 0.002380952380952381 0  0.5683333333333334 0.002380952380952381 0  0.5729166666666666 0.002380952380952381 0  0.5775 0.002380952380952381 0  0.5820833333333334 0.002380952380952381 0  0.5866666666666667 0.002380952380952381 0  0.5912499999999999 0.002380952380952381 0  0.5958333333333334 0.002380952380952381 0  0.6004166666666667 0.002380952380952381 0  0.605 0.002380952380952381 0  0.6095833333333334 0.002380952380952381 0  0.6141666666666667 0.002380952380952381 0  0.61875 0.002380952380952381 0  0.6233333333333333 0.002380952380952381 0  0.6279166666666667 0.002380952380952381 0  0.6325000000000001 0.002380952380952381 0  0.6370833333333333 0.002380952380952381 0  0.6416666666666666 0.002380952380952381 0  0.64625 0.002380952380952381 0  0.6508333333333334 0.002380952380952381 0  0.6554166666666666 0.002380952380952381 0  0.6599999999999999 0.002380952380952381 0  0.6645833333333334 0.002380952380952381 0  0.6691666666666667 0.002380952380952381 0  0.67375 0.002380952380952381 0  0.6783333333333333 0.002380952380952381 0  0.6829166666666667 0.002380952380952381 0  0.6875 0.002380952380952381 0  0.6920833333333333 0.002380952380952381 0  0.6966666666666667 0.002380952380952381 0  0.70125 0.002380952380952381 0  0.7058333333333333 0.002380952380952381 0  0.7104166666666667 0.002380952380952381 0  0.7150000000000001 0.002380952380952381 
[...]
<PointData  Scalars="pressure"> 
<DataArray  type="Float64"  Name="pressure"  format="ascii">2.0069775165840918e+04  1.9907344324482794e+04  1.9753524602904847e+04  1.9600906482074599e+04  1.9448938620752346e+04  1.9297291514182252e+04  1.9145845483699046e+04  1.8994532883539265e+04  1.8843314116708803e+04  1.8692163779325583e+04  1.8541064718855479e+04  1.8390004864124505e+04  1.8238975450550726e+04  1.8087969956431509e+04  1.7936983433958027e+04  1.7786012070742301e+04  1.7635052892386473e+04  1.7484103554747315e+04  1.7333162195182686e+04  1.7182227323730247e+04  1.7031297742022758e+04  1.6880372481910483e+04  1.6729450758369432e+04  1.6578531932951519e+04  1.6427615485136772e+04  1.6276700989691735e+04  1.6125788098648447e+04  1.5974876526875792e+04  1.5823966040469528e+04  1.5673056447371371e+04  1.5522147589762737e+04  1.5371239337879439e+04  1.5220331584969894e+04  1.5069424243177053e+04  1.4918517240169207e+04  1.4767610516379906e+04  1.4616704022744039e+04  1.4465797718839369e+04  1.4314891571359616e+04  1.4163985552859212e+04  1.4013079640720920e+04  1.3862173816306316e+04  1.3711268064256723e+04  1.3560362371917636e+04  1.3409456728864987e+04  1.3258551126515189e+04  1.3107645557804155e+04  1.2956740016923339e+04  1.2805834499102719e+04  1.2654929000432707e+04  1.2504023517718135e+04  1.2353118048359036e+04  1.2202212590253568e+04  1.2051307141719633e+04  1.1900401701432085e+04  1.1749496268373312e+04  1.1598590841795245e+04  1.1447685421191503e+04  1.1296780006278439e+04  1.1145874596984608e+04  1.0994969193448065e+04  1.0844063796021532e+04  1.0693158405285520e+04  1.0542253022070001e+04  1.0391347647485329e+04  1.0240442282963644e+04  1.0089536930312295e+04  9.9386315917811971e+03  9.7877262701467844e+03  9.6368209688155148e+03  9.4859156919509660e+03  9.3350104446290952e+03  9.1841052330276689e+03  9.0332000646567249e+03  8.8822949486388898e+03  8.7313898960498791e+03  8.5804849203320882e+03  8.4295800377966825e+03  8.2786752682330989e+03  8.1277706356489261e+03  7.9768661691679836e+03  7.8259619041206606e+03  7.6750578833677455e+03  7.5241541589082099e+03  7.3732507938323242e+03  7.2223478646952162e+03  7.0714454644024927e+03  6.9205437057204863e+03  6.7696427255489016e+03  6.6187426901257468e+03  6.4678438013738378e+03  6.3169463046483079e+03  6.1660504982073444e+03  6.0151567448085661e+03  5.8642654859363274e+03  5.7133772592978030e+03  5.5624927203992229e+03  5.4116126692414664e+03  5.2607380834781115e+03  5.1098701597869476e+03  4.9590103657606669e+03  4.8081605053838921e+03  4.6573228022197727e+03  4.5065000059077120e+03  4.3556955296596434e+03  4.2049136294032387e+03  4.0541596394341441e+03  3.9034402854180103e+03  3.7527641039562591e+03  3.6021420092114495e+03  3.4515880615398369e+03  3.3011205051735906e+03  3.1507631529034747e+03  3.0005470610138118e+03  2.8505129909943735e+03  2.7007079321957199e+03  2.5512068931762260e+03  2.4019950592192918e+03  2.2532607671144033e+03  2.0981418858193902e+03  1.4253984234132486e+03  1.3346530262519088e+03  1.2970443169158073e+03  1.2688954997846570e+03  1.2413107969693970e+03  1.2135371417717797e+03  1.1856793309719126e+03  1.1577296302196914e+03  1.1297093723985997e+03  1.1016346737364106e+03  1.0735185219746982e+03  1.0453706749567011e+03  1.0171984252003261e+03  9.8900722945136079e+02  9.6080120168648489e+02  9.3258347286382389e+02  9.0435644944989474e+02  8.7612199870864981e+02  8.4788158223363075e+02  8.1963635306888591e+02  7.9138722712618801e+02  7.6313493631354856e+02  7.3488006851755597e+02  7.0662309802823859e+02  6.7836440893329973e+02  6.5010431327964966e+02  6.2184306529619903e+02  5.9358087262028448e+02  5.6531790522251731e+02  5.3705430254861142e+02  5.0879017927025217e+02  4.8052562994552710e+02  4.5226073282300808e+02  4.2399555297575364e+02  3.9573014491824250e+02  3.6746455483865469e+02  3.3919882257133150e+02  3.1093298344317196e+02  2.8266707016369509e+02  2.5440111500597700e+02  2.2613515275573886e+02  1.9786922490061673e+02  1.6960338978525695e+02  1.4133771754387885e+02  1.1307248946372873e+02  8.4806811803259833e+01  5.6551255252648360e+01  2.8205812569394716e+01  7.9925567475307613e-01  2.0061492602276121e+04  1.9907393694911745e+04  1.9753340870496577e+04  1.9600854622268249e+04  1.9448904606204145e+04  1.9297270808118246e+04  1.9145831438717385e+04  1.8994522955799683e+04  1.8843306843056831e+04  1.8692158314280499e+04  1.8541060533243544e+04  1.8390001611140149e+04  1.8238972893518607e+04  1.8087967928536484e+04  1.7936981814447194e+04  1.7786010770258057e+04  1.7635051843581936e+04  1.7484102706085021e+04  1.7333161506719469e+04  1.7182226764179672e+04  1.7031297286662204e+04  1.6880372111060409e+04  1.6729450456268980e+04  1.6578531686914179e+04  1.6427615284907810e+04  1.6276700826953193e+04  1.6125787966633887e+04  1.5974876420067794e+04  1.5823965954360247e+04  1.5673056378271815e+04  1.5522147534649939e+04  1.5371239294273484e+04  1.5220331550834482e+04  1.5069424216838845e+04  1.4918517220252301e+04  1.4767610501752355e+04  1.4616704012474194e+04  1.4465797712160142e+04  1.4314891567639210e+04  1.4163985551577125e+04  1.4013079641448208e+04  1.3862173818689414e+04  1.3711268068004092e+04  1.3560362376788804e+04  1.3409456734661539e+04  1.3258551133073292e+04  1.3107645564988443e+04  1.2956740024621835e+04  1.2805834507222655e+04  1.2654929008897045e+04  1.2504023526462692e+04  1.2353118057330073e+04  1.2202212599405815e+04  1.2051307151014575e+04  1.1900401710836533e+04  1.1749496277858156e+04  1.1598590851334380e+04  1.1447685430760845e+04  1.1296780015855033e+04  1.1145874606545771e+04  1.0994969202970537e+04  1.0844063805480615e+04  1.0693158414654150e+04  1.0542253031317738e+04  1.0391347656577229e+04  1.0240442291858955e+04  1.0089536938962925e+04  9.9386316001299456e+03  9.7877262781251757e+03  9.6368209763412688e+03  9.4859156989249113e+03  9.3350104509314860e+03  9.1841052385136900e+03  9.0332000691511021e+03  8.8822949519293270e+03  8.7313898978791367e+03  8.5804849203883441e+03  8.4295800357018597e+03  8.2786752635287157e+03  8.1277706277788739e+03  7.9768661574576599e+03  7.8259618877515777e+03  7.6750578613466760e+03  7.5241541300296594e+03  7.3732507566328650e+03  7.2223478173978256e+03  7.0714454048487250e+03  6.9205436312876336e+03  6.7696426330487675e+03  6.6187425756806560e+03  6.4678436602645552e+03  6.3169461311269961e+03  6.1660502852668915e+03  6.0151564838972290e+03  5.8642651666032652e+03  5.7133768687508827e+03  5.5624922429504395e+03  5.4116120856073039e+03  5.2607373698909078e+03  5.1098692868576154e+03  4.9590092970109545e+03  4.8081591953347488e+03  4.6573211938771246e+03  4.5064980274216177e+03  4.3556930898386527e+03  4.2049106116300209e+03  4.0541558933356564e+03  3.9034356153774593e+03  3.7527582532003967e+03  3.6021346379018596e+03  3.4515787167662093e+03  3.3011085831307510e+03  3.1507478460252996e+03  3.0005274120102677e+03  2.8504871761445461e+03  2.7006783855919075e+03  2.5511569127955718e+03  2.4019752496437632e+03  2.2527655606791559e+03  2.1037394910062958e+03  1.9612905233276119e+03  1.8307781494053206e+03  1.2957183038202318e+03  1.2690731695204911e+03  1.2412952935653716e+03  1.2135521776644100e+03  1.1856887286797160e+03  1.1577373931927807e+03  1.1297152560553675e+03  1.1016391606697346e+03  1.0735219535180299e+03  1.0453733204895179e+03  1.0172004824163555e+03  9.8900884284986387e+02  9.6080247700208918e+02  9.3258448807493778e+02  9.0435726264864229e+02  8.7612265364921859e+02  8.4788211223183214e+02  8.1963678375582231e+02  7.9138757840921289e+02  7.6313522378742903e+02  7.3488030449168650e+02  7.0662329228323836e+02  6.7836456928482426e+02  6.5010444600328196e+02  6.2184317545103488e+02  5.9358096429774207e+02  5.6531798173926563e+02  5.3705436659720760e+02  5.0879023303733442e+02  4.8052567520471672e+02  4.5226077100769095e+02  4.2399558523534506e+02  3.9573017216020452e+02  3.6746457775716732e+02  3.3919884166179446e+02  3.1093299899918804e+02  2.8266708224734344e+02  2.5440112338125928e+02  2.2613515668263284e+02  1.9786922323133845e+02  1.6960337677740355e+02  1.4133771037878435e+02  1.1307228137636676e+02  8.4808026294381236e+01  5.6539842735042356e+01  2.8309126259866240e+01  -4.3494215637685754e-02  2.0057823315126549e+04  1.9905893116274288e+04  1.9752961628959729e+04  1.9600653663782323e+04  1.9448792717979621e+04  1.9297199628961513e+04  1.9145783271336037e+04  1.8994488754581751e+04  1.8843281731709598e+04  1.8692139410450400e+04  1.8541046031132173e+04  1.8389990322651211e+04  1.8238964005995487e+04  1.8087960868133519e+04  1.7936976165184897e+04  1.7786006223966720e+04  1.7635048167795147e+04  1.7484099722781120e+04  1.7333159077847296e+04  1.7182224781557539e+04  1.7031295664772617e+04  1.6880370781809484e+04  1.6729449365108336e+04  1.6578530789926903e+04  1.6427614546589059e+04  1.6276700218499853e+04  1.6125787464612791e+04  1.5974876005369480e+04  1.5823965611370737e+04  1.5673056094212603e+04  1.5522147299049109e+04  1.5371239098539892e+04  1.5220331387913542e+04  1.5069424080933337e+04  1.4918517106595282e+04  1.4767610406422027e+04  1.4616703932242646e+04  1.4465797644369621e+04  1.4314891510100708e+04  1.4163985502487179e+04  1.4013079599320619e+04  1.3862173782299096e+04  1.3711268036340911e+04  1.3560362349019590e+04  1.3409456710098782e+04  1.3258551111149371e+04  1.3107645545234334e+04  1.2956740006649579e+04  1.2805834490710833e+04  1.2654928993578744e+04  1.2504023512115567e+04  1.2353118043768007e+04  1.2202212586471998e+04  1.2051307138575628e+04  1.1900401698777539e+04  1.1749496266078373e+04  1.1598590839743489e+04  1.1447685419275562e+04  1.1296780004396021e+04  1.1145874595034673e+04  1.0994969191327060e+04  1.0844063793619523e+04  1.0693158402482100e+04  1.0542253018729796e+04  1.0391347643452944e+04  1.0240442278057888e+04  1.0089536924319393e+04  9.9386315844468445e+03  9.7877262611666429e+03  9.6368209578238657e+03  9.4859156785070445e+03  9.3350104282006669e+03  9.1841052129711297e+03  9.0332000401930818e+03  8.8822949188246330e+03  8.7313898597417283e+03  8.5804848761442099e+03  8.4295799840488053e+03  8.2786752028875726e+03  8.1277705562342753e+03  7.9768660726860899e+03  7.8259617869339536e+03  7.6750577410621154e+03  7.5241539861262218e+03  7.3732505840702524e+03  7.2223476100557782e+03  7.0714451552933897e+03  6.9205433304863882e+03  6.7696422700216262e+03  6.6187421370734746e+03  6.4678431298254491e+03  6.3169454890625393e+03  6.1660495074482988e+03  6.0151555408783452e+03  5.8642640224011466e+03  5.7133754793247790e+03  5.5624905542947636e+03  5.4116100313464967e+03  5.2607348682256325e+03  5.1098662366580529e+03  4.9590055727771478e+03  4.8081546406361231e+03  4.6573156127287612e+03  4.5064911728324469e+03  4.3556846484458210e+03  4.2049001828723895e+03  4.0541429609639804e+03  3.9034195081935268e+03  3.7527380907575234e+03  3.6021092556209505e+03  3.4515465643848993e+03  3.3010675926772719e+03  3.1506952869180027e+03  3.0004597381006975e+03  2.8504003979921235e+03  2.7005686415727155e+03  2.5510254398224201e+03  2.4018238071537826e+03  2.2529695243499191e+03  2.1057513197072481e+03  1.9562967021999757e+03  1.3312593294283292e+03  1.2972408489013901e+03  1.2688504761244992e+03  1.2413571780882514e+03  1.2135901030854868e+03  1.1857230568181046e+03  1.1577638374177006e+03  1.1297354607928753e+03  1.1016545263006610e+03  1.0735337004326179e+03  1.0453823708570744e+03  1.0172075151208007e+03  9.8901435308332123e+02  9.6080682709240057e+02  9.3258794527210182e+02  9.0436002611760591e+02  8.7612487346074317e+02  8.4788390270374748e+02  8.1963823287351522e+02  7.9138875453590094e+02  7.6313618049496472e+02  7.3488108407863672e+02  7.0662392836740332e+02  6.7836508873611695e+02  6.5010487040104113e+02  6.2184352219436926e+02  5.9358124745963494e+02  5.6531821272909986e+02  5.3705455467823253e+02  5.0879038573279797e+02  4.8052579861719101e+02  4.5226087006930328e+02  4.2399566390130701e+02  3.9573023355344185e+02  3.6746462426721422e+02  3.3919887499531762e+02  3.1093302017050615e+02  2.8266709148193331e+02  2.5440111986806193e+02  2.2613513808483353e+02  1.9786918436103929e+02  1.6960330926473753e+02  1.4133758158538541e+02  1.1307215011834883e+02  8.4807027860122730e+01  5.6543778165295947e+01  2.8284985121156549e+01  5.6320081511706489e-03  2.0055651836554334e+04  1.9904464938978788e+04  1.9752352635681495e+04  1.9600345572897495e+04  1.9448610403940111e+04  1.9297082361467543e+04  1.9145702997247910e+04  1.8994431398116234e+04  1.8843239434095052e+04  1.8692107472190404e+04  1.8541021475623591e+04  1.8389971177079151e+04  1.8238948913400662e+04  1.8087948866258463e+04  1.7936966554199724e+04  1.7785998484080657e+04  1.7635041906104587e+04  1.7484094637910075e+04  1.7333154935778712e+04  1.7182221398711972e+04  1.7031292895905073e+04  1.6880368511185992e+04  1.6729447499963750e+04  1.6578529255540725e+04  1.6427613282529808e+04  1.6276699175727214e+04  1.6125786603218980e+04  1.5974875292803234e+04  1.5823965021030341e+04  1.5673055604324018e+04  1.5522146891766513e+04  1.5371238759221167e+04  1.5220331104534380e+04  1.5069423843611914e+04  1.4918516907205545e+04  1.4767610238278285e+04  1.4616703789841940e+04  1.4465797523180838e+04  1.4314891406391780e+04  1.4163985413183327e+04  1.4013079521887907e+04  1.3862173714648765e+04  1.3711267976750669e+04  1.3560362296068866e+04  1.3409456662615343e+04  1.3258551068165383e+04  1.3107645505950108e+04  1.2956739970403609e+04  1.2805834456955075e+04  1.2654928961858117e+04  1.2504023482050949e+04  1.2353118015042084e+04  1.2202212558817397e+04  1.2051307111764949e+04  1.1900401672614867e+04  1.1749496240391962e+04  1.1598590814379368e+04  1.1447685394091774e+04  1.1296779979257342e+04  1.1145874569807567e+04  1.0994969165874692e+04  1.0844063767796661e+04  1.0693158376129708e+04  1.0542252991669084e+04  1.0391347615478719e+04  1.0240442248930884e+04  1.0089536893757371e+04  9.9386315521140386e+03  9.7877262266612615e+03  9.6368209206630690e+03  9.4859156381089542e+03  9.3350103838626274e+03  9.1841051638434856e+03  9.0331999852474273e+03  8.8822948568154061e+03  8.7313897891596298e+03  8.5804847951597476e+03  8.4295798904438325e+03  8.2786750939721514e+03  8.1277704287458137e+03  7.9768659226667978e+03  7.8259616095820011e+03  7.6750575305506554e+03  7.5241537353833273e+03  7.3732502845110612e+03  7.2223472512562439e+03  7.0714447245925567e+03  6.9205428125009330e+03  6.7696416460525652e+03  6.6187413843798804e+03  6.4678422207336571e+03  6.3169443898710979e+03  6.1660481770781271e+03  6.0151539292035068e+03  5.8642620681768822e+03  5.7133731076043059e+03  5.5624876731923032e+03  5.4116065279573850e+03  5.2607306034497606e+03  5.1098610385828679e+03  4.9589992281492787e+03  4.8081468837700304e+03  4.6573061109420914e+03  4.5064795071253584e+03  4.3556702876039872e+03  4.2048824483992230e+03  4.0541209791430711e+03  3.9033921440448694e+03  3.7527038566289921e+03  3.6020661848328978e+03  3.4514920387446127e+03  3.3009981161363094e+03  3.1506062125725825e+03  3.0003450388528399e+03  2.8502528169667435e+03  2.7003808167173033e+03  2.5507969551569731e+03  2.4015956016717200e+03  2.2530438825371220e+03  2.1055982470140889e+03  1.9624803628196257e+03  1.8301829224745902e+03  1.2950011847203382e+03  1.2690528054906695e+03  1.2414138869293979e+03  1.2136636024041579e+03  1.1857811487014908e+03  1.1578088355676332e+03  1.1297696455651856e+03  1.1016805099274773e+03  1.0735535670414963e+03  1.0453976861993117e+03  1.0172194245049689e+03  9.8902369066424399e+02  9.6081420313237402e+02  9.3259381019085697e+02  9.0436471591256782e+02  8.7612864158039554e+02  8.4788694242299732e+02  8.1964069309836520e+02  7.9139075107065685e+02  7.6313780416255020e+02  7.3488240664146383e+02  7.0662500689594356e+02  6.7836596886987650e+02  6.5010558881004204e+02  6.2184410845659409e+02  5.9358172550663096e+02  5.6531860196834009e+02  5.3705487087046288e+02  5.0879064168115775e+02  4.8052600470947078e+02  4.5226103470327581e+02  4.2399579381415259e+02  3.9573033406864266e+02  3.6746469946463469e+02  3.3919892780074269e+02  3.1093305234668816e+02  2.8266710347767082e+02  2.5440111043490890e+02  2.2613510344626297e+02  1.9786911663545857e+02  1.6960319211710913e+02  1.4133738816407907e+02  1.1307178575979802e+02  8.4806520209666587e+01  5.6542238838974605e+01  2.8276953017926310e+01  -4.2730688830871144e-04  2.0054138680380383e+04  1.9903263761847134e+04  1.9751669256051784e+04  1.9599960910085538e+04  1.9448373163735316e+04  1.9296925716785263e+04  1.9145594191805303e+04  1.8994352912687249e+04  1.8843181189896881e+04  1.8692063301790702e+04  1.8540987411897262e+04  1.8389944560637923e+04  1.8238927899507547e+04  1.8087932138289016e+04  1.7936953149797126e+04  1.7785987685648968e+04  1.7635033169525253e+04  1.7484087544773316e+04  1.7333149160536228e+04  1.7182216685563981e+04  1.7031289042198619e+04  1.6880365355268805e+04  1.6729444912150997e+04  1.6578527131298331e+04  1.6427611537263969e+04  1.6276697740756488e+04  1.6125785422629777e+04  1.5974874320974028e+04  1.5823964220668029e+04  1.5673054944896670e+04  1.5522146348245835e+04  1.5371238311068888e+04  1.5220330734882127e+04  1.5069423538595503e+04  1.4918516655423145e+04  1.4767610030348464e+04  1.4616703618042424e+04  1.4465797381152848e+04  1.4314891288897685e+04  1.4163985315907785e+04  1.4013079441274565e+04  1.3862173647766009e+04  1.3711267921181179e+04  1.3560362249818749e+04  1.3409456624039287e+04  1.3258551035904940e+04  1.3107645478882816e+04  1.2956739947600980e+04  1.2805834437647853e+04  1.2654928945407548e+04  1.2504023467924888e+04  1.2353118002795132e+04  1.2202212548074267e+04  1.2051307102206463e+04  1.1900401663966046e+04  1.1749496232411753e+04  1.1598590806851658e+04  1.1447685386817342e+04  1.1296779972046406e+04  1.1145874562472722e+04  1.0994969158223916e+04  1.0844063759626157e+04  1.0693158367216294e+04  1.0542252981761896e+04  1.0391347604289826e+04  1.0240442236124567e+04  1.0089536878937601e+04  9.9386315348097032e+03  9.7877262063085800e+03  9.6368208965845752e+03  9.4859156094882037e+03  9.3350103497137206e+03  9.1841051229742679e+03  9.0331999362149654e+03  8.8822947978720604e+03  8.7313897181877401e+03  8.5804847095924360e+03  8.4295797871689028e+03  8.2786749692155317e+03  8.1277702779300098e+03  7.9768657402390427e+03  7.8259613888054409e+03  7.6750572632505728e+03  7.5241534116384773e+03  7.3732498922780878e+03  7.2223467759122659e+03  7.0714441483775854e+03  6.9205421138374777e+03  6.7696407987142438e+03  6.6187403564739689e+03  6.4678409734535717e+03  6.3169428759633838e+03  6.1660463389536362e+03  6.0151516966029021e+03  5.8642593552746821e+03  5.7133698094010197e+03  5.5624836609973181e+03  5.4116016437010012e+03  5.2607246524743268e+03  5.1098537804392417e+03  4.9589903647509263e+03  4.8081360440098979e+03  4.6572928305239348e+03  4.5064632018522407e+03  4.3556502176316963e+03  4.2048576699005534e+03  4.0540902783046704e+03  3.9033539461683581e+03  3.7526561001930636e+03  3.6020061467696414e+03  3.4514160938299565e+03  3.3009014136274204e+03  3.1504822684367173e+03  3.0001853120931009e+03  2.8500465223981546e+03  2.7001159356363778e+03  2.5504670636168617e+03  2.4012283291999829e+03  2.2527163157847599e+03  2.1052526745504779e+03  1.9619659647009360e+03  1.8298342729920980e+03  1.2949928854193931e+03  1.2691523917763236e+03  1.2415349291546115e+03  1.2137681917155203e+03  1.1858634622694954e+03  1.1578715742325148e+03  1.1298171346198776e+03  1.1017165753449788e+03  1.0735811620693289e+03  1.0454189875169793e+03  1.0172360139905053e+03  9.8903671801713347e+02  9.6082450959281437e+02  9.3260201738198964e+02  9.0437128828604705e+02  8.7613393008536787e+02  8.4789121514049100e+02  8.1964415689487680e+02  7.9139356705720888e+02  7.6314009885604605e+02  7.3488428011867779e+02  7.0662653882152608e+02  6.7836722300460258e+02  6.5010661641990566e+02  6.2184495091738256e+02  5.9358241631249200e+02  5.6531916829341026e+02  5.3705533479115411e+02  5.0879102113737548e+02  4.8052631426191289e+02  4.5226128612831081e+02  4.2399599