<?xml version="1.0"?>
<VTKFile type="UnstructuredGrid"  version="0.1"  >
<UnstructuredGrid>
<Piece  NumberOfPoints="21400" NumberOfCells="42336">
<Points>
<DataArray  type="Float64"  NumberOfComponents="3"  format="ascii">0 0 0  0.004583333333333333 0 0  0.009166666666666667 0 0  0.01375 0 0  0.01833333333333333 0 0  0.02291666666666667 0 0  0.0275 0 0  0.03208333333333334 0 0  0.03666666666666667 0 0  0.04125 0 0  0.04583333333333334 0 0  0.05041666666666667 0 0  0.055 0 0  0.05958333333333334 0 0  0.06416666666666668 0 0  0.06875000000000001 0 0  0.07333333333333333 0 0  0.07791666666666666 0 0  0.08249999999999999 0 0  0.08708333333333333 0 0  0.09166666666666667 0 0  0.09625000000000002 0 0  0.1008333333333333 0 0  0.1054166666666667 0 0  0.11 0 0  0.1145833333333333 0 0  0.1191666666666667 0 0  0.12375 0 0  0.1283333333333334 0 0  0.1329166666666667 0 0  0.1375 0 0  0.1420833333333333 0 0  0.1466666666666667 0 0  0.15125 0 0  0.1558333333333333 0 0  0.1604166666666667 0 0  0.165 0 0  0.1695833333333333 0 0  0.1741666666666667 0 0  0.17875 0 0  0.1833333333333333 0 0  0.1879166666666667 0 0  0.1925 0 0  0.1970833333333333 0 0  0.2016666666666667 0 0  0.20625 0 0  0.2108333333333333 0 0  0.2154166666666666 0 0  0.22 0 0  0.2245833333333334 0 0  0.2291666666666667 0 0  0.23375 0 0  0.2383333333333333 0 0  0.2429166666666667 0 0  0.2475 0 0  0.2520833333333333 0 0  0.2566666666666667 0 0  0.26125 0 0  0.2658333333333334 0 0  0.2704166666666666 0 0  0.275 0 0  0.2795833333333334 0 0  0.2841666666666667 0 0  0.28875 0 0  0.2933333333333333 0 0  0.2979166666666667 0 0  0.3025 0 0  0.3070833333333334 0 0  0.3116666666666666 0 0  0.31625 0 0  0.3208333333333333 0 0  0.3254166666666667 0 0  0.33 0 0  0.3345833333333333 0 0  0.3391666666666667 0 0  0.34375 0 0  0.3483333333333333 0 0  0.3529166666666667 0 0  0.3575 0 0  0.3620833333333333 0 0  0.3666666666666667 0 0  0.37125 0 0  0.3758333333333334 0 0  0.3804166666666667 0 0  0.3850000000000001 0 0  0.3895833333333333 0 0  0.3941666666666667 0 0  0.39875 0 0  0.4033333333333334 0 0  0.4079166666666666 0 0  0.4125 0 0  0.4170833333333334 0 0  0.4216666666666667 0 0  0.42625 0 0  0.4308333333333333 0 0  0.4354166666666667 0 0  0.44 0 0  0.4445833333333333 0 0  0.4491666666666667 0 0  0.45375 0 0  0.4583333333333333 0 0  0.4629166666666666 0 0  0.4675 0 0  0.4720833333333334 0 0  0.4766666666666667 0 0  0.4812500000000001 0 0  0.4858333333333333 0 0  0.4904166666666667 0 0  0.495 0 0  0.4995833333333334 0 0  0.5041666666666667 0 0  0.50875 0 0  0.5133333333333334 0 0  0.5179166666666667 0 0  0.5225 0 0  0.5270833333333333 0 0  0.5316666666666667 0 0  0.53625 0 0  0.5408333333333333 0 0  0.5454166666666667 0 0  0.55 0 0  0.5545833333333333 0 0  0.5591666666666667 0 0  0.5637500000000001 0 0  0.5683333333333334 0 0  0.5729166666666666 0 0  0.5775 0 0  0.5820833333333334 0 0  0.5866666666666667 0 0  0.5912499999999999 0 0  0.5958333333333334 0 0  0.6004166666666667 0 0  0.605 0 0  0.6095833333333334 0 0  0.6141666666666667 0 0  0.61875 0 0  0.6233333333333333 0 0  0.6279166666666667 0 0  0.6325000000000001 0 0  0.6370833333333333 0 0  0.6416666666666666 0 0  0.64625 0 0  0.6508333333333334 0 0  0.6554166666666666 0 0  0.6599999999999999 0 0  0.6645833333333334 0 0  0.6691666666666667 0 0  0.67375 0 0  0.6783333333333333 0 0  0.6829166666666667 0 0  0.6875 0 0  0.6920833333333333 0 0  0.6966666666666667 0 0  0.70125 0 0  0.7058333333333333 0 0  0.7104166666666667 0 0  0.7150000000000001 0 0  0.7195833333333334 0 0  0.7241666666666666 0 0  0.72875 0 0  0.7333333333333334 0 0  0.7379166666666667 0 0  0.7425 0 0  0.7470833333333333 0 0  0.7516666666666667 0 0  0.75625 0 0  0.7608333333333334 0 0  0.7654166666666666 0 0  0.7700000000000001 0 0  0 0.002380952380952381 0  0.004583333333333333 0.002380952380952381 0  0.009166666666666667 0.002380952380952381 0  0.01375 0.002380952380952381 0  0.01833333333333333 0.002380952380952381 0  0.02291666666666667 0.002380952380952381 0  0.0275 0.002380952380952381 0  0.03208333333333334 0.002380952380952381 0  0.03666666666666667 0.002380952380952381 0  0.04125 0.002380952380952381 0  0.04583333333333334 0.002380952380952381 0  0.05041666666666667 0.002380952380952381 0  0.055 0.002380952380952381 0  0.05958333333333334 0.002380952380952381 0  0.06416666666666668 0.002380952380952381 0  0.06875000000000001 0.002380952380952381 0  0.07333333333333333 0.002380952380952381 0  0.07791666666666666 0.002380952380952381 0  0.08249999999999999 0.002380952380952381 0  0.08708333333333333 0.002380952380952381 0  0.09166666666666667 0.002380952380952381 0  0.09625000000000002 0.002380952380952381 0  0.1008333333333333 0.002380952380952381 0  0.1054166666666667 0.002380952380952381 0  0.11 0.002380952380952381 0  0.1145833333333333 0.002380952380952381 0  0.1191666666666667 0.002380952380952381 0  0.12375 0.002380952380952381 0  0.1283333333333334 0.002380952380952381 0  0.1329166666666667 0.002380952380952381 0  0.1375 0.002380952380952381 0  0.1420833333333333 0.002380952380952381 0  0.1466666666666667 0.002380952380952381 0  0.15125 0.002380952380952381 0  0.1558333333333333 0.002380952380952381 0  0.1604166666666667 0.002380952380952381 0  0.165 0.002380952380952381 0  0.1695833333333333 0.002380952380952381 0  0.1741666666666667 0.002380952380952381 0  0.17875 0.002380952380952381 0  0.1833333333333333 0.002380952380952381 0  0.1879166666666667 0.002380952380952381 0  0.1925 0.002380952380952381 0  0.1970833333333333 0.002380952380952381 0  0.2016666666666667 0.002380952380952381 0  0.20625 0.002380952380952381 0  0.2108333333333333 0.002380952380952381 0  0.2154166666666666 0.002380952380952381 0  0.22 0.002380952380952381 0  0.2245833333333334 0.002380952380952381 0  0.2291666666666667 0.002380952380952381 0  0.23375 0.002380952380952381 0  0.2383333333333333 0.002380952380952381 0  0.2429166666666667 0.002380952380952381 0  0.2475 0.002380952380952381 0  0.2520833333333333 0.002380952380952381 0  0.2566666666666667 0.002380952380952381 0  0.26125 0.002380952380952381 0  0.2658333333333334 0.002380952380952381 0  0.2704166666666666 0.002380952380952381 0  0.275 0.002380952380952381 0  0.2795833333333334 0.002380952380952381 0  0.2841666666666667 0.002380952380952381 0  0.28875 0.002380952380952381 0  0.2933333333333333 0.002380952380952381 0  0.2979166666666667 0.002380952380952381 0  0.3025 0.002380952380952381 0  0.3070833333333334 0.002380952380952381 0  0.3116666666666666 0.002380952380952381 0  0.31625 0.002380952380952381 0  0.3208333333333333 0.002380952380952381 0  0.3254166666666667 0.002380952380952381 0  0.33 0.002380952380952381 0  0.3345833333333333 0.002380952380952381 0  0.3391666666666667 0.002380952380952381 0  0.34375 0.002380952380952381 0  0.3483333333333333 0.002380952380952381 0  0.3529166666666667 0.002380952380952381 0  0.3575 0.002380952380952381 0  0.3620833333333333 0.002380952380952381 0  0.3666666666666667 0.002380952380952381 0  0.37125 0.002380952380952381 0  0.3758333333333334 0.002380952380952381 0  0.3804166666666667 0.002380952380952381 0  0.3850000000000001 0.002380952380952381 0  0.3895833333333333 0.002380952380952381 0  0.3941666666666667 0.002380952380952381 0  0.39875 0.002380952380952381 0  0.4033333333333334 0.002380952380952381 0  0.4079166666666666 0.002380952380952381 0  0.4125 0.002380952380952381 0  0.4170833333333334 0.002380952380952381 0  0.4216666666666667 0.002380952380952381 0  0.42625 0.002380952380952381 0  0.4308333333333333 0.002380952380952381 0  0.4354166666666667 0.002380952380952381 0  0.44 0.002380952380952381 0  0.4445833333333333 0.002380952380952381 0  0.4491666666666667 0.002380952380952381 0  0.45375 0.002380952380952381 0  0.4583333333333333 0.002380952380952381 0  0.4629166666666666 0.002380952380952381 0  0.4675 0.002380952380952381 0  0.4720833333333334 0.002380952380952381 0  0.4766666666666667 0.002380952380952381 0  0.4812500000000001 0.002380952380952381 0  0.4858333333333333 0.002380952380952381 0  0.4904166666666667 0.002380952380952381 0  0.495 0.002380952380952381 0  0.4995833333333334 0.002380952380952381 0  0.5041666666666667 0.002380952380952381 0  0.50875 0.002380952380952381 0  0.5133333333333334 0.002380952380952381 0  0.5179166666666667 0.002380952380952381 0  0.5225 0.002380952380952381 0  0.5270833333333333 0.002380952380952381 0  0.5316666666666667 0.002380952380952381 0  0.53625 0.002380952380952381 0  0.5408333333333333 0.002380952380952381 0  0.5454166666666667 0.002380952380952381 0  0.55 0.002380952380952381 0  0.5545833333333333 0.002380952380952381 0  0.5591666666666667 0.002380952380952381 0  0.5637500000000001 0.002380952380952381 0  0.5683333333333334 0.002380952380952381 0  0.5729166666666666 0.002380952380952381 0  0.5775 0.002380952380952381 0  0.5820833333333334 0.002380952380952381 0  0.5866666666666667 0.002380952380952381 0  0.5912499999999999 0.002380952380952381 0  0.5958333333333334 0.002380952380952381 0  0.6004166666666667 0.002380952380952381 0  0.605 0.002380952380952381 0  0.6095833333333334 0.002380952380952381 0  0.6141666666666667 0.002380952380952381 0  0.61875 0.002380952380952381 0  0.6233333333333333 0.002380952380952381 0  0.6279166666666667 0.002380952380952381 0  0.6325000000000001 0.002380952380952381 0  0.6370833333333333 0.002380952380952381 0  0.6416666666666666 0.002380952380952381 0  0.64625 0.002380952380952381 0  0.6508333333333334 0.002380952380952381 0  0.6554166666666666 0.002380952380952381 0  0.6599999999999999 0.002380952380952381 0  0.6645833333333334 0.002380952380952381 0  0.6691666666666667 0.002380952380952381 0  0.67375 0.002380952380952381 0  0.6783333333333333 0.002380952380952381 0  0.6829166666666667 0.002380952380952381 0  0.6875 0.002380952380952381 0  0.6920833333333333 0.002380952380952381 0  0.6966666666666667 0.002380952380952381 0  0.70125 0.002380952380952381 0  0.7058333333333333 0.002380952380952381 0  0.7104166666666667 0.002380952380952381 0  0.7150000000000001 0.002380952380952381 
[...]
<PointData  Scalars="pressure"> 
<DataArray  type="Float64"  Name="pressure"  format="ascii">1.9397161042873904e+04  1.9234730201515860e+04  1.9080910479938168e+04  1.8928292359108364e+04  1.8776324497786765e+04  1.8624677391217563e+04  1.8473231360735514e+04  1.8321918760577188e+04  1.8170699993748542e+04  1.8019549656367573e+04  1.7868450595900242e+04  1.7717390741172654e+04  1.7566361327603001e+04  1.7415355833488804e+04  1.7264369311021444e+04  1.7113397947813148e+04  1.6962438769466331e+04  1.6811489431838116e+04  1.6660548072286754e+04  1.6509613200850421e+04  1.6358683619162472e+04  1.6207758359073876e+04  1.6056836635561554e+04  1.5905917810178480e+04  1.5755001362405976e+04  1.5604086867012178e+04  1.5453173976031025e+04  1.5302262404333704e+04  1.5151351918018803e+04  1.5000442325031430e+04  1.4849533467557130e+04  1.4698625215836733e+04  1.4547717463124742e+04  1.4396810121571430e+04  1.4245903118854058e+04  1.4094996395416982e+04  1.3944089902208234e+04  1.3793183598821497e+04  1.3642277451969792e+04  1.3491371434230974e+04  1.3340465523016193e+04  1.3189559699721469e+04  1.3038653949029842e+04  1.2887748258337453e+04  1.2736842617281616e+04  1.2585937017353186e+04  1.2435031451578345e+04  1.2284125914258007e+04  1.2133220400754893e+04  1.1982314907320364e+04  1.1831409430954433e+04  1.1680503969293793e+04  1.1529598520523632e+04  1.1378693083309854e+04  1.1227787656749342e+04  1.1076882240336246e+04  1.0925976833943067e+04  1.0775071437815934e+04  1.0624166052583741e+04  1.0473260679281617e+04  1.0322355319389491e+04  1.0171449974887306e+04  1.0020544648328845e+04  9.8696393429369673e+03  9.7187340627238373e+03  9.5678288126405569e+03  9.4169235987619377e+03  9.2660184285131036e+03  9.1151133109466609e+03  8.9642082570805815e+03  8.8133032803096539e+03  8.6623983969057608e+03  8.5114936266259774e+03  8.3605889934511597e+03  8.2096845264831318e+03  8.0587802610341068e+03  7.9078762399498992e+03  7.7569725152171313e+03  7.6060691499158784e+03  7.4551662205928678e+03  7.3042638201467780e+03  7.1533620613382227e+03  7.0024610810621871e+03  6.8515610455527803e+03  6.7006621567296097e+03  6.5497646599451518e+03  6.3988688534553885e+03  6.2479751000161295e+03  6.0970838411102013e+03  5.9461956144435480e+03  5.7953110755213347e+03  5.6444310243435584e+03  5.4935564385630596e+03  5.3426885148569827e+03  5.1918287208174634e+03  5.0409788604286305e+03  4.8901411572531915e+03  4.7393183609301204e+03  4.5885138846709397e+03  4.4377319844029107e+03  4.2869779944212405e+03  4.1362586403911155e+03  3.9855824589134354e+03  3.8349603641501662e+03  3.6844064164568699e+03  3.5339388600649077e+03  3.3835815077640905e+03  3.2333654158375739e+03  3.0833313457737549e+03  2.9335262869215030e+03  2.7840252478371517e+03  2.6348134138014748e+03  2.4860791216009711e+03  2.3309602401829820e+03  1.5949980910268632e+03  1.5042526937575128e+03  1.4666439843614362e+03  1.4384951671581489e+03  1.4109104642402358e+03  1.3831368089047598e+03  1.3552789979271997e+03  1.3273292969509964e+03  1.2993090388514058e+03  1.2712343398458747e+03  1.2431181876631872e+03  1.2149703401308477e+03  1.1867980897475097e+03  1.1586068932354572e+03  1.1304008645427141e+03  1.1021831345925038e+03  1.0739561098088493e+03  1.0457216574039628e+03  1.0174812389083629e+03  9.8923600728929478e+02  9.6098687836486044e+02  9.3273458392870600e+02  9.0447971172759935e+02  8.7622273588035216e+02  8.4796404026458345e+02  8.1970393666880011e+02  7.9144267900312764e+02  7.6318047451024245e+02  7.3491749267006026e+02  7.0665387231505281e+02  6.7838972734579136e+02  6.5012515134359478e+02  6.2186022130889751e+02  5.9359500070318165e+02  5.6532954193427929e+02  5.3706388839610599e+02  5.0879807615224865e+02  4.8053213533664933e+02  4.5226609133300104e+02  4.2399996578688172e+02  3.9573377750131272e+02  3.6746754326828272e+02  3.3920127869822232e+02  3.1093499913138356e+02  2.8266872076112037e+02  2.5440246218439222e+02  2.2613624683102529e+02  1.9787010672286428e+02  1.6960409227140744e+02  1.4133826691148397e+02  1.1307290621343101e+02  8.4807111482493383e+01  5.6551449073742958e+01  2.8205907469646547e+01  7.9925836682314955e-01  1.9388878479309089e+04  1.9234779571944786e+04  1.9080726747529876e+04  1.8928240499301995e+04  1.8776290483238543e+04  1.8624656685153524e+04  1.8473217315753816e+04  1.8321908832837566e+04  1.8170692720096526e+04  1.8019544191322435e+04  1.7868446410288238e+04  1.7717387488188215e+04  1.7566358770570783e+04  1.7415353805593673e+04  1.7264367691510466e+04  1.7113396647328733e+04  1.6962437720661590e+04  1.6811488583175567e+04  1.6660547383823232e+04  1.6509612641299471e+04  1.6358683163801463e+04  1.6207757988223257e+04  1.6056836333460440e+04  1.5905917564140336e+04  1.5755001162176044e+04  1.5604086704272449e+04  1.5453173844015033e+04  1.5302262297523963e+04  1.5151351831907410e+04  1.5000442255929313e+04  1.4849533412441227e+04  1.4698625172227015e+04  1.4547717428984753e+04  1.4396810095227691e+04  1.4245903098930439e+04  1.4094996380781295e+04  1.3944089891928517e+04  1.3793183592130295e+04  1.3642277448234876e+04  1.3491371432931292e+04  1.3340465523722143e+04  1.3189559702078684e+04  1.3038653952745823e+04  1.2887748263170561e+04  1.2736842623032016e+04  1.2585937023855326e+04  1.2435031458694772e+04  1.2284125921874220e+04  1.2133220408775049e+04  1.1982314915663699e+04  1.1831409439552255e+04  1.1680503978086905e+04  1.1529598529460120e+04  1.1378693092343168e+04  1.1227787665836533e+04  1.1076882249436376e+04  1.0925976843015689e+04  1.0775071446819571e+04  1.0624166061474345e+04  1.0473260688010929e+04  1.0322355327903235e+04  1.0171449983123170e+04  1.0020544656214146e+04  9.8696393503859545e+03  9.7187340696344763e+03  9.5678288188907427e+03  9.4169236042049088e+03  9.2660184329719796e+03  9.1151133142078234e+03  8.9642082588856974e+03  8.8133032803459992e+03  8.6623983947945235e+03  8.5114936219080519e+03  8.3605889855699461e+03  8.2096845147636013e+03  8.0587802446574324e+03  7.9078762179225705e+03  7.7569724863334204e+03  7.6060691127121636e+03  7.4551661732919692e+03  7.3042637605901182e+03  7.1533619869029881e+03  7.0024609885600903e+03  6.8515609311060743e+03  6.7006620156189983e+03  6.5497644864227450e+03  6.3988686405140415e+03  6.2479748391040584e+03  6.0970835217765416e+03  5.9461952238961449e+03  5.7953105980721602e+03  5.6444304407090867e+03  5.4935557249756148e+03  5.3426876419274686e+03  5.1918276520676236e+03  5.0409775503794099e+03  4.8901395489105098e+03  4.7393163824440371e+03  4.5885114448500026e+03  4.4377289666297938e+03  4.2869742483229038e+03  4.1362539703507746e+03  3.9855766081578477e+03  3.8349529928409243e+03  3.6843970716836752e+03  3.5339269380226069e+03  3.3835662008865770e+03  3.2333457668348437e+03  3.0833055309249207e+03  2.9334967403189071e+03  2.7839752674579768e+03  2.6347936042278134e+03  2.4855839151675791e+03  2.3365578453779972e+03  2.1941088775627627e+03  2.0635965034872188e+03  1.4653179712668136e+03  1.4386728368976874e+03  1.4108949608399498e+03  1.3831518448016993e+03  1.3552883956399980e+03  1.3273370599299699e+03  1.2993149225151733e+03  1.2712388267875792e+03  1.2431216192165969e+03  1.2149729856758202e+03  1.1868001469782321e+03  1.1586085066517451e+03  1.1304021398798700e+03  1.1021841498297549e+03  1.0739569230393165e+03  1.0457223123830511e+03  1.0174817689533701e+03  9.8923643803314178e+02  9.6098722971713175e+02  9.3273487148691174e+02  9.0447994780451700e+02  8.7622293026078682e+02  8.4796420076939262e+02  8.1970406958006186e+02  7.9144278938809646e+02  7.6318056647065396e+02  7.3491756953573565e+02  7.0665393679547503e+02  6.7838978164961725e+02  6.5012519727345523e+02  6.2186026033695612e+02  5.9359503403155907e+02  5.6532957054344627e+02  5.3706391308359002e+02  5.0879809756340308e+02  4.8053215398876097e+02  4.5226610763356126e+02  4.2399998004641350e+02  3.9573378994059499e+02  3.6746755401903835e+02  3.3920128779503489e+02  3.1093500649040442e+02  2.8266872613552692e+02  2.5440246508581365e+02  2.2613624631384454e+02  1.9787010147258297e+02  1.6960407641140452e+02  1.4133825751633950e+02  1.1307269643403001e+02  8.4808324761364148e+01  5.6540035733092090e+01  2.8309221116700311e+01  -4.3494393901387776e-02  1.9385209192159451e+04  1.9233278993307260e+04  1.9080347505992951e+04  1.8928039540815986e+04  1.8776178595013931e+04  1.8624585505996696e+04  1.8473169148372344e+04  1.8321874631619499e+04  1.8170667608749132e+04  1.8019525287492153e+04  1.7868431908176630e+04  1.7717376199698996e+04  1.7566349883047333e+04  1.7415346745190298e+04  1.7264362042247682e+04  1.7113392101036792e+04  1.6962434044874077e+04  1.6811485599870790e+04  1.6660544954950001e+04  1.6509610658676058e+04  1.6358681541910320e+04  1.6207756658970444e+04  1.6056835242297508e+04  1.5905916667150288e+04  1.5755000423853937e+04  1.5604086095815039e+04  1.5453173341988981e+04  1.5302261882819656e+04  1.5151351488910626e+04  1.5000441971861279e+04  1.4849533176829707e+04  1.4698624976480462e+04  1.4547717266048086e+04  1.4396809959303106e+04  1.4245902985250295e+04  1.4094996285422923e+04  1.3944089811662972e+04  1.3793183524298551e+04  1.3642277390646374e+04  1.3491371383780721e+04  1.3340465481521042e+04  1.3189559665599216e+04  1.3038653920974542e+04  1.2887748235270265e+04  1.2736842598310304e+04  1.2585937001738657e+04  1.2435031438706934e+04  1.2284125903618538e+04  1.2133220391919538e+04  1.1982314899928639e+04  1.1831409424699754e+04  1.1680503963912019e+04  1.1529598515783180e+04  1.1378693079003089e+04  1.1227787652684812e+04  1.1076882236331528e+04  1.0925976829817984e+04  1.0775071433385830e+04  1.0624166047652579e+04  1.0473260673634686e+04  1.0322355312785387e+04  1.0171449967048928e+04  1.0020544638933061e+04  9.8696393316025569e+03  9.7187340489972594e+03  9.5678287959790359e+03  9.4169235785131823e+03  9.2660184038909465e+03  9.1151132810016879e+03  8.9642082206646373e+03  8.8133032360328798e+03  8.6623983430845801e+03  8.5114935612200024e+03  8.3605889139866667e+03  8.2096844299601325e+03  8.0587801438135048e+03  7.9078760976163239e+03  7.7569723424120966e+03  7.6060689401348063e+03  7.4551659659377683e+03  7.3042635110247666e+03  7.1533616860934872e+03  7.0024606255261497e+03  6.8515604924932950e+03  6.7006614851752865e+03  6.5497638443545065e+03  6.3988678626923411e+03  6.2479738960826280e+03  6.0970823775723529e+03  5.9461938344683585e+03  5.7953089094151319e+03  5.6444283864472063e+03  5.4935532233095073e+03  5.3426845917272803e+03  5.1918239278333749e+03  5.0409729956805095e+03  4.8901339677620299e+03  4.7393095278549017e+03  4.5885030034573629e+03  4.4377185378725153e+03  4.2869613159517594e+03  4.1362378631675665e+03  3.9855564457159185e+03  3.8349276105612184e+03  3.6843649193038727e+03  3.5338859475709946e+03  3.3835136417815752e+03  3.2332780929280857e+03  3.0832187527759370e+03  2.9333869963039219e+03  2.7838437944899811e+03  2.6346421617441724e+03  2.4857878788464946e+03  2.3385696740908143e+03  2.1891150564414638e+03  1.5008589969420109e+03  1.4668405163612044e+03  1.4384501435131265e+03  1.4109568453759541e+03  1.3831897702376609e+03  1.3553227237956771e+03  1.3273635041752575e+03  1.2993351272769085e+03  1.2712541924475140e+03  1.2431333661660708e+03  1.2149820360854569e+03  1.1868071797335399e+03  1.1586140169467701e+03  1.1304064900447868e+03  1.1021876071173983e+03  1.0739596866180859e+03  1.0457245323279192e+03  1.0174835595873094e+03  9.8923788734783375e+02  9.6098840608351406e+02  9.3273582848632736e+02  9.0448072774723505e+02  8.7622356677908692e+02  8.4796472075117606e+02  8.1970449462712520e+02  7.9144313692774881e+02  7.6318085061152874e+02  7.3491780173264658e+02  7.0665412637010593e+02  6.7838993620119572e+02  6.5012532300458679e+02  6.2186036231338369e+02  5.9359511638993092e+02  5.6532963665774150e+02  5.3706396569824778e+02  5.0879813889917779e+02  4.8053218582566274e+02  4.5226613137375489e+02  4.2399999675841917e+02  3.9573380038429178e+02  3.6746755864832312e+02  3.3920128673066625e+02  3.1093499944765676e+02  2.8266871227672817e+02  2.5440244273129343e+02  2.2613621241916124e+02  1.9787005027601919e+02  1.6960399908114857e+02  1.4133812104630309e+02  1.1307255935322476e+02  8.4807322137544759e+01  5.6543968469431654e+01  2.8285078565914667e+01  5.6319948734680006e-03  1.9383037713587128e+04  1.9231850816011643e+04  1.9079738512714597e+04  1.8927731449931027e+04  1.8775996280974268e+04  1.8624468238502552e+04  1.8473088874284025e+04  1.8321817275153746e+04  1.8170625311134318e+04  1.8019493349231823e+04  1.7868407352667658e+04  1.7717357054126463e+04  1.7566334790451932e+04  1.7415334743314546e+04  1.7264352431261668e+04  1.7113384361149725e+04  1.6962427783182284e+04  1.6811480514998257e+04  1.6660540812879612e+04  1.6509607275828301e+04  1.6358678773040123e+04  1.6207754388343743e+04  1.6056833377149025e+04  1.5905915132759379e+04  1.5754999159788949e+04  1.5604085053035451e+04  1.5453172480586745e+04  1.5302261170243188e+04  1.5151350898557841e+04  1.5000441481957672e+04  1.4849532769528894e+04  1.4698624637139641e+04  1.4547716982642140e+04  1.4396809721949210e+04  1.4245902785821168e+04  1.4094996117231420e+04  1.3944089669204352e+04  1.3793183403039538e+04  1.3642277286852290e+04  1.3491371294373595e+04  1.3340465403963095e+04  1.3189559597797026e+04  1.3038653861200160e+04  1.2887748182096246e+04  1.2736842550556101e+04  1.2585936958426330e+04  1.2435031399024560e+04  1.2284125866889768e+04  1.2133220357578324e+04  1.1982314867498080e+04  1.1831409393774258e+04  1.1680503934142176e+04  1.1529598486862702e+04  1.1378693050657384e+04  1.1227787624660732e+04  1.1076882208387935e+04  1.0925976801716746e+04  1.0775071404882943e+04  1.0624166018489072e+04  1.0473260643526950e+04  1.0322355281414604e+04  1.0171449934049188e+04  1.0020544603877690e+04  9.8696392939882153e+03  9.7187340082251540e+03  9.5678287513325704e+03  9.4169235291311907e+03  9.2660183487355480e+03  9.1151132188194952e+03  8.9642081499399028e+03  8.8133031549307962e+03  8.6623982493826115e+03  8.5114934522245931e+03  8.3605887864322431e+03  8.2096842798864509e+03  8.0587799664167042e+03  7.9078758870678830e+03  7.7569720916387123e+03  7.6060686405504784e+03  7.4551656071175157e+03  7.3042630803068541e+03  7.1533611680939566e+03  7.0024600015454935e+03  6.8515597397901547e+03  6.7006605760756411e+03  6.5497627451566123e+03  6.3988665323168752e+03  6.2479722844034568e+03  6.0970804233445524e+03  5.9461914627450187e+03  5.7953060283103696e+03  5.6444248830562665e+03  5.4935489585322111e+03  5.3426793936510276e+03  5.1918175832047546e+03  5.0409652388139493e+03  4.8901244659751637e+03  4.7392978621478778e+03  4.5884886426158564e+03  4.4377008033999527e+03  4.2869393341317509e+03  4.1362104990201433e+03  3.9855222115890010e+03  3.8348845397752179e+03  3.6843103936661546e+03  3.5338164710332135e+03  3.3834245674400695e+03  3.2331633936850235e+03  3.0830711717564200e+03  2.9331991714556748e+03  2.7836153098333075e+03  2.6344139562729165e+03  2.4858622370473290e+03  2.3384166014141092e+03  2.1952987170891688e+03  2.0630012765902829e+03  1.4646008521955580e+03  1.4386524728997001e+03  1.4110135542393652e+03  1.3832632695817058e+03  1.3553808157085289e+03  1.3274085023599057e+03  1.2993693120905180e+03  1.2712801761237815e+03  1.2431532328344199e+03  1.2149973514994290e+03  1.1868190892044140e+03  1.1586233546326464e+03  1.1304138662119365e+03  1.1021934721903854e+03  1.0739643766002189e+03  1.0457283006748542e+03  1.0174865995827158e+03  9.8924034790843461e+02  9.6099040302675917e+02  9.3273745265129696e+02  9.0448205091625607e+02  8.7622464604726099e+02  8.4796560178859738e+02  8.1970521414198276e+02  7.9144372454591780e+02  7.6318133032505750e+02  7.3491819302603528e+02  7.0665444510306781e+02  6.7839019530538371e+02  6.5012553303673155e+02  6.2186053189649715e+02  5.9359525256637869e+02  5.6532974517219213e+02  5.3706405122412389e+02  5.0879820521882925e+02  4.8053223597168397e+02  4.5226616773637221e+02  4.2400002116133516e+02  3.9573381412833970e+02  3.6746756251798143e+02  3.3920128095152381e+02  3.1093498357054079e+02  2.8266868494007872e+02  2.5440240120750227e+02  2.2613615172663589e+02  1.9786996155594284e+02  1.6960386521175593e+02  1.4133791454978450e+02  1.1307218507643340e+02  8.4806807354920821e+01  5.6542424527029809e+01  2.8277044171208601e+01  -4.2733914430403031e-04  1.9381524557413013e+04  1.9230649638879833e+04  1.9079055133084712e+04  1.8927346787118884e+04  1.8775759040769270e+04  1.8624311593820035e+04  1.8472980068841145e+04  1.8321738789724441e+04  1.8170567066935761e+04  1.8019449178831663e+04  1.7868373288940784e+04  1.7717330437684570e+04  1.7566313776558007e+04  1.7415318015344128e+04  1.7264339026857891e+04  1.7113373562716606e+04  1.6962419046601230e+04  1.6811473421859406e+04  1.6660535037634600e+04  1.6509602562677243e+04  1.6358674919329942e+04  1.6207751232422050e+04  1.6056830789330801e+04  1.5905913008510357e+04  1.5754997414515072e+04  1.5604083618054974e+04  1.5453171299985723e+04  1.5302260198399652e+04  1.5151350098178145e+04  1.5000440822509245e+04  1.4849532225982653e+04  1.4698624188956370e+04  1.4547716612952305e+04  1.4396809416887219e+04  1.4245902533983504e+04  1.4094995909234580e+04  1.3944089497323566e+04  1.3793183260913002e+04  1.3642277169238696e+04  1.3491371196953154e+04  1.3340465323174047e+04  1.3189559530701197e+04  1.3038653805372298e+04  1.2887748135532825e+04  1.2736842511600129e+04  1.2585936925705197e+04  1.2435031371398622e+04  1.2284125843409707e+04  1.2133220337449642e+04  1.1982314850051387e+04  1.1831409378440283e+04  1.1680503920430479e+04  1.1529598474343398e+04  1.1378693038945074e+04  1.1227787613400138e+04  1.1076882197240629e+04  1.0925976790348543e+04  1.0775071392951428e+04  1.0624166005630832e+04  1.0473260629344017e+04  1.0322355265459613e+04  1.0171449915808693e+04  1.0020544582753011e+04  9.8696392692730915e+03  9.7187339790794085e+03  9.5678287167507315e+03  9.4169234879049563e+03  9.2660182994086717e+03  9.1151131596333635e+03  8.9642080787678024e+03  8.8133030691983840e+03  8.6623981459715342e+03  8.5114933273556981e+03  8.3605886355238581e+03  8.2096840973823528e+03  8.0587797455771924e+03  7.9078756197158900e+03  7.7569717678510633e+03  7.6060682482822185e+03  7.4551651317444466e+03  7.3042625040679059e+03  7.1533604694107416e+03  7.0024591541908985e+03  6.8515587118708436e+03  6.7006593287845326e+03  6.5497612312398369e+03  6.3988646941849520e+03  6.2479700517967694e+03  6.0970777104373919e+03  5.9461881645377125e+03  5.7953020161121503e+03  5.6444199987973170e+03  5.4935430075547820e+03  5.3426721355059044e+03  5.1918087198053427e+03  5.0409543990531620e+03  4.8901111855567260e+03  4.7392815568748483e+03  4.5884685726440239e+03  4.4376760249021272e+03  4.2869086332946172e+03  4.1361723011453651e+03  3.9854744551553372e+03  3.8348245017148411e+03  3.6842344487551013e+03  3.5337197685287861e+03  3.3833006233096962e+03  3.2330036669320120e+03  3.0828648771960538e+03  2.9329342903847951e+03  2.7832854183054806e+03  2.6340466838162693e+03  2.4855346703136152e+03  2.3380710289736135e+03  2.1947843189990426e+03  2.0626526271511925e+03  1.4645925529215631e+03  1.4387520592135913e+03  1.4111345964958455e+03  1.3833678589286485e+03  1.3554631293178707e+03  1.3274712410735003e+03  1.2994168012031660e+03  1.2713162416106825e+03  1.2431808279457164e+03  1.2150186529177718e+03  1.1868356788116344e+03  1.1586363821328259e+03  1.1304241728508491e+03  1.1022016795979500e+03  1.0739709492363404e+03  1.0457335894987373e+03  1.0174908726876697e+03  9.8924381217597988e+02  9.6099321958633323e+02  9.3273974804242755e+02  9.0448392524359201e+02  8.7622617900990917e+02  8.4796685719009258e+02  8.1970624330162832e+02  7.9144456890633080e+02  7.6318202346470798e+02  7.3491876222626297e+02  7.0665491257779183e+02  6.7839057917271066e+02  6.5012584809106204e+02  6.2186079022490208e+02  5.9359546404223158e+02  5.6532991785104559e+02  5.3706419166078786e+02  5.0879831871989927e+02  4.8053232679392670e+02  4.5226623923795285e+02  4.2400007