<?xml version="1.0"?>
<VTKFile type="UnstructuredGrid"  version="0.1"  >
<UnstructuredGrid>
<Piece  NumberOfPoints="21400" NumberOfCells="42336">
<Points>
<DataArray  type="Float64"  NumberOfComponents="3"  format="ascii">0 0 0  0.004583333333333333 0 0  0.009166666666666667 0 0  0.01375 0 0  0.01833333333333333 0 0  0.02291666666666667 0 0  0.0275 0 0  0.03208333333333334 0 0  0.03666666666666667 0 0  0.04125 0 0  0.04583333333333334 0 0  0.05041666666666667 0 0  0.055 0 0  0.05958333333333334 0 0  0.06416666666666668 0 0  0.06875000000000001 0 0  0.07333333333333333 0 0  0.07791666666666666 0 0  0.08249999999999999 0 0  0.08708333333333333 0 0  0.09166666666666667 0 0  0.09625000000000002 0 0  0.1008333333333333 0 0  0.1054166666666667 0 0  0.11 0 0  0.1145833333333333 0 0  0.1191666666666667 0 0  0.12375 0 0  0.1283333333333334 0 0  0.1329166666666667 0 0  0.1375 0 0  0.1420833333333333 0 0  0.1466666666666667 0 0  0.15125 0 0  0.1558333333333333 0 0  0.1604166666666667 0 0  0.165 0 0  0.1695833333333333 0 0  0.1741666666666667 0 0  0.17875 0 0  0.1833333333333333 0 0  0.1879166666666667 0 0  0.1925 0 0  0.1970833333333333 0 0  0.2016666666666667 0 0  0.20625 0 0  0.2108333333333333 0 0  0.2154166666666666 0 0  0.22 0 0  0.2245833333333334 0 0  0.2291666666666667 0 0  0.23375 0 0  0.2383333333333333 0 0  0.2429166666666667 0 0  0.2475 0 0  0.2520833333333333 0 0  0.2566666666666667 0 0  0.26125 0 0  0.2658333333333334 0 0  0.2704166666666666 0 0  0.275 0 0  0.2795833333333334 0 0  0.2841666666666667 0 0  0.28875 0 0  0.2933333333333333 0 0  0.2979166666666667 0 0  0.3025 0 0  0.3070833333333334 0 0  0.3116666666666666 0 0  0.31625 0 0  0.3208333333333333 0 0  0.3254166666666667 0 0  0.33 0 0  0.3345833333333333 0 0  0.3391666666666667 0 0  0.34375 0 0  0.3483333333333333 0 0  0.3529166666666667 0 0  0.3575 0 0  0.3620833333333333 0 0  0.3666666666666667 0 0  0.37125 0 0  0.3758333333333334 0 0  0.3804166666666667 0 0  0.3850000000000001 0 0  0.3895833333333333 0 0  0.3941666666666667 0 0  0.39875 0 0  0.4033333333333334 0 0  0.4079166666666666 0 0  0.4125 0 0  0.4170833333333334 0 0  0.4216666666666667 0 0  0.42625 0 0  0.4308333333333333 0 0  0.4354166666666667 0 0  0.44 0 0  0.4445833333333333 0 0  0.4491666666666667 0 0  0.45375 0 0  0.4583333333333333 0 0  0.4629166666666666 0 0  0.4675 0 0  0.4720833333333334 0 0  0.4766666666666667 0 0  0.4812500000000001 0 0  0.4858333333333333 0 0  0.4904166666666667 0 0  0.495 0 0  0.4995833333333334 0 0  0.5041666666666667 0 0  0.50875 0 0  0.5133333333333334 0 0  0.5179166666666667 0 0  0.5225 0 0  0.5270833333333333 0 0  0.5316666666666667 0 0  0.53625 0 0  0.5408333333333333 0 0  0.5454166666666667 0 0  0.55 0 0  0.5545833333333333 0 0  0.5591666666666667 0 0  0.5637500000000001 0 0  0.5683333333333334 0 0  0.5729166666666666 0 0  0.5775 0 0  0.5820833333333334 0 0  0.5866666666666667 0 0  0.5912499999999999 0 0  0.5958333333333334 0 0  0.6004166666666667 0 0  0.605 0 0  0.6095833333333334 0 0  0.6141666666666667 0 0  0.61875 0 0  0.6233333333333333 0 0  0.6279166666666667 0 0  0.6325000000000001 0 0  0.6370833333333333 0 0  0.6416666666666666 0 0  0.64625 0 0  0.6508333333333334 0 0  0.6554166666666666 0 0  0.6599999999999999 0 0  0.6645833333333334 0 0  0.6691666666666667 0 0  0.67375 0 0  0.6783333333333333 0 0  0.6829166666666667 0 0  0.6875 0 0  0.6920833333333333 0 0  0.6966666666666667 0 0  0.70125 0 0  0.7058333333333333 0 0  0.7104166666666667 0 0  0.7150000000000001 0 0  0.7195833333333334 0 0  0.7241666666666666 0 0  0.72875 0 0  0.7333333333333334 0 0  0.7379166666666667 0 0  0.7425 0 0  0.7470833333333333 0 0  0.7516666666666667 0 0  0.75625 0 0  0.7608333333333334 0 0  0.7654166666666666 0 0  0.7700000000000001 0 0  0 0.002380952380952381 0  0.004583333333333333 0.002380952380952381 0  0.009166666666666667 0.002380952380952381 0  0.01375 0.002380952380952381 0  0.01833333333333333 0.002380952380952381 0  0.02291666666666667 0.002380952380952381 0  0.0275 0.002380952380952381 0  0.03208333333333334 0.002380952380952381 0  0.03666666666666667 0.002380952380952381 0  0.04125 0.002380952380952381 0  0.04583333333333334 0.002380952380952381 0  0.05041666666666667 0.002380952380952381 0  0.055 0.002380952380952381 0  0.05958333333333334 0.002380952380952381 0  0.06416666666666668 0.002380952380952381 0  0.06875000000000001 0.002380952380952381 0  0.07333333333333333 0.002380952380952381 0  0.07791666666666666 0.002380952380952381 0  0.08249999999999999 0.002380952380952381 0  0.08708333333333333 0.002380952380952381 0  0.09166666666666667 0.002380952380952381 0  0.09625000000000002 0.002380952380952381 0  0.1008333333333333 0.002380952380952381 0  0.1054166666666667 0.002380952380952381 0  0.11 0.002380952380952381 0  0.1145833333333333 0.002380952380952381 0  0.1191666666666667 0.002380952380952381 0  0.12375 0.002380952380952381 0  0.1283333333333334 0.002380952380952381 0  0.1329166666666667 0.002380952380952381 0  0.1375 0.002380952380952381 0  0.1420833333333333 0.002380952380952381 0  0.1466666666666667 0.002380952380952381 0  0.15125 0.002380952380952381 0  0.1558333333333333 0.002380952380952381 0  0.1604166666666667 0.002380952380952381 0  0.165 0.002380952380952381 0  0.1695833333333333 0.002380952380952381 0  0.1741666666666667 0.002380952380952381 0  0.17875 0.002380952380952381 0  0.1833333333333333 0.002380952380952381 0  0.1879166666666667 0.002380952380952381 0  0.1925 0.002380952380952381 0  0.1970833333333333 0.002380952380952381 0  0.2016666666666667 0.002380952380952381 0  0.20625 0.002380952380952381 0  0.2108333333333333 0.002380952380952381 0  0.2154166666666666 0.002380952380952381 0  0.22 0.002380952380952381 0  0.2245833333333334 0.002380952380952381 0  0.2291666666666667 0.002380952380952381 0  0.23375 0.002380952380952381 0  0.2383333333333333 0.002380952380952381 0  0.2429166666666667 0.002380952380952381 0  0.2475 0.002380952380952381 0  0.2520833333333333 0.002380952380952381 0  0.2566666666666667 0.002380952380952381 0  0.26125 0.002380952380952381 0  0.2658333333333334 0.002380952380952381 0  0.2704166666666666 0.002380952380952381 0  0.275 0.002380952380952381 0  0.2795833333333334 0.002380952380952381 0  0.2841666666666667 0.002380952380952381 0  0.28875 0.002380952380952381 0  0.2933333333333333 0.002380952380952381 0  0.2979166666666667 0.002380952380952381 0  0.3025 0.002380952380952381 0  0.3070833333333334 0.002380952380952381 0  0.3116666666666666 0.002380952380952381 0  0.31625 0.002380952380952381 0  0.3208333333333333 0.002380952380952381 0  0.3254166666666667 0.002380952380952381 0  0.33 0.002380952380952381 0  0.3345833333333333 0.002380952380952381 0  0.3391666666666667 0.002380952380952381 0  0.34375 0.002380952380952381 0  0.3483333333333333 0.002380952380952381 0  0.3529166666666667 0.002380952380952381 0  0.3575 0.002380952380952381 0  0.3620833333333333 0.002380952380952381 0  0.3666666666666667 0.002380952380952381 0  0.37125 0.002380952380952381 0  0.3758333333333334 0.002380952380952381 0  0.3804166666666667 0.002380952380952381 0  0.3850000000000001 0.002380952380952381 0  0.3895833333333333 0.002380952380952381 0  0.3941666666666667 0.002380952380952381 0  0.39875 0.002380952380952381 0  0.4033333333333334 0.002380952380952381 0  0.4079166666666666 0.002380952380952381 0  0.4125 0.002380952380952381 0  0.4170833333333334 0.002380952380952381 0  0.4216666666666667 0.002380952380952381 0  0.42625 0.002380952380952381 0  0.4308333333333333 0.002380952380952381 0  0.4354166666666667 0.002380952380952381 0  0.44 0.002380952380952381 0  0.4445833333333333 0.002380952380952381 0  0.4491666666666667 0.002380952380952381 0  0.45375 0.002380952380952381 0  0.4583333333333333 0.002380952380952381 0  0.4629166666666666 0.002380952380952381 0  0.4675 0.002380952380952381 0  0.4720833333333334 0.002380952380952381 0  0.4766666666666667 0.002380952380952381 0  0.4812500000000001 0.002380952380952381 0  0.4858333333333333 0.002380952380952381 0  0.4904166666666667 0.002380952380952381 0  0.495 0.002380952380952381 0  0.4995833333333334 0.002380952380952381 0  0.5041666666666667 0.002380952380952381 0  0.50875 0.002380952380952381 0  0.5133333333333334 0.002380952380952381 0  0.5179166666666667 0.002380952380952381 0  0.5225 0.002380952380952381 0  0.5270833333333333 0.002380952380952381 0  0.5316666666666667 0.002380952380952381 0  0.53625 0.002380952380952381 0  0.5408333333333333 0.002380952380952381 0  0.5454166666666667 0.002380952380952381 0  0.55 0.002380952380952381 0  0.5545833333333333 0.002380952380952381 0  0.5591666666666667 0.002380952380952381 0  0.5637500000000001 0.002380952380952381 0  0.5683333333333334 0.002380952380952381 0  0.5729166666666666 0.002380952380952381 0  0.5775 0.002380952380952381 0  0.5820833333333334 0.002380952380952381 0  0.5866666666666667 0.002380952380952381 0  0.5912499999999999 0.002380952380952381 0  0.5958333333333334 0.002380952380952381 0  0.6004166666666667 0.002380952380952381 0  0.605 0.002380952380952381 0  0.6095833333333334 0.002380952380952381 0  0.6141666666666667 0.002380952380952381 0  0.61875 0.002380952380952381 0  0.6233333333333333 0.002380952380952381 0  0.6279166666666667 0.002380952380952381 0  0.6325000000000001 0.002380952380952381 0  0.6370833333333333 0.002380952380952381 0  0.6416666666666666 0.002380952380952381 0  0.64625 0.002380952380952381 0  0.6508333333333334 0.002380952380952381 0  0.6554166666666666 0.002380952380952381 0  0.6599999999999999 0.002380952380952381 0  0.6645833333333334 0.002380952380952381 0  0.6691666666666667 0.002380952380952381 0  0.67375 0.002380952380952381 0  0.6783333333333333 0.002380952380952381 0  0.6829166666666667 0.002380952380952381 0  0.6875 0.002380952380952381 0  0.6920833333333333 0.002380952380952381 0  0.6966666666666667 0.002380952380952381 0  0.70125 0.002380952380952381 0  0.7058333333333333 0.002380952380952381 0  0.7104166666666667 0.002380952380952381 0  0.7150000000000001 0.002380952380952381 
[...]
<PointData  Scalars="pressure"> 
<DataArray  type="Float64"  Name="pressure"  format="ascii">1.6706704551615465e+04  1.6544273710268604e+04  1.6390453988728728e+04  1.6237835867964923e+04  1.6085868006739980e+04  1.5934220900301687e+04  1.5782774869989673e+04  1.5631462270046863e+04  1.5480243503487247e+04  1.5329093166438839e+04  1.5177994106379994e+04  1.5026934252152063e+04  1.4875904839191857e+04  1.4724899345819624e+04  1.4573912824254388e+04  1.4422941462142016e+04  1.4271982285125798e+04  1.4121032949112423e+04  1.3970091591520373e+04  1.3819156722460852e+04  1.3668227143655813e+04  1.3517301887063730e+04  1.3366380167791858e+04  1.3215461347551238e+04  1.3064544906014928e+04  1.2913630418183524e+04  1.2762717536372902e+04  1.2611805975796133e+04  1.2460895502966363e+04  1.2309985926331448e+04  1.2159077088686538e+04  1.2008168861011733e+04  1.1857261137457957e+04  1.1706353831262555e+04  1.1555446871420952e+04  1.1404540199976005e+04  1.1253633769814114e+04  1.1102727542879516e+04  1.0951821488735635e+04  1.0800915583416869e+04  1.0650009808525965e+04  1.0499104150541962e+04  1.0348198600312004e+04  1.0197293152707360e+04  1.0046387806430543e+04  9.8954825639660066e+03  9.7445774316724855e+03  9.5936724200203935e+03  9.4427675439830964e+03  9.2918628235969736e+03  9.1409582847112397e+03  8.9900539599560252e+03  8.8391498899654671e+03  8.6882461249024091e+03  8.5373427263430149e+03  8.3864397695938114e+03  8.2355373465307912e+03  8.0846355690712235e+03  7.9337345734146484e+03  7.7828345252216532e+03  7.6319356259389187e+03  7.4810381205289168e+03  7.3301423069260090e+03  7.1792485476207785e+03  7.0283572838773389e+03  6.8774690532212489e+03  6.7265845110089322e+03  6.5757044571177066e+03  6.4248298690992433e+03  6.2739619435472296e+03  6.1231021479849860e+03  5.9722522863398572e+03  5.8214145821277179e+03  5.6705917849488742e+03  5.5197873079829542e+03  5.3690054071308623e+03  5.2182514166660258e+03  5.0675320622356166e+03  4.9168558804256163e+03  4.7662337853855934e+03  4.6156798374607943e+03  4.4652122808739523e+03  4.3148549284076053e+03  4.1646388363387487e+03  4.0146047661504635e+03  3.8647997071869845e+03  3.7152986680004847e+03  3.5660868338678556e+03  3.4173525415719841e+03  3.2622336600517615e+03  2.2733967635645049e+03  2.1826513662251305e+03  2.1450426567944355e+03  2.1168938395548498e+03  2.0893091365888513e+03  2.0615354811911511e+03  2.0336776701351421e+03  2.0057279690613996e+03  1.9777077108415997e+03  1.9496330116887407e+03  1.9215168593261283e+03  1.8933690115745646e+03  1.8651967609245291e+03  1.8370055640883504e+03  1.8087995350019478e+03  1.7805818045738351e+03  1.7523547792101699e+03  1.7241203261014657e+03  1.6958799067518905e+03  1.6676346740966917e+03  1.6393855439151055e+03  1.6111332479535599e+03  1.5828783739014420e+03  1.5546213958078010e+03  1.5263626974653969e+03  1.4981025905594458e+03  1.4698413288742584e+03  1.4415791194991061e+03  1.4133161317266427e+03  1.3850525041604321e+03  1.3567883504207609e+03  1.3285237637450382e+03  1.3002588207106767e+03  1.2719935842572686e+03  1.2437281061464382e+03  1.2154624289684605e+03  1.1871965877822217e+03  1.1589306114576270e+03  1.1306645237759001e+03  1.1023983443324539e+03  1.0741320892784843e+03  1.0458657719306020e+03  1.0175994032723833e+03  9.8933299236731398e+02  9.6106654669905265e+02  9.3280007245204467e+02  9.0453357474321285e+02  8.7626705781352791e+02  8.4800052518672521e+02  8.1973397980117250e+02  7.9146742411989044e+02  7.6320086022289934e+02  7.3493428988541382e+02  7.0666771464490364e+02  6.7840113585965844e+02  6.5013455476124943e+02  6.2186797250313771e+02  5.9360139020767076e+02  5.6533480901393125e+02  5.3706823012923121e+02  5.0880165488779392e+02  4.8053508482132162e+02  4.5226852174807317e+02  4.2400196789017394e+02  3.9573542603400341e+02  3.6746889975710820e+02  3.3920239375994572e+02  3.1093591436708175e+02  2.8266947031201778e+02  2.5440307400800239e+02  2.2613674374568404e+02  1.9787050725994760e+02  1.6960441136724714e+02  1.4133851646491948e+02  1.1307309553017129e+02  8.4807247620743411e+01  5.6551537124137610e+01  2.8205950581987082e+01  7.9925958981895673e-01  1.6698421988047779e+04  1.6544323080694612e+04  1.6390270256317373e+04  1.6237784008155220e+04  1.6085833992188029e+04  1.5934200194233390e+04  1.5782760825003030e+04  1.5631452342301423e+04  1.5480236229828321e+04  1.5329087701385442e+04  1.5177989920758082e+04  1.5026930999155691e+04  1.4875902282145233e+04  1.4724897317907076e+04  1.4573911204722343e+04  1.4422940161632097e+04  1.4271981236290147e+04  1.4121032100412431e+04  1.3970090903011467e+04  1.3819156162854888e+04  1.3668226688228109e+04  1.3517301516132247e+04  1.3366379865592688e+04  1.3215461101394209e+04  1.3064544705640832e+04  1.2913630255268989e+04  1.2762717404144936e+04  1.2611805868729360e+04  1.2460895416543290e+04  1.2309985856851379e+04  1.2159077033112335e+04  1.2008168816846270e+04  1.1857261102644066e+04  1.1706353804101615e+04  1.1555446850506387e+04  1.1404540184138667e+04  1.1253633758077238e+04  1.1102727534421321e+04  1.0951821482857998e+04  1.0800915579518844e+04  1.0650009806081049e+04  1.0499104149078285e+04  1.0348198599394551e+04  1.0197293151921664e+04  1.0046387805367145e+04  9.8954825622051267e+03  9.7445774287683107e+03  9.5936724154843705e+03  9.4427675372656577e+03  9.2918628140669152e+03  9.1409582716320256e+03  8.9900539424581111e+03  8.8391498670135261e+03  8.6882460952562305e+03  8.5373426885105346e+03  8.3864397217744081e+03  8.2355372865465524e+03  8.0846354942833959e+03  7.9337344806217816e+03  7.7828344105351689e+03  7.6319354846305760e+03  7.4810379468434539e+03  7.3301420938501988e+03  7.1792482865978272e+03  7.0283569644522468e+03  6.8774686625984459e+03  6.7265840334975874e+03  6.5757038734319740e+03  6.4248291554695297e+03  6.2739610705828709e+03  6.1231010792064208e+03  5.9722509762669633e+03  5.8214129737655285e+03  5.6705898064467256e+03  5.5197848681487931e+03  5.3690023893468669e+03  5.2182476705587542e+03  5.0675273921879498e+03  4.9168500296640368e+03  4.7662264140714742e+03  4.6156704926836510e+03  4.4652003588284870e+03  4.3148396215275934e+03  4.1646191873340904e+03  4.0145789513002014e+03  3.8647701605834127e+03  3.7152486876207399e+03  3.5660670242940414e+03  3.4168573351385166e+03  3.2678312652513255e+03  3.1253822973368456e+03  2.9948699231614569e+03  2.1437166436997641e+03  2.1170715092958917e+03  2.0892936331900555e+03  2.0615505170898487e+03  2.0336870678499997e+03  2.0057357320428193e+03  1.9777135945082937e+03  1.9496374986339622e+03  1.9215202908837771e+03  1.8933716571246589e+03  1.8651988181614465e+03  1.8370071775121394e+03  1.8088008103481909e+03  1.7805828198221006e+03  1.7523555924539933e+03  1.7241209810967507e+03  1.6958804368165463e+03  1.6676351048643796e+03  1.6393858952963110e+03  1.6111335355468884e+03  1.5828786100210059e+03  1.5546215902400331e+03  1.5263628580331410e+03  1.4981027235472095e+03  1.4698414393522685e+03  1.4415792115727454e+03  1.4133162087302182e+03  1.3850525688089604e+03  1.3567884049297454e+03  1.3285238099256230e+03  1.3002588600456561e+03  1.2719936179621220e+03  1.2437281352185405e+03  1.2154624542269055e+03  1.1871966099001500e+03  1.1589306309885358e+03  1.1306645411751003e+03  1.1023983599746070e+03  1.0741321034719431e+03  1.0458657849291685e+03  1.0175994152849430e+03  9.8933300356574080e+02  9.6106655722469509e+02  9.3280008242104952e+02  9.0453358425088868e+02  8.7626706693792050e+02  8.4800053399153671e+02  8.1973398833814088e+02  7.9146743243071319e+02  7.6320086834077381e+02  7.3493429783625118e+02  7.0666772244825529e+02  6.7840114352938519e+02  6.5013456230594613e+02  6.2186797992631466e+02  5.9360139750767541e+02  5.6533481618356586e+02  5.3706823715499741e+02  5.0880166174863677e+02  4.8053509148667706e+02  4.5226852817489203e+02  4.2400197401839284e+02  3.9573543177957441e+02  3.6746890500106525e+02  3.3920239833080052e+02  3.1093591801172988e+02  2.8266947264480729e+02  2.5440307442692776e+02  2.2613674121241559e+02  1.9787050038471435e+02  1.6960439421276672e+02  1.4133850605748484e+02  1.1307288498260705e+02  8.4808460349220240e+01  5.6540123409769983e+01  2.8309264209401380e+01  -4.3494474878130122e-02  1.6694752700888275e+04  1.6542822502047060e+04  1.6389891014769892e+04  1.6237583049657742e+04  1.6085722103950588e+04  1.5934129015061902e+04  1.5782712657604536e+04  1.5631418141063326e+04  1.5480211118457137e+04  1.5329068797526723e+04  1.5177975418612345e+04  1.5026919710625369e+04  1.4875893394572175e+04  1.4724890257443740e+04  1.4573905555387000e+04  1.4422935615252307e+04  1.4271977560396208e+04  1.4121029116978689e+04  1.3970088473981925e+04  1.3819154180041984e+04  1.3668225066107247e+04  1.3517300186600909e+04  1.3366378774092045e+04  1.3215460203994669e+04  1.3064543966822195e+04  1.2913629646209492e+04  1.2762716901388809e+04  1.2611805453139748e+04  1.2460895072472988e+04  1.2309985571481586e+04  1.2159076795922281e+04  1.2008168619185557e+04  1.1857260937386262e+04  1.1706353665362371e+04  1.1555446733413111e+04  1.1404540084641441e+04  1.1253633672792801e+04  1.1102727460503511e+04  1.0951821417889329e+04  1.0800915521418781e+04  1.0650009753027400e+04  1.0499104099438480e+04  1.0348198551664293e+04  1.0197293104668457e+04  1.0046387757176613e+04  9.8954825116280663e+03  9.7445773742664114e+03  9.5936723553726588e+03  9.4427674696493632e+03  9.2918627367704448e+03  9.1409581821173051e+03  8.9900538377291359e+03  8.8391497435035362e+03  8.6882459486929856e+03  8.5373425137545455e+03  8.3864395126236177e+03  8.2355370354996612e+03  8.0846351922521553e+03  7.9337341165803418e+03  7.7828339710915652e+03  7.6319349535017336e+03  7.4810373042102310e+03  7.3301413155625969e+03  7.1792473431922008e+03  7.0283558199312383e+03  6.8774672729094127e+03  6.7265823446251388e+03  6.5757018189924675e+03  6.4248266536569708e+03  6.2739580202619400e+03  6.1230973548726415e+03  5.9722464214860320e+03  5.8214073925494577e+03  5.6705829518019191e+03  5.5197764267103257e+03  5.3689919605518962e+03  5.2182347381566442e+03  5.0675112849793531e+03  4.9168298672013480e+03  4.7662010317748636e+03  4.6156383402901665e+03  4.4651593683659066e+03  4.3147870624139296e+03  4.1645515134206535e+03  4.0144921731462741e+03  3.8646604165650356e+03  3.7151172146507870e+03  3.5659155818098197e+03  3.4170612988184794e+03  3.2698430939679201e+03  3.1203884762156240e+03  2.1792576694114582e+03  2.1452391887996841e+03  2.1168488159157396e+03  2.0893555177313265e+03  2.0615884425318750e+03  2.0337213960128090e+03  2.0057621762965757e+03  1.9777337992801608e+03  1.9496528643060751e+03  1.9215320378479335e+03  1.8933807075520324e+03  1.8652058509382102e+03  1.8370126878331428e+03  1.8088051605445814e+03  1.7805862771478930e+03  1.7523583560790178e+03  1.7241232010977178e+03  1.6958822275185375e+03  1.6676365542616420e+03  1.6393870717629006e+03  1.6111344926679444e+03  1.5828793901114198e+03  1.5546222269377204e+03  1.5263633782328818e+03  1.4981031488592075e+03  1.4698417872141254e+03  1.4415794961057213e+03  1.4133164414046537e+03  1.3850527589656863e+03  1.3567885601916844e+03  1.3285239365248269e+03  1.3002589630846392e+03  1.2719937016237218e+03  1.2437282029351632e+03  1.2154625088175046e+03  1.1871966536814332e+03  1.1589306658654809e+03  1.1306645687147873e+03  1.1023983814665455e+03  1.0741321199774434e+03  1.0458657973217842e+03  1.0175994242836314e+03  9.8933300976207011e+02  9.6106656110516735e+02  9.3280008438541881e+02  9.0453358462718177e+02  8.7626706599473687e+02  8.4800053194810243e+02  8.1973398537249034e+02  7.9146742868631031e+02  7.6320086393181361e+02  7.3493429285183390e+02  7.0666771695557406e+02  6.7840113757602398e+02  6.5013455592133880e+02  6.2186797312236581e+02  5.9360139027848516e+02  5.6533480850411331e+02  5.3706822897853749e+02  5.0880165300238275e+02  4.8053508206509031e+02  4.5226851792947315e+02  4.2400196274216427e+02  3.9573541918323724e+02  3.6746889067566497e+02  3.3920238168780736e+02  3.1093589818384396e+02  2.8266944831650403e+02  2.5440304352740375e+02  2.2613670037810715e+02  1.9787044359480768e+02  1.6960431242666112e+02  1.4133836610275694e+02  1.1307274525831923e+02  8.4807455823215292e+01  5.6544054922920672e+01  2.8285121017410422e+01  5.6319888480961993e-03  1.6692581222299134e+04  1.6541394324734356e+04  1.6389282021473562e+04  1.6237274958753234e+04  1.6085539789889086e+04  1.5934011747542803e+04  1.5782632383487211e+04  1.5631360784563445e+04  1.5480168820801799e+04  1.5329036859217966e+04  1.5177950863045227e+04  1.5026900564982812e+04  1.4875878301892268e+04  1.4724878255465836e+04  1.4573895944277387e+04  1.4422927875215577e+04  1.4271971298523127e+04  1.4121024031886469e+04  1.3970084331645268e+04  1.3819150796871449e+04  1.3668222296845724e+04  1.3517297915499747e+04  1.3366376908368287e+04  1.3215458668906223e+04  1.3064542701911392e+04  1.2913628602404287e+04  1.2762716038742918e+04  1.2611804739055226e+04  1.2460894480291521e+04  1.2309985079360502e+04  1.2159076385932525e+04  1.2008168276584078e+04  1.1857260650026365e+04  1.1706353423213830e+04  1.1555446528169889e+04  1.1404539909399615e+04  1.1253633521784759e+04  1.1102727328877203e+04  1.0951821301523498e+04  1.0800915416766673e+04  1.0650009656982726e+04  1.0499104009218368e+04  1.0348198464704670e+04  1.0197293018527842e+04  1.0046387669444624e+04  9.8954824198351562e+03  9.7445772757914638e+03  9.5936722473448335e+03  9.4427673488406035e+03  9.2918625994744580e+03  9.1409580240104569e+03  8.9900536537079297e+03  8.8391495274923782e+03  8.6882456934148431e+03  8.5373422104554174e+03  8.3864391507399905e+03  8.2355366022555627e+03  8.0846346721694281e+03  7.9337334908817948e+03  7.7828332169717787e+03  7.6319340432338677e+03  7.4810362040489745e+03  7.3301399843927111e+03  7.1792457308579305e+03  7.0283538651632325e+03  6.8774649007406178e+03  6.7265794631530616e+03  6.5756983152986577e+03  6.4248223886299575e+03  6.2739528219798112e+03  6.1230910100743085e+03  5.9722386644795979e+03  5.8213978906473385e+03  5.6705712859999685e+03  5.5197620657906764e+03  5.3689742260150642e+03  5.2182127562838405e+03  5.0674839207886407e+03  4.9167956330390334e+03  4.7661579609600376e+03  4.6155838146291226e+03  4.4650898918094244e+03  4.3146979880576546e+03  4.1644368141662007e+03  4.0143445921183225e+03  3.8644725917110018e+03  3.7148887299907715e+03  3.5656873763375897e+03  3.4171356570209127e+03  3.2696900212950650e+03  3.1265721368746522e+03  2.9942746962767192e+03  2.1429995246392318e+03  2.1170511453103586e+03  2.0894122266036588e+03  2.0616619418862615e+03  2.0337794879378121e+03  2.0058071744956601e+03  1.9777679841110428e+03  1.9496788480031043e+03  1.9215519045413150e+03  1.8933960229962452e+03  1.8652177604456654e+03  1.8370220255633108e+03  1.8088125367653915e+03  1.7805921422859205e+03  1.7523630461400105e+03  1.7241269695402937e+03  1.6958852676299632e+03  1.6676390149630117e+03  1.6393890688769807e+03  1.6111361170402827e+03  1.5828807135322218e+03  1.5546233065116921e+03  1.5263642596418367e+03  1.4981038688256554e+03  1.4698423753814736e+03  1.4415799764875192e+03  1.4133168335118330e+03  1.3850530786905472e+03  1.3567888205061920e+03  1.3285241480357806e+03  1.3002591344775431e+03  1.2719938400193887e+03  1.2437283141774105e+03  1.2154625977060834e+03  1.1871967241611803e+03  1.1589307211803152e+03  1.1306646115333454e+03  1.1023984139848585e+03  1.0741321440029697e+03  1.0458658143422590e+03  1.0175994355235238e+03  9.8933301622890542e+02  9.6106656362753824e+02  9.3280008364417847e+02  9.0453358118102221e+02  8.7626706030113871e+02  8.4800052438045327e+02  8.1973397623402309e+02  7.9146741822137858e+02  7.6320085233492546e+02  7.3493428027476307e+02  7.0666770351279399e+02  6.7840112334863068e+02  6.5013454095954864e+02  6.2186795744659469e+02  5.9360137387890950e+02  5.6533479133848346e+02  5.3706821096782210e+02  5.0880163402355333e+02  4.8053506193991416e+02  4.5226849640749737e+02  4.2400193947492590e+02  3.9573539368477259e+02  3.6746886226094296e+02  3.3920234937441313e+02  3.1093586053039559e+02  2.8266940314757659e+02  2.5440298744921517e+02  2.2613662786553417e+02  1.9787034534773642e+02  1.6960417096770746e+02  1.4133815367084225e+02  1.1307236647868463e+02  8.4806937802331106e+01  5.6542508884525247e+01  2.8277085582186380e+01  -4.2735379218007485e-04  1.6691068066101438e+04  1.6540193147578579e+04  1.6388598641818448e+04  1.6236890295913661e+04  1.6085302549653432e+04  1.5933855102825270e+04  1.5782523578003636e+04  1.5631282299086255e+04  1.5480110576546380e+04  1.5328992688749851e+04  1.5177916799236771e+04  1.5026873948442671e+04  1.4875857287879768e+04  1.4724861527352090e+04  1.4573882539700189e+04  1.4422917076572478e+04  1.4271962561687693e+04  1.4121016938439376e+04  1.3970078556026639e+04  1.3819146083267493e+04  1.3668218442586473e+04  1.3517294758912334e+04  1.3366374319742885e+04  1.3215456543678463e+04  1.3064540955450739e+04  1.2913627165984752e+04  1.2762714856396897e+04  1.2611803765095710e+04  1.2460893677345975e+04  1.2309984416800691e+04  1.2159075838613368e+04  1.2008167823825708e+04  1.1857260274788681e+04  1.1706353111424398e+04  1.1555446268174370e+04  1.1404539691510348e+04  1.1253633337908141e+04  1.1102727172204150e+04  1.0951821166270303e+04  1.0800915297955778e+04  1.0650009550254692e+04  1.0499103910667669e+04  1.0348198370732887e+04  1.0197292925708678e+04  1.0046387574395521e+04  9.8954823190906609e+03  9.7445771656735324e+03  9.5936721238251666e+03  9.4427672073897920e+03  9.2918624348922258e+03  9.1409578302305126e+03  8.9900534235699961e+03  8.8391492524725836e+03  8.6882453633040332e+03  8.5373418129728343e+03  8.3864386710669751e+03  8.2355360224706965e+03  8.0846339705620976e+03  7.9337326411158492e+03  7.7828321870639711e+03  7.6319327943029666e+03  7.4810346887799660e+03  7.3301381451456891e+03  7.1792434973317049e+03  7.0283511514978045e+03  6.8774616019080404e+03  6.7265754504392562e+03  6.5756934306145804e+03  6.4248164373020090e+03  6.2739455635457107e+03  6.1230821464366818e+03  5.9722278245224743e+03  5.8213846100671299e+03  5.6705549805936935e+03  5.5197419957091597e+03  5.3689494474270259e+03  5.2181820553726002e+03  5.0674457228530991e+03  4.9167478765556843e+03  4.7660979228592023e+03  4.6155078696853261e+03  4.4649931892787508e+03  4.3145740439065485e+03  4.1642770873972013e+03  4.0141382975461192e+03  3.8642077106319953e+03  3.7145588384582416e+03  3.5653201038795364e+03  3.4168080902891274e+03  3.2693444488599421e+03  3.1260577387934591e+03  2.9939260468534599e+03  2.1429912253755210e+03  2.1171507316353295e+03  2.0895332688726803e+03  2.0617665312477070e+03  2.0338618015642023e+03  2.0058699132295126e+03  1.9778154732479325e+03  1.9497149135191455e+03  1.9215794996877455e+03  1.8934173244570320e+03  1.8652343501042305e+03  1.8370350531256561e+03  1.8088228434796204e+03  1.7806003497847732e+03  1.7523696188868153e+03  1.7241322584984107e+03  1.6958895408977494e+03  1.6676424794281213e+03  1.6393918856763087e+03  1.6111384127224317e+03  1.5828825882128911e+03  1.5546248399034553e+03  1.5263655155646609e+03  1.4981048986189214e+03  1.4698432205123670e+03  1.4415806705646314e+03  1.4133174038535201e+03  1.3850535475563408e+03  1.3567892060705901e+03  1.3285244651631765e+03  1.3002593953422911e+03  1.2719940546043192e+03  1.2437284906762475e+03  1.2154627428494232e+03  1.1871968434813202e+03  1.1589308192269330e+03  1.1306646920495148e+03  1.1023984800509356e+03  1.0741321981543740e+03  1.0458658586659947e+03  1.0175994717373354e+03  9.8933304574623219e+02  9.6106658761082372e+02  9.3280010304861787e+02  9.0453359679043865e+02  8.7626707275736976e+02  8.4800053420736697e+02  8.1973398385707048e+02  7.9146742398341735e+02  7.6320085650889644e+02  7.3493428307367697e+02  7.0666770509736784e+02  6.7840112383281030e+02  6.5013454041404566e+02  6.2186795590044778e+02  5.9360137131894339e+02  5.6533478770635747e+02  5.3706820615410891e+02  5.0880162785791356e+02  4.8053505417586456e+02  4.5226848669935436e+02  4.2400192