<?xml version="1.0"?>
<VTKFile type="UnstructuredGrid"  version="0.1"  >
<UnstructuredGrid>
<Piece  NumberOfPoints="21400" NumberOfCells="42336">
<Points>
<DataArray  type="Float64"  NumberOfComponents="3"  format="ascii">0 0 0  0.004583333333333333 0 0  0.009166666666666667 0 0  0.01375 0 0  0.01833333333333333 0 0  0.02291666666666667 0 0  0.0275 0 0  0.03208333333333334 0 0  0.03666666666666667 0 0  0.04125 0 0  0.04583333333333334 0 0  0.05041666666666667 0 0  0.055 0 0  0.05958333333333334 0 0  0.06416666666666668 0 0  0.06875000000000001 0 0  0.07333333333333333 0 0  0.07791666666666666 0 0  0.08249999999999999 0 0  0.08708333333333333 0 0  0.09166666666666667 0 0  0.09625000000000002 0 0  0.1008333333333333 0 0  0.1054166666666667 0 0  0.11 0 0  0.1145833333333333 0 0  0.1191666666666667 0 0  0.12375 0 0  0.1283333333333334 0 0  0.1329166666666667 0 0  0.1375 0 0  0.1420833333333333 0 0  0.1466666666666667 0 0  0.15125 0 0  0.1558333333333333 0 0  0.1604166666666667 0 0  0.165 0 0  0.1695833333333333 0 0  0.1741666666666667 0 0  0.17875 0 0  0.1833333333333333 0 0  0.1879166666666667 0 0  0.1925 0 0  0.1970833333333333 0 0  0.2016666666666667 0 0  0.20625 0 0  0.2108333333333333 0 0  0.2154166666666666 0 0  0.22 0 0  0.2245833333333334 0 0  0.2291666666666667 0 0  0.23375 0 0  0.2383333333333333 0 0  0.2429166666666667 0 0  0.2475 0 0  0.2520833333333333 0 0  0.2566666666666667 0 0  0.26125 0 0  0.2658333333333334 0 0  0.2704166666666666 0 0  0.275 0 0  0.2795833333333334 0 0  0.2841666666666667 0 0  0.28875 0 0  0.2933333333333333 0 0  0.2979166666666667 0 0  0.3025 0 0  0.3070833333333334 0 0  0.3116666666666666 0 0  0.31625 0 0  0.3208333333333333 0 0  0.3254166666666667 0 0  0.33 0 0  0.3345833333333333 0 0  0.3391666666666667 0 0  0.34375 0 0  0.3483333333333333 0 0  0.3529166666666667 0 0  0.3575 0 0  0.3620833333333333 0 0  0.3666666666666667 0 0  0.37125 0 0  0.3758333333333334 0 0  0.3804166666666667 0 0  0.3850000000000001 0 0  0.3895833333333333 0 0  0.3941666666666667 0 0  0.39875 0 0  0.4033333333333334 0 0  0.4079166666666666 0 0  0.4125 0 0  0.4170833333333334 0 0  0.4216666666666667 0 0  0.42625 0 0  0.4308333333333333 0 0  0.4354166666666667 0 0  0.44 0 0  0.4445833333333333 0 0  0.4491666666666667 0 0  0.45375 0 0  0.4583333333333333 0 0  0.4629166666666666 0 0  0.4675 0 0  0.4720833333333334 0 0  0.4766666666666667 0 0  0.4812500000000001 0 0  0.4858333333333333 0 0  0.4904166666666667 0 0  0.495 0 0  0.4995833333333334 0 0  0.5041666666666667 0 0  0.50875 0 0  0.5133333333333334 0 0  0.5179166666666667 0 0  0.5225 0 0  0.5270833333333333 0 0  0.5316666666666667 0 0  0.53625 0 0  0.5408333333333333 0 0  0.5454166666666667 0 0  0.55 0 0  0.5545833333333333 0 0  0.5591666666666667 0 0  0.5637500000000001 0 0  0.5683333333333334 0 0  0.5729166666666666 0 0  0.5775 0 0  0.5820833333333334 0 0  0.5866666666666667 0 0  0.5912499999999999 0 0  0.5958333333333334 0 0  0.6004166666666667 0 0  0.605 0 0  0.6095833333333334 0 0  0.6141666666666667 0 0  0.61875 0 0  0.6233333333333333 0 0  0.6279166666666667 0 0  0.6325000000000001 0 0  0.6370833333333333 0 0  0.6416666666666666 0 0  0.64625 0 0  0.6508333333333334 0 0  0.6554166666666666 0 0  0.6599999999999999 0 0  0.6645833333333334 0 0  0.6691666666666667 0 0  0.67375 0 0  0.6783333333333333 0 0  0.6829166666666667 0 0  0.6875 0 0  0.6920833333333333 0 0  0.6966666666666667 0 0  0.70125 0 0  0.7058333333333333 0 0  0.7104166666666667 0 0  0.7150000000000001 0 0  0.7195833333333334 0 0  0.7241666666666666 0 0  0.72875 0 0  0.7333333333333334 0 0  0.7379166666666667 0 0  0.7425 0 0  0.7470833333333333 0 0  0.7516666666666667 0 0  0.75625 0 0  0.7608333333333334 0 0  0.7654166666666666 0 0  0.7700000000000001 0 0  0 0.002380952380952381 0  0.004583333333333333 0.002380952380952381 0  0.009166666666666667 0.002380952380952381 0  0.01375 0.002380952380952381 0  0.01833333333333333 0.002380952380952381 0  0.02291666666666667 0.002380952380952381 0  0.0275 0.002380952380952381 0  0.03208333333333334 0.002380952380952381 0  0.03666666666666667 0.002380952380952381 0  0.04125 0.002380952380952381 0  0.04583333333333334 0.002380952380952381 0  0.05041666666666667 0.002380952380952381 0  0.055 0.002380952380952381 0  0.05958333333333334 0.002380952380952381 0  0.06416666666666668 0.002380952380952381 0  0.06875000000000001 0.002380952380952381 0  0.07333333333333333 0.002380952380952381 0  0.07791666666666666 0.002380952380952381 0  0.08249999999999999 0.002380952380952381 0  0.08708333333333333 0.002380952380952381 0  0.09166666666666667 0.002380952380952381 0  0.09625000000000002 0.002380952380952381 0  0.1008333333333333 0.002380952380952381 0  0.1054166666666667 0.002380952380952381 0  0.11 0.002380952380952381 0  0.1145833333333333 0.002380952380952381 0  0.1191666666666667 0.002380952380952381 0  0.12375 0.002380952380952381 0  0.1283333333333334 0.002380952380952381 0  0.1329166666666667 0.002380952380952381 0  0.1375 0.002380952380952381 0  0.1420833333333333 0.002380952380952381 0  0.1466666666666667 0.002380952380952381 0  0.15125 0.002380952380952381 0  0.1558333333333333 0.002380952380952381 0  0.1604166666666667 0.002380952380952381 0  0.165 0.002380952380952381 0  0.1695833333333333 0.002380952380952381 0  0.1741666666666667 0.002380952380952381 0  0.17875 0.002380952380952381 0  0.1833333333333333 0.002380952380952381 0  0.1879166666666667 0.002380952380952381 0  0.1925 0.002380952380952381 0  0.1970833333333333 0.002380952380952381 0  0.2016666666666667 0.002380952380952381 0  0.20625 0.002380952380952381 0  0.2108333333333333 0.002380952380952381 0  0.2154166666666666 0.002380952380952381 0  0.22 0.002380952380952381 0  0.2245833333333334 0.002380952380952381 0  0.2291666666666667 0.002380952380952381 0  0.23375 0.002380952380952381 0  0.2383333333333333 0.002380952380952381 0  0.2429166666666667 0.002380952380952381 0  0.2475 0.002380952380952381 0  0.2520833333333333 0.002380952380952381 0  0.2566666666666667 0.002380952380952381 0  0.26125 0.002380952380952381 0  0.2658333333333334 0.002380952380952381 0  0.2704166666666666 0.002380952380952381 0  0.275 0.002380952380952381 0  0.2795833333333334 0.002380952380952381 0  0.2841666666666667 0.002380952380952381 0  0.28875 0.002380952380952381 0  0.2933333333333333 0.002380952380952381 0  0.2979166666666667 0.002380952380952381 0  0.3025 0.002380952380952381 0  0.3070833333333334 0.002380952380952381 0  0.3116666666666666 0.002380952380952381 0  0.31625 0.002380952380952381 0  0.3208333333333333 0.002380952380952381 0  0.3254166666666667 0.002380952380952381 0  0.33 0.002380952380952381 0  0.3345833333333333 0.002380952380952381 0  0.3391666666666667 0.002380952380952381 0  0.34375 0.002380952380952381 0  0.3483333333333333 0.002380952380952381 0  0.3529166666666667 0.002380952380952381 0  0.3575 0.002380952380952381 0  0.3620833333333333 0.002380952380952381 0  0.3666666666666667 0.002380952380952381 0  0.37125 0.002380952380952381 0  0.3758333333333334 0.002380952380952381 0  0.3804166666666667 0.002380952380952381 0  0.3850000000000001 0.002380952380952381 0  0.3895833333333333 0.002380952380952381 0  0.3941666666666667 0.002380952380952381 0  0.39875 0.002380952380952381 0  0.4033333333333334 0.002380952380952381 0  0.4079166666666666 0.002380952380952381 0  0.4125 0.002380952380952381 0  0.4170833333333334 0.002380952380952381 0  0.4216666666666667 0.002380952380952381 0  0.42625 0.002380952380952381 0  0.4308333333333333 0.002380952380952381 0  0.4354166666666667 0.002380952380952381 0  0.44 0.002380952380952381 0  0.4445833333333333 0.002380952380952381 0  0.4491666666666667 0.002380952380952381 0  0.45375 0.002380952380952381 0  0.4583333333333333 0.002380952380952381 0  0.4629166666666666 0.002380952380952381 0  0.4675 0.002380952380952381 0  0.4720833333333334 0.002380952380952381 0  0.4766666666666667 0.002380952380952381 0  0.4812500000000001 0.002380952380952381 0  0.4858333333333333 0.002380952380952381 0  0.4904166666666667 0.002380952380952381 0  0.495 0.002380952380952381 0  0.4995833333333334 0.002380952380952381 0  0.5041666666666667 0.002380952380952381 0  0.50875 0.002380952380952381 0  0.5133333333333334 0.002380952380952381 0  0.5179166666666667 0.002380952380952381 0  0.5225 0.002380952380952381 0  0.5270833333333333 0.002380952380952381 0  0.5316666666666667 0.002380952380952381 0  0.53625 0.002380952380952381 0  0.5408333333333333 0.002380952380952381 0  0.5454166666666667 0.002380952380952381 0  0.55 0.002380952380952381 0  0.5545833333333333 0.002380952380952381 0  0.5591666666666667 0.002380952380952381 0  0.5637500000000001 0.002380952380952381 0  0.5683333333333334 0.002380952380952381 0  0.5729166666666666 0.002380952380952381 0  0.5775 0.002380952380952381 0  0.5820833333333334 0.002380952380952381 0  0.5866666666666667 0.002380952380952381 0  0.5912499999999999 0.002380952380952381 0  0.5958333333333334 0.002380952380952381 0  0.6004166666666667 0.002380952380952381 0  0.605 0.002380952380952381 0  0.6095833333333334 0.002380952380952381 0  0.6141666666666667 0.002380952380952381 0  0.61875 0.002380952380952381 0  0.6233333333333333 0.002380952380952381 0  0.6279166666666667 0.002380952380952381 0  0.6325000000000001 0.002380952380952381 0  0.6370833333333333 0.002380952380952381 0  0.6416666666666666 0.002380952380952381 0  0.64625 0.002380952380952381 0  0.6508333333333334 0.002380952380952381 0  0.6554166666666666 0.002380952380952381 0  0.6599999999999999 0.002380952380952381 0  0.6645833333333334 0.002380952380952381 0  0.6691666666666667 0.002380952380952381 0  0.67375 0.002380952380952381 0  0.6783333333333333 0.002380952380952381 0  0.6829166666666667 0.002380952380952381 0  0.6875 0.002380952380952381 0  0.6920833333333333 0.002380952380952381 0  0.6966666666666667 0.002380952380952381 0  0.70125 0.002380952380952381 0  0.7058333333333333 0.002380952380952381 0  0.7104166666666667 0.002380952380952381 0  0.7150000000000001 0.002380952380952381 
[...]
<PointData  Scalars="pressure"> 
<DataArray  type="Float64"  Name="pressure"  format="ascii">6.8280093414280327e+03  6.6658134643873982e+03  6.1130871103992258e+03  4.6861213139405190e+03  4.7009737553150453e+03  4.6721862894700753e+03  4.6434082272841888e+03  4.6146657167900939e+03  4.5859425077156384e+03  4.5572334336671456e+03  4.5285347142995379e+03  4.4998438355556527e+03  4.4711589988593159e+03  4.4424788843697706e+03  4.4138025000996831e+03  4.3851290871555675e+03  4.3564580567042567e+03  4.3277889466849138e+03  4.2991213912060439e+03  4.2704550983887966e+03  4.2417898339970925e+03  4.2131254091331875e+03  4.1844616708523308e+03  4.1557984949140418e+03  4.1271357801238901e+03  4.0984734438768892e+03  4.0698114186205485e+03  4.0411496490298132e+03  4.0124880897384000e+03  3.9838267035087647e+03  3.9551654597502898e+03  3.9265043333157000e+03  3.8978433035208741e+03  3.8691823533448764e+03  3.8405214687758685e+03  3.8118606382755452e+03  3.7831998523400139e+03  3.7545391031394438e+03  3.7258783842220469e+03  3.6972176902708020e+03  3.6685570169033144e+03  3.6398963605072054e+03  3.6112357181045581e+03  3.5825750872403273e+03  3.5539144658904220e+03  3.5252538523859798e+03  3.4965932453509690e+03  3.4679326436507813e+03  3.4392720463498422e+03  3.4106114526766864e+03  3.3819508619951589e+03  3.3532902737806698e+03  3.3246296876006340e+03  3.2959691030983181e+03  3.2673085199795537e+03  3.2386479380017454e+03  3.2099873569648475e+03  3.1813267767038810e+03  3.1526661970828050e+03  3.1240056179894191e+03  3.0953450393312078e+03  3.0666844610318699e+03  3.0380238830284834e+03  3.0093633052691612e+03  2.9807027277111079e+03  2.9520421503190396e+03  2.9233815730638530e+03  2.8947209959215484e+03  2.8660604188723346e+03  2.8373998418998931e+03  2.8087392649907597e+03  2.7800786881338390e+03  2.7514181113199752e+03  2.7227575345416190e+03  2.6940969577925475e+03  2.6654363810676250e+03  2.6367758043626195e+03  2.6081152276740422e+03  2.5794546509990123e+03  2.5507940743351560e+03  2.5221334976805188e+03  2.4934729210334849e+03  2.4648123443927270e+03  2.4361517677571464e+03  2.4074911911258414e+03  2.3788306144980684e+03  2.3501700378732157e+03  2.3215094612507792e+03  2.2928488846303467e+03  2.2641883080115795e+03  2.2355277313942011e+03  2.2068671547779868e+03  2.1782065781627571e+03  2.1495460015483654e+03  2.1208854249347000e+03  2.0922248483216749e+03  2.0635642717092278e+03  2.0349036950973159e+03  2.0062431184859217e+03  1.9775825418750419e+03  1.9489219652646955e+03  1.9202613886549177e+03  1.8916008120457691e+03  1.8629402354373324e+03  1.8342796588297144e+03  1.8056190822230571e+03  1.7769585056175349e+03  1.7482979290133637e+03  1.7196373524108108e+03  1.6909767758102071e+03  1.6623161992119522e+03  1.6336556226165346e+03  1.6049950460245479e+03  1.5763344694367138e+03  1.5476738928539114e+03  1.5190133162772013e+03  1.4903527397078783e+03  1.4616921631475091e+03  1.4330315865979942e+03  1.4043710100616395e+03  1.3757104335412414e+03  1.3470498570401924e+03  1.3183892805626065e+03  1.2897287041134737e+03  1.2610681276988460e+03  1.2324075513260641e+03  1.2037469750040325e+03  1.1750863987435525e+03  1.1464258225577269e+03  1.1177652464624571e+03  1.0891046704770299e+03  1.0604440946248596e+03  1.0317835189343616e+03  1.0031229434400334e+03  9.7446236818376690e+02  9.4580179321644948e+02  9.1714121859991565e+02  8.8848064440933797e+02  8.5982007073615398e+02  8.3115949769165888e+02  8.0249892541142390e+02  7.7383835406075525e+02  7.4517778384145015e+02  7.1651721500020494e+02  6.8785664783912125e+02  6.5919608272891867e+02  6.3053552012567661e+02  6.0187496059218074e+02  5.7321440482544676e+02  5.4455385369255771e+02  5.1589330827791525e+02  4.8723276994640594e+02  4.5857224042920950e+02  4.2991172194243921e+02  4.0125121735448909e+02  3.7259073042743671e+02  3.4393026617415131e+02  3.1526983140165356e+02  2.8660943556548995e+02  2.5794909215767456e+02  2.2928882110503611e+02  2.0062865271943934e+02  1.7196863794158412e+02  1.4330884498857193e+02  1.1464955747326772e+02  8.5989916120232039e+01  5.7340546370784530e+01  2.8599836051275769e+01  8.3152254779501311e-01  6.8203735936876737e+03  6.6657455246698019e+03  6.1138627574141547e+03  4.6857247612741912e+03  4.7010138226835325e+03  4.6721747657902224e+03  4.6434058351097037e+03  4.6146635130999020e+03  4.5859410099389788e+03  4.5572323154641281e+03  4.5285338676880874e+03  4.4998431821968989e+03  4.4711584881293893e+03  4.4424784810943765e+03  4.4138021791976289e+03  4.3851288302637249e+03  4.3564578501001697e+03  4.3277887799384134e+03  4.2991212562776536e+03  4.2704549890094795e+03  4.2417897452311181e+03  4.2131253370634204e+03  4.1844616123493543e+03  4.1557984474639870e+03  4.1271357416981273e+03  4.0984734128321898e+03  4.0698113936216969e+03  4.0411496289890697e+03  4.0124880737677345e+03  3.9838266908819041e+03  3.9551654498723997e+03  3.9265043256990061e+03  3.8978432977649900e+03  3.8691823491208825e+03  3.8405214658133732e+03  3.8118606363521467e+03  3.7831998512726991e+03  3.7545391027775490e+03  3.7258783844415175e+03  3.6972176909694381e+03  3.6685570179969318e+03  3.6398963619264332e+03  3.6112357197922252e+03  3.5825750891493153e+03  3.5539144679818910e+03  3.5252538546279061e+03  3.4965932477169581e+03  3.4679326461190703e+03  3.4392720489024882e+03  3.4106114552988929e+03  3.3819508646747263e+03  3.3532902765075396e+03  3.3246296903665070e+03  3.2959691058963608e+03  3.2673085228041200e+03  3.2386479408481887e+03  3.2099873598293279e+03  3.1813267795832403e+03  3.1526661999744288e+03  3.1240056208911633e+03  3.0953450422412920e+03  3.0666844639488340e+03  3.0380238859511214e+03  3.0093633081964772e+03  2.9807027306422860e+03  2.9520421532533987e+03  2.9233815760008365e+03  2.8947209988606951e+03  2.8660604218132676e+03  2.8373998448422949e+03  2.8087392679343784e+03  2.7800786910784564e+03  2.7514181142654184e+03  2.7227575374877429e+03  2.6940969607392308e+03  2.6654363840147726e+03  2.6367758073101481e+03  2.6081152306218860e+03  2.5794546539471144e+03  2.5507940772834759e+03  2.5221335006290128e+03  2.4934729239821249e+03  2.4648123473414853e+03  2.4361517707060043e+03  2.4074911940747816e+03  2.3788306174470740e+03  2.3501700408222764e+03  2.3215094641998862e+03  2.2928488875794897e+03  2.2641883109607529e+03  2.2355277343433986e+03  2.2068671577272048e+03  2.1782065811119901e+03  2.1495460044976116e+03  2.1208854278839563e+03  2.0922248512709366e+03  2.0635642746584940e+03  2.0349036980465855e+03  2.0062431214351902e+03  1.9775825448243093e+03  1.9489219682139576e+03  1.9202613916041746e+03  1.8916008149950180e+03  1.8629402383865677e+03  1.8342796617789356e+03  1.8056190851722586e+03  1.7769585085667120e+03  1.7482979319625108e+03  1.7196373553599237e+03  1.6909767787592757e+03  1.6623162021609680e+03  1.6336556255654846e+03  1.6049950489734183e+03  1.5763344723854898e+03  1.5476738958025694e+03  1.5190133192257185e+03  1.4903527426562243e+03  1.4616921660956471e+03  1.4330315895458809e+03  1.4043710130092197e+03  1.3757104364884499e+03  1.3470498599869511e+03  1.3183892835088188e+03  1.2897287070590241e+03  1.2610681306435933e+03  1.2324075542698376e+03  1.2037469779466239e+03  1.1750864016847104e+03  1.1464258254971464e+03  1.1177652493997659e+03  1.0891046734117774e+03  1.0604440975564996e+03  1.0317835218622279e+03  1.0031229463633169e+03  9.7446237110148468e+02  9.4580179612740471e+02  9.1714122150264927e+02  8.8848064730207125e+02  8.5982007361671685e+02  8.3115950055739745e+02  8.0249892825908910e+02  7.7383835688635918e+02  7.4517778664008893e+02  7.1651721776582883e+02  6.8785665056423943e+02  6.5919608540421973e+02  6.3053552273952391e+02  6.0187496312994779e+02  5.7321440726861647e+02  5.4455385601749288e+02  5.1589331045414201e+02  4.8723277193418483e+02  4.5857224217601919e+02  4.2991172337777846e+02  4.0125121838200477e+02  3.7259073091268260e+02  3.4393026592497523e+02  3.1526983013583191e+02  2.8660943285427277e+02  2.5794908733162214e+02  2.2928881301762976e+02  2.0062863977640973e+02  1.7196861393572522e+02  1.4330882573958226e+02  1.1464933684661307e+02  8.5991111494755899e+01  5.7328965979056136e+01  2.8705797621361775e+01  -4.4219880711607470e-02  6.8170737372984713e+03  6.6645324663536849e+03  6.1136928821703632e+03  4.6857412793975163e+03  4.7009591679567911e+03  4.6721603205919673e+03  4.6433948673714931e+03  4.6146563717403769e+03  4.5859358448168505e+03  4.5572284857849063e+03  4.5285309552623230e+03  4.4998409290204663e+03  4.4711567215855812e+03  4.4424770816552655e+03  4.4138010613947436e+03  4.3851279314501426e+03  4.3564571234117384e+03  4.3277881897262869e+03  4.2991207750465119e+03  4.2704545953080415e+03  4.2417894221634397e+03  4.2131250712159172e+03  4.1844613930029554e+03  4.1557982660060925e+03  4.1271355911773626e+03  4.0984732876169437e+03  4.0698112891354253e+03  4.0411495415030845e+03  4.0124880002376881e+03  3.9838266288178452e+03  3.9551653972348590e+03  3.9265042808154981e+03  3.8978432592626377e+03  3.8691823158718171e+03  3.8405214368903985e+03  3.8118606109926036e+03  3.7831998288489876e+03  3.7545390827730153e+03  3.7258783664307061e+03  3.6972176746019140e+03  3.6685570029839769e+03  3.6398963480301459e+03  3.6112357068165461e+03  3.5825750769326510e+03  3.5539144563910322e+03  3.5252538435530482e+03  3.4965932370675746e+03  3.4679326358205194e+03  3.4392720388932348e+03  3.4106114455281963e+03  3.3819508551007475e+03  3.3532902670957819e+03  3.3246296810885242e+03  3.2959690967286906e+03  3.2673085137274206e+03  3.2386479318465081e+03  3.2099873508895139e+03  3.1813267706944434e+03  3.1526661911277056e+03  3.1240056120791332e+03  3.0953450334578779e+03  3.0666844551890140e+03  3.0380238772107605e+03  3.0093632994721629e+03  2.9807027219312022e+03  2.9520421445532293e+03  2.9233815673096651e+03  2.8947209901769475e+03  2.8660604131356395e+03  2.8373998361697149e+03  2.8087392592659598e+03  2.7800786824134707e+03  2.7514181056032630e+03  2.7227575288279209e+03  2.6940969520813360e+03  2.6654363753584657e+03  2.6367757986551519e+03  2.6081152219679666e+03  2.5794546452940876e+03  2.5507940686311795e+03  2.5221334919773226e+03  2.4934729153309336e+03  2.4648123386907055e+03  2.4361517620555637e+03  2.4074911854246175e+03  2.3788306087971432e+03  2.3501700321725316e+03  2.3215094555502956e+03  2.2928488789300263e+03  2.2641883023113933e+03  2.2355277256941235e+03  2.2068671490779971e+03  2.1782065724628378e+03  2.1495459958485003e+03  2.1208854192348772e+03  2.0922248426218825e+03  2.0635642660094541e+03  2.0349036893975529e+03  2.0062431127861591e+03  1.9775825361752704e+03  1.9489219595649065e+03  1.9202613829550999e+03  1.8916008063459121e+03  1.8629402297374220e+03  1.8342796531297372e+03  1.8056190765229946e+03  1.7769584999173660e+03  1.7482979233130654e+03  1.7196373467103542e+03  1.6909767701095570e+03  1.6623161935110654e+03  1.6336556169153594e+03  1.6049950403230221e+03  1.5763344637347645e+03  1.5476738871514453e+03  1.5190133105741106e+03  1.4903527340040287e+03  1.4616921574427386e+03  1.4330315808921059e+03  1.4043710043543965e+03  1.3757104278323552e+03  1.3470498513293130e+03  1.3183892748493097e+03  1.2897286983972454e+03  1.2610681219790620e+03  1.2324075456019661e+03  1.2037469692747022e+03  1.1750863930078733e+03  1.1464258168143476e+03  1.1177652407097323e+03  1.0891046647129647e+03  1.0604440888470310e+03  1.0317835131398235e+03  1.0031229376252041e+03  9.7446236234429227e+02  9.4580178734702770e+02  9.1714121269409009e+02  8.8848063845923434e+02  8.5982006473216211e+02  8.3115949162203140e+02  8.0249891926177679e+02  7.7383834781343933e+02  7.4517777747475986e+02  7.1651720848736568e+02  6.8785664114698875e+02  6.5919607581629498e+02  6.3053551294109138e+02  6.0187495307095026e+02  5.7321439688570706e+02  5.4455384522983877e+02  5.1589329915759004e+02  4.8723275999299625e+02  4.5857222941092976e+02  4.2991170954836912e+02  4.0125120316005058e+02  3.7259071384079016e+02  3.4393024635050256e+02  3.1526980710174911e+02  2.8660940491279058e+02  2.5794905220708250e+02  2.2928876701123824e+02  2.0062857629229248e+02  1.7196852285291146e+02  1.4330867175320731e+02  1.1464917481162850e+02  8.5990050215926033e+01  5.7332961910600005e+01  2.8680530206972502e+01  5.6371162903297344e-03  6.8152600491348740e+03  6.6634550430375266e+03  6.1135543317723805e+03  4.6856899133168308e+03  4.7009131548225014e+03  4.6721328799069288e+03  4.6433776411680901e+03  4.6146443963853908e+03  4.5859272017605672e+03  4.5572220390110815e+03  4.5285260407761316e+03  4.4998371198198774e+03  4.4711537313136814e+03  4.4424747106949526e+03  4.4137991664573647e+03  4.3851264071815494e+03  4.3564558908135896e+03  4.3277871885937811e+03  4.2991199588760228e+03  4.2704539277753101e+03  4.2417888746305034e+03  4.2131246209295841e+03  4.1844610217691734e+03  4.1557979591986823e+03  4.1271353369862873e+03  4.0984730764710757e+03  4.0698111132545469e+03  4.0411493945468715e+03  4.0124878770284986e+03  3.9838265251202388e+03  3.9551653095792271e+03  3.9265042063562641e+03  3.8978431956637587e+03  3.8691822612140254e+03  3.8405213895958000e+03  3.8118605697632561e+03  3.7831997926167537e+03  3.7545390506585595e+03  3.7258783377098816e+03  3.6972176486782460e+03  3.6685569793660479e+03  3.6398963263130095e+03  3.6112356866664813e+03  3.5825750580745885e+03  3.5539144385982381e+03  3.5252538266386073e+03  3.4965932208773852e+03  3.4679326202275374e+03  3.4392720237927065e+03  3.4106114308337510e+03  3.3819508407411668e+03  3.3532902530123392e+03  3.3246296672327953e+03  3.2959690830607469e+03  3.2673085002143316e+03  3.2386479184611226e+03  3.2099873376094388e+03  3.1813267575012119e+03  3.1526661780060922e+03  3.1240055990165811e+03  3.0953450204440287e+03  3.0666844422153313e+03  3.0380238642702011e+03  3.0093632865589193e+03  2.9807027090404858e+03  2.9520421316810880e+03  2.9233815544528456e+03  2.8947209773327600e+03  2.8660604003018711e+03  2.8373998233445391e+03  2.8087392464478685e+03  2.7800786696012228e+03  2.7514180927958328e+03  2.7227575160244655e+03  2.6940969392811576e+03  2.6654363625609890e+03  2.6367757858599030e+03  2.6081152091745571e+03  2.5794546325021906e+03  2.5507940558405335e+03  2.5221334791877057e+03  2.4934729025421666e+03  2.4648123259026393e+03  2.4361517492680719e+03  2.4074911726376017e+03  2.3788305960105158e+03  2.3501700193862280e+03  2.3215094427642548e+03  2.2928488661442011e+03  2.2641882895257445e+03  2.2355277129086185e+03  2.2068671362926070e+03  2.1782065596775383e+03  2.1495459830632763e+03  2.1208854064497068e+03  2.0922248298367508e+03  2.0635642532243487e+03  2.0349036766124614e+03  2.0062431000010683e+03  1.9775825233901689e+03  1.9489219467797793e+03  1.9202613701699370e+03  1.8916007935606958e+03  1.8629402169521361e+03  1.8342796403443633e+03  1.8056190637375080e+03  1.7769584871317411e+03  1.7482979105272689e+03  1.7196373339243494e+03  1.6909767573232948e+03  1.6623161807244919e+03  1.6336556041284066e+03  1.6049950275356093e+03  1.5763344509467913e+03  1.5476738743627927e+03  1.5190132977846333e+03  1.4903527212135507e+03  1.4616921446510476e+03  1.4330315680989429e+03  1.4043709915594484e+03  1.3757104150352409e+03  1.3470498385295730e+03  1.3183892620463846e+03  1.2897286855904558e+03  1.2610681091675863e+03  1.2324075327848072e+03  1.2037469564506478e+03  1.1750863801754549e+03  1.1464258039717815e+03  1.1177652278548526e+03  1.0891046518431426e+03  1.0604440759590725e+03  1.0317835002298484e+03  1.0031229246884967e+03  9.7446234937511213e+02  9.4580177433839458e+02  9.1714119963749761e+02  8.8848062534431540e+02  8.5982005154626222e+02  8.3115947834968438e+02  8.0249890588404844e+02  7.7383833430710627e+02  7.4517776381126623e+02  7.1651719463150107e+02  6.8785662705518541e+02  6.5919606143442286e+02  6.3053549820157025e+02  6.0187493788891106e+02  5.7321438115383637e+02  5.4455382881133505e+02  5.1589328187639012e+02  4.8723274161996687e+02  4.5857220964397300e+02  4.2991168798314970e+02  4.0125117924590967e+02  3.7259068681263415e+02  3.4393021512055873e+02  3.1526977008207677e+02  2.8660935971344009e+02  2.5794899510442531e+02  2.2928869194696858e+02  2.0062847305614144e+02  1.7196837230594318e+02  1.4330844301308858e+02  1.1464876464901228e+02  8.5989478189867157e+01  5.7331250655772386e+01  2.8671857287780842e+01  -4.5548182589164390e-04  6.8141239580492347e+03  6.6626510216826873e+03  6.1134066337028753e+03  4.6856159515193785e+03  4.7008623496507789e+03  4.6720984765539906e+03  4.6433546313299576e+03  4.6146281907243756e+03  4.5859153669555099e+03  4.5572131634229036e+03  4.5285192500757039e+03  4.4998318448055506e+03  4.4711495850955425e+03  4.4424714213820534e+03  4.4137965376676602e+03  4.3851242938515461e+03  4.3564541837763873e+03  4.3277858044166505e+03  4.2991188329677370e+03  4.2704530095916552e+03  4.2417881242640715e+03  4.2131240066357459e+03  4.1844605181394654e+03  4.1557975457911280e+03  4.1271349972841226e+03  4.0984727970816512e+03  4.0698108832864382e+03  4.0411492051211826e+03  4.0124877208923990e+03  3.9838263963393074e+03  3.9551652032911115e+03  3.9265041185724845e+03  3.8978431231095851e+03  3.8691822011986660e+03  3.8405213399068703e+03  3.8118605285807603e+03  3.7831997584428436e+03  3.7545390222600649e+03  3.7258783140712499e+03  3.6972176289629265e+03  3.6685569628848066e+03  3.6398963124979000e+03  3.6112356750494232e+03  3.5825750482697767e+03  3.5539144302876439e+03  3.5252538195600555e+03  3.4965932148147326e+03  3.4679326150025790e+03  3.4392720192585061e+03  3.4106114268691617e+03  3.3819508372462888e+03  3.3532902499048000e+03  3.3246296644446729e+03  3.2959690805360269e+03  3.2673084979068285e+03  3.2386479163327467e+03  3.2099873356287812e+03  3.1813267556423752e+03  3.1526661762477120e+03  3.1240055973410476e+03  3.0953450188368142e+03  3.0666844406644555e+03  3.0380238627657877e+03  3.0093632850928225e+03  2.9807027076059853e+03  2.9520421302726468e+03  2.9233815530658940e+03  2.8947209759635293e+03  2.8660603989472547e+03  2.8373998220019753e+03  2.8087392451152423e+03  2.7800786682767930e+03  2.7514180914781618e+03  2.7227575147123689e+03  2.6940969379736580e+03  2.6654363612572793e+03  2.6367757845593192e+03  2.6081152078765499e+03  2.5794546312063098e+03  2.5507940545464053e+03  2.5221334778950218e+03  2.4934729012506727e+03  2.4648123246121268e+03  2.4361517479783688e+03  2.4074911713485631e+03  2.3788305947220265e+03  2.3501700180981879e+03  2.3215094414765849e+03  2.2928488648568350e+03  2.2641882882386249e+03  2.2355277116216994e+03  2.2068671350058517e+03  2.1782065583909125e+03  2.1495459817767487e+03  2.1208854051632593e+03  2.0922248285503588e+03  2.0635642519379930e+03  2.0349036753261241e+03  2.0062430987147320e+03  1.9775825221038174e+03  1.9489219454933941e+03  1.9202613688834986e+03  1.8916007922741833e+03  1.8629402156655267e+03  1.8342796390576284e+03  1.8056190624506166e+03  1.7769584858446547e+03  1.7482979092399432e+03  1.7196373326367293e+03  1.6909767560353166e+03  1.6623161794360763e+03  1.6336556028394593e+03  1.6049950262460145e+03  1.5763344496564116e+03  1.5476738730714599e+03  1.5190132964921436e+03  1.4903527199196578e+03  1.4616921433554530e+03  1.4330315668012836e+03  1.4043709902592843e+03  1.3757104137320398e+03  1.3470498372226878e+03  1.3183892607350315e+03  1.2897286842736837e+03  1.2610681078442415e+03  1.2324075314534898e+03  1.2037469551096594e+03  1.1750863788227352e+03  1.1464258026048287e+03  1.1177652264706301e+03  1.0891046504379631e+03  1.0604440745284578e+03  1.0317834987683568e+03  1.0031229231895136e+03  9.7446234783059560e+02  9.4580177273855497e+02  9.1714119797041519e+02  8.8848062359545884e+02  8.5982004969790023e+02  8.3115947638015166e+02  8.0249890376683084e+02  7.7383833200968934e+02  7.4517776129369054e+02  7.1651719184451554e+02  6.8785662393788766e+02  6.5919605791120068e+02  6.3053549417810120e+02  6.0187493324686943e+02  5.7321437574378763e+02  5.4455382244306873e+02  5.1589327430554397e+02  4.8723273252920416e+02  4.5857219861598776e+02  4.2991167