<?xml version="1.0"?>
<VTKFile type="UnstructuredGrid"  version="0.1"  >
<UnstructuredGrid>
<Piece  NumberOfPoints="21400" NumberOfCells="42336">
<Points>
<DataArray  type="Float64"  NumberOfComponents="3"  format="ascii">0 0 0  0.004583333333333333 0 0  0.009166666666666667 0 0  0.01375 0 0  0.01833333333333333 0 0  0.02291666666666667 0 0  0.0275 0 0  0.03208333333333334 0 0  0.03666666666666667 0 0  0.04125 0 0  0.04583333333333334 0 0  0.05041666666666667 0 0  0.055 0 0  0.05958333333333334 0 0  0.06416666666666668 0 0  0.06875000000000001 0 0  0.07333333333333333 0 0  0.07791666666666666 0 0  0.08249999999999999 0 0  0.08708333333333333 0 0  0.09166666666666667 0 0  0.09625000000000002 0 0  0.1008333333333333 0 0  0.1054166666666667 0 0  0.11 0 0  0.1145833333333333 0 0  0.1191666666666667 0 0  0.12375 0 0  0.1283333333333334 0 0  0.1329166666666667 0 0  0.1375 0 0  0.1420833333333333 0 0  0.1466666666666667 0 0  0.15125 0 0  0.1558333333333333 0 0  0.1604166666666667 0 0  0.165 0 0  0.1695833333333333 0 0  0.1741666666666667 0 0  0.17875 0 0  0.1833333333333333 0 0  0.1879166666666667 0 0  0.1925 0 0  0.1970833333333333 0 0  0.2016666666666667 0 0  0.20625 0 0  0.2108333333333333 0 0  0.2154166666666666 0 0  0.22 0 0  0.2245833333333334 0 0  0.2291666666666667 0 0  0.23375 0 0  0.2383333333333333 0 0  0.2429166666666667 0 0  0.2475 0 0  0.2520833333333333 0 0  0.2566666666666667 0 0  0.26125 0 0  0.2658333333333334 0 0  0.2704166666666666 0 0  0.275 0 0  0.2795833333333334 0 0  0.2841666666666667 0 0  0.28875 0 0  0.2933333333333333 0 0  0.2979166666666667 0 0  0.3025 0 0  0.3070833333333334 0 0  0.3116666666666666 0 0  0.31625 0 0  0.3208333333333333 0 0  0.3254166666666667 0 0  0.33 0 0  0.3345833333333333 0 0  0.3391666666666667 0 0  0.34375 0 0  0.3483333333333333 0 0  0.3529166666666667 0 0  0.3575 0 0  0.3620833333333333 0 0  0.3666666666666667 0 0  0.37125 0 0  0.3758333333333334 0 0  0.3804166666666667 0 0  0.3850000000000001 0 0  0.3895833333333333 0 0  0.3941666666666667 0 0  0.39875 0 0  0.4033333333333334 0 0  0.4079166666666666 0 0  0.4125 0 0  0.4170833333333334 0 0  0.4216666666666667 0 0  0.42625 0 0  0.4308333333333333 0 0  0.4354166666666667 0 0  0.44 0 0  0.4445833333333333 0 0  0.4491666666666667 0 0  0.45375 0 0  0.4583333333333333 0 0  0.4629166666666666 0 0  0.4675 0 0  0.4720833333333334 0 0  0.4766666666666667 0 0  0.4812500000000001 0 0  0.4858333333333333 0 0  0.4904166666666667 0 0  0.495 0 0  0.4995833333333334 0 0  0.5041666666666667 0 0  0.50875 0 0  0.5133333333333334 0 0  0.5179166666666667 0 0  0.5225 0 0  0.5270833333333333 0 0  0.5316666666666667 0 0  0.53625 0 0  0.5408333333333333 0 0  0.5454166666666667 0 0  0.55 0 0  0.5545833333333333 0 0  0.5591666666666667 0 0  0.5637500000000001 0 0  0.5683333333333334 0 0  0.5729166666666666 0 0  0.5775 0 0  0.5820833333333334 0 0  0.5866666666666667 0 0  0.5912499999999999 0 0  0.5958333333333334 0 0  0.6004166666666667 0 0  0.605 0 0  0.6095833333333334 0 0  0.6141666666666667 0 0  0.61875 0 0  0.6233333333333333 0 0  0.6279166666666667 0 0  0.6325000000000001 0 0  0.6370833333333333 0 0  0.6416666666666666 0 0  0.64625 0 0  0.6508333333333334 0 0  0.6554166666666666 0 0  0.6599999999999999 0 0  0.6645833333333334 0 0  0.6691666666666667 0 0  0.67375 0 0  0.6783333333333333 0 0  0.6829166666666667 0 0  0.6875 0 0  0.6920833333333333 0 0  0.6966666666666667 0 0  0.70125 0 0  0.7058333333333333 0 0  0.7104166666666667 0 0  0.7150000000000001 0 0  0.7195833333333334 0 0  0.7241666666666666 0 0  0.72875 0 0  0.7333333333333334 0 0  0.7379166666666667 0 0  0.7425 0 0  0.7470833333333333 0 0  0.7516666666666667 0 0  0.75625 0 0  0.7608333333333334 0 0  0.7654166666666666 0 0  0.7700000000000001 0 0  0 0.002380952380952381 0  0.004583333333333333 0.002380952380952381 0  0.009166666666666667 0.002380952380952381 0  0.01375 0.002380952380952381 0  0.01833333333333333 0.002380952380952381 0  0.02291666666666667 0.002380952380952381 0  0.0275 0.002380952380952381 0  0.03208333333333334 0.002380952380952381 0  0.03666666666666667 0.002380952380952381 0  0.04125 0.002380952380952381 0  0.04583333333333334 0.002380952380952381 0  0.05041666666666667 0.002380952380952381 0  0.055 0.002380952380952381 0  0.05958333333333334 0.002380952380952381 0  0.06416666666666668 0.002380952380952381 0  0.06875000000000001 0.002380952380952381 0  0.07333333333333333 0.002380952380952381 0  0.07791666666666666 0.002380952380952381 0  0.08249999999999999 0.002380952380952381 0  0.08708333333333333 0.002380952380952381 0  0.09166666666666667 0.002380952380952381 0  0.09625000000000002 0.002380952380952381 0  0.1008333333333333 0.002380952380952381 0  0.1054166666666667 0.002380952380952381 0  0.11 0.002380952380952381 0  0.1145833333333333 0.002380952380952381 0  0.1191666666666667 0.002380952380952381 0  0.12375 0.002380952380952381 0  0.1283333333333334 0.002380952380952381 0  0.1329166666666667 0.002380952380952381 0  0.1375 0.002380952380952381 0  0.1420833333333333 0.002380952380952381 0  0.1466666666666667 0.002380952380952381 0  0.15125 0.002380952380952381 0  0.1558333333333333 0.002380952380952381 0  0.1604166666666667 0.002380952380952381 0  0.165 0.002380952380952381 0  0.1695833333333333 0.002380952380952381 0  0.1741666666666667 0.002380952380952381 0  0.17875 0.002380952380952381 0  0.1833333333333333 0.002380952380952381 0  0.1879166666666667 0.002380952380952381 0  0.1925 0.002380952380952381 0  0.1970833333333333 0.002380952380952381 0  0.2016666666666667 0.002380952380952381 0  0.20625 0.002380952380952381 0  0.2108333333333333 0.002380952380952381 0  0.2154166666666666 0.002380952380952381 0  0.22 0.002380952380952381 0  0.2245833333333334 0.002380952380952381 0  0.2291666666666667 0.002380952380952381 0  0.23375 0.002380952380952381 0  0.2383333333333333 0.002380952380952381 0  0.2429166666666667 0.002380952380952381 0  0.2475 0.002380952380952381 0  0.2520833333333333 0.002380952380952381 0  0.2566666666666667 0.002380952380952381 0  0.26125 0.002380952380952381 0  0.2658333333333334 0.002380952380952381 0  0.2704166666666666 0.002380952380952381 0  0.275 0.002380952380952381 0  0.2795833333333334 0.002380952380952381 0  0.2841666666666667 0.002380952380952381 0  0.28875 0.002380952380952381 0  0.2933333333333333 0.002380952380952381 0  0.2979166666666667 0.002380952380952381 0  0.3025 0.002380952380952381 0  0.3070833333333334 0.002380952380952381 0  0.3116666666666666 0.002380952380952381 0  0.31625 0.002380952380952381 0  0.3208333333333333 0.002380952380952381 0  0.3254166666666667 0.002380952380952381 0  0.33 0.002380952380952381 0  0.3345833333333333 0.002380952380952381 0  0.3391666666666667 0.002380952380952381 0  0.34375 0.002380952380952381 0  0.3483333333333333 0.002380952380952381 0  0.3529166666666667 0.002380952380952381 0  0.3575 0.002380952380952381 0  0.3620833333333333 0.002380952380952381 0  0.3666666666666667 0.002380952380952381 0  0.37125 0.002380952380952381 0  0.3758333333333334 0.002380952380952381 0  0.3804166666666667 0.002380952380952381 0  0.3850000000000001 0.002380952380952381 0  0.3895833333333333 0.002380952380952381 0  0.3941666666666667 0.002380952380952381 0  0.39875 0.002380952380952381 0  0.4033333333333334 0.002380952380952381 0  0.4079166666666666 0.002380952380952381 0  0.4125 0.002380952380952381 0  0.4170833333333334 0.002380952380952381 0  0.4216666666666667 0.002380952380952381 0  0.42625 0.002380952380952381 0  0.4308333333333333 0.002380952380952381 0  0.4354166666666667 0.002380952380952381 0  0.44 0.002380952380952381 0  0.4445833333333333 0.002380952380952381 0  0.4491666666666667 0.002380952380952381 0  0.45375 0.002380952380952381 0  0.4583333333333333 0.002380952380952381 0  0.4629166666666666 0.002380952380952381 0  0.4675 0.002380952380952381 0  0.4720833333333334 0.002380952380952381 0  0.4766666666666667 0.002380952380952381 0  0.4812500000000001 0.002380952380952381 0  0.4858333333333333 0.002380952380952381 0  0.4904166666666667 0.002380952380952381 0  0.495 0.002380952380952381 0  0.4995833333333334 0.002380952380952381 0  0.5041666666666667 0.002380952380952381 0  0.50875 0.002380952380952381 0  0.5133333333333334 0.002380952380952381 0  0.5179166666666667 0.002380952380952381 0  0.5225 0.002380952380952381 0  0.5270833333333333 0.002380952380952381 0  0.5316666666666667 0.002380952380952381 0  0.53625 0.002380952380952381 0  0.5408333333333333 0.002380952380952381 0  0.5454166666666667 0.002380952380952381 0  0.55 0.002380952380952381 0  0.5545833333333333 0.002380952380952381 0  0.5591666666666667 0.002380952380952381 0  0.5637500000000001 0.002380952380952381 0  0.5683333333333334 0.002380952380952381 0  0.5729166666666666 0.002380952380952381 0  0.5775 0.002380952380952381 0  0.5820833333333334 0.002380952380952381 0  0.5866666666666667 0.002380952380952381 0  0.5912499999999999 0.002380952380952381 0  0.5958333333333334 0.002380952380952381 0  0.6004166666666667 0.002380952380952381 0  0.605 0.002380952380952381 0  0.6095833333333334 0.002380952380952381 0  0.6141666666666667 0.002380952380952381 0  0.61875 0.002380952380952381 0  0.6233333333333333 0.002380952380952381 0  0.6279166666666667 0.002380952380952381 0  0.6325000000000001 0.002380952380952381 0  0.6370833333333333 0.002380952380952381 0  0.6416666666666666 0.002380952380952381 0  0.64625 0.002380952380952381 0  0.6508333333333334 0.002380952380952381 0  0.6554166666666666 0.002380952380952381 0  0.6599999999999999 0.002380952380952381 0  0.6645833333333334 0.002380952380952381 0  0.6691666666666667 0.002380952380952381 0  0.67375 0.002380952380952381 0  0.6783333333333333 0.002380952380952381 0  0.6829166666666667 0.002380952380952381 0  0.6875 0.002380952380952381 0  0.6920833333333333 0.002380952380952381 0  0.6966666666666667 0.002380952380952381 0  0.70125 0.002380952380952381 0  0.7058333333333333 0.002380952380952381 0  0.7104166666666667 0.002380952380952381 0  0.7150000000000001 0.002380952380952381 
[...]
<PointData  Scalars="pressure"> 
<DataArray  type="Float64"  Name="pressure"  format="ascii">9.4859501489950489e+03  9.3235202021172954e+03  9.1697035675430961e+03  9.0170908521179899e+03  8.8651309250139748e+03  8.7134945901688534e+03  8.5620625900726664e+03  8.4107678311500185e+03  8.2595714243270522e+03  8.1084488617307152e+03  7.9573841168194213e+03  7.8063665282343445e+03  7.6553890936872904e+03  7.5044474927170349e+03  7.3535395239313593e+03  7.2026647900768885e+03  7.0518245258008619e+03  6.9010214628993363e+03  6.7502595275816038e+03  6.5995430647171734e+03  6.4488728178871461e+03  6.2982419249807626e+03  6.1475554577169469e+03  5.9970569522371025e+03  5.8395582850492401e+03  4.1478324242552599e+03  4.0483442440219660e+03  3.9920898675984267e+03  3.9541568113218523e+03  3.9271880886340678e+03  3.8996282456281169e+03  3.8716795136915894e+03  3.8436278220018748e+03  3.8155089019068000e+03  3.7873495840191122e+03  3.7591630396025066e+03  3.7309574507192010e+03  3.7027380773479963e+03  3.6745084804910216e+03  3.6462711526463463e+03  3.6180278872047625e+03  3.5897800036675658e+03  3.5615284910767300e+03  3.5332741024039046e+03  3.5050174184505831e+03  3.4767588921798406e+03  3.4484988801447903e+03  3.4202376652029930e+03  3.3919754732183765e+03  3.3637124855329389e+03  3.3354488484084800e+03  3.3071846802621212e+03  3.2789200772710101e+03  3.2506551177547699e+03  3.2223898656303868e+03  3.1941243731551467e+03  3.1658586831175612e+03  3.1375928305964667e+03  3.1093268443796037e+03  3.0810607481118568e+03  3.0527945612275762e+03  3.0245282997095774e+03  2.9962619767083802e+03  2.9679956030483681e+03  2.9397291876421300e+03  2.9114627378300770e+03  2.8831962596591061e+03  2.8549297581114470e+03  2.8266632372927220e+03  2.7983967005866070e+03  2.7701301507820617e+03  2.7418635901780458e+03  2.7135970206697484e+03  2.6853304438195773e+03  2.6570638609156699e+03  2.6287972730200690e+03  2.6005306810084371e+03  2.5722640856027870e+03  2.5439974873984520e+03  2.5157308868863233e+03  2.4874642844711739e+03  2.4591976804867786e+03  2.4309310752083643e+03  2.4026644688628830e+03  2.3743978616374829e+03  2.3461312536864884e+03  2.3178646451371578e+03  2.2895980360944327e+03  2.2613314266448515e+03  2.2330648168597795e+03  2.2047982067980643e+03  2.1765315965082391e+03  2.1482649860303304e+03  2.1199983753973470e+03  2.0917317646365173e+03  2.0634651537702966e+03  2.0351985428172156e+03  2.0069319317925610e+03  1.9786653207089532e+03  1.9503987095768111e+03  1.9221320984047461e+03  1.8938654871998783e+03  1.8655988759681052e+03  1.8373322647143232e+03  1.8090656534426057e+03  1.7807990421563550e+03  1.7525324308584361e+03  1.7242658195512770e+03  1.6959992082369590e+03  1.6677325969172987e+03  1.6394659855939142e+03  1.6111993742682803e+03  1.5829327629417928e+03  1.5546661516158147e+03  1.5263995402917260e+03  1.4981329289709765e+03  1.4698663176551449e+03  1.4415997063459906e+03  1.4133330950455218e+03  1.3850664837560701e+03  1.3567998724803808e+03  1.3285332612217107e+03  1.3002666499839524e+03  1.2720000387717787e+03  1.2437334275908206e+03  1.2154668164478717e+03  1.1872002053511483e+03  1.1589335943105941e+03  1.1306669833382562e+03  1.1024003724487341e+03  1.0741337616597300e+03  1.0458671509927224e+03  1.0176005404737685e+03  9.8933393013449711e+02  9.6106732001331352e+02  9.3280071015686428e+02  9.0453410062182945e+02  8.7626749147711234e+02  8.4800088280652574e+02  8.1973427471208322e+02  7.9146766731805167e+02  7.6320106077595301e+02  7.3493445527076176e+02  7.0666785102861058e+02  6.7840124832641902e+02  6.5013464750401295e+02  6.2186804897946274e+02  5.9360145326865256e+02  5.6533486101050914e+02  5.3706827299984468e+02  5.0880169023065434e+02  4.8053511395400051e+02  4.5226854575662315e+02  4.2400198766961933e+02  3.9573544232170775e+02  3.6746891316026375e+02  3.3920240477821022e+02  3.1093592341120507e+02  2.8266947771915540e+02  2.5440308005428432e+02  2.2613674865650904e+02  1.9787051121838564e+02  1.6960441452086494e+02  1.4133851893128153e+02  1.1307309740122581e+02  8.4807248966233985e+01  5.6551537994367365e+01  2.8205951008081115e+01  7.9925960190636836e-01  9.4776673607000757e+03  9.3235693451626285e+03  9.1695195960140609e+03  9.0170387316418564e+03  8.8650966180695978e+03  8.7134735484184548e+03  8.5620481526802378e+03  8.4107574383298197e+03  8.2595635936998278e+03  8.1084427243553819e+03  7.9573791146352769e+03  7.8063622786520418e+03  7.6553853155925499e+03  7.5044439642571451e+03  7.3535360570081566e+03  7.2026612155194252e+03  7.0518206886633388e+03  6.9010172337832082e+03  6.7502548859941498e+03  6.5995380789824148e+03  6.4488694822693060e+03  6.2982382395712593e+03  6.1476307304240281e+03  5.9965812023595463e+03  5.8455166671481529e+03  5.6989020297396755e+03  5.5609726981046406e+03  5.4748223794979931e+03  3.9533484968493735e+03  3.9274242515277915e+03  3.8996315245365072e+03  3.8716937805111047e+03  3.8436341647474333e+03  3.8155131792029865e+03  3.7873524402780140e+03  3.7591650562210916e+03  3.7309589157705386e+03  3.7027391680482747e+03  3.6745093081801124e+03  3.6462717906754733e+03  3.6180283854548402e+03  3.5897803970139962e+03  3.5615288044815798e+03  3.5332743540998590e+03  3.5050176219916943e+03  3.4767590577976698e+03  3.4484990156663043e+03  3.4202377766850736e+03  3.3919755653949014e+03  3.3637125621354285e+03  3.3354489123998092e+03  3.3071847340094532e+03  3.2789201226754831e+03  3.2506551563500038e+03  3.2223898986581194e+03  3.1941244016239161e+03  3.1658587078486262e+03  3.1375928522600352e+03  3.1093268635235945e+03  3.0810607651848868e+03  3.0527945765974118e+03  3.0245283136780140e+03  2.9962619895232897e+03  2.9679956149134746e+03  2.9397291987249710e+03  2.9114627482684978e+03  2.8831962695665661e+03  2.8549297675813623e+03  2.8266632464020327e+03  2.7983967093986917e+03  2.7701301593491394e+03  2.7418635985431506e+03  2.7135970288683411e+03  2.6853304518808900e+03  2.6570638688637982e+03  2.6287972808748736e+03  2.6005306887862953e+03  2.5722640933171997e+03  2.5439974950605488e+03  2.5157308945052814e+03  2.4874642920545602e+03  2.4591976880408338e+03  2.4309310827382324e+03  2.4026644763728073e+03  2.3743978691309599e+03  2.3461312611664030e+03  2.3178646526058883e+03  2.2895980435539409e+03  2.2613314340967545e+03  2.2330648243054097e+03  2.2047982142385226e+03  2.1765316039444324e+03  2.1482649934630049e+03  2.1199983828271211e+03  2.0917317720638966e+03  2.0634651611957024e+03  2.0351985502409918e+03  2.0069319392149930e+03  1.9786653281302740e+03  1.9503987169972147e+03  1.9221321058243905e+03  1.8938654946188933e+03  1.8655988833865990e+03  1.8373322721323825e+03  1.8090656608603017e+03  1.7807990495737458e+03  1.7525324382755687e+03  1.7242658269681863e+03  1.6959992156536746e+03  1.6677326043338414e+03  1.6394659930102985e+03  1.6111993816845159e+03  1.5829327703578824e+03  1.5546661590317558e+03  1.5263995477075111e+03  1.4981329363865930e+03  1.4698663250705720e+03  1.4415997137612012e+03  1.4133331024604806e+03  1.3850664911707336e+03  1.3567998798946930e+03  1.3285332686356035e+03  1.3002666573973409e+03  1.2720000461845602e+03  1.2437334350028696e+03  1.2154668238590348e+03  1.1872002127612384e+03  1.1589336017193855e+03  1.1306669907454730e+03  1.1024003798540414e+03  1.0741337690627213e+03  1.0458671583929035e+03  1.0176005478705389e+03  9.8933393752712607e+02  9.6106732740091229e+02  9.3280071753835148e+02  9.0453410799588687e+02  8.7626749884213325e+02  8.4800089016054847e+02  8.1973428205270989e+02  7.9146767464234529e+02  7.6320106808031039e+02  7.3493446255075094e+02  7.0666785827876276e+02  6.7840125553996586e+02  6.5013465467253764e+02  6.2186805609244891e+02  5.9360146031288184e+02  5.6533486796924728e+02  5.3706827985172970e+02  5.0880169694814941e+02  4.8053512050119656e+02  4.5226855208606594e+02  4.2400199371761528e+02  3.9573544800121806e+02  3.6746891834985962e+02  3.3920240930437660e+02  3.1093592701917191e+02  2.8266948002190298e+02  2.5440308044868735e+02  2.2613674610332353e+02  1.9787050432709822e+02  1.6960439735359452e+02  1.4133850851384466e+02  1.1307288684607111e+02  8.4808461689272065e+01  5.6540124276306720e+01  2.8309264635301588e+01  -4.3494475678430171e-02  9.4739972750049510e+03  9.3220679542024918e+03  9.1691394984129583e+03  9.0168368399383489e+03  8.8649836828922325e+03  8.7134011671350981e+03  8.5619985797798236e+03  8.4107215709296706e+03  8.2595364863881805e+03  8.1084214103252925e+03  7.9573616839304004e+03  7.8063474138712336e+03  7.6553720430203693e+03  7.5044315097200997e+03  7.3535237577814414e+03  7.2026484674671110e+03  7.0518069267511564e+03  6.9010019726368810e+03  6.7502378859579703e+03  6.5995199827300657e+03  6.4488532159931892e+03  6.2982398409208326e+03  6.1476551634708558e+03  5.9970522736676348e+03  5.8472020658586307e+03  5.7005515956709614e+03  5.5535205446877153e+03  3.9849475125989093e+03  3.9555534478272657e+03  3.9275203370219901e+03  3.8997234626419308e+03  3.8717309495398154e+03  3.8436569705674929e+03  3.8155276150408772e+03  3.7873622513261621e+03  3.7591719806463125e+03  3.7309639524239797e+03  3.7027429163817974e+03  3.6745121491183459e+03  3.6462739757865875e+03  3.6180300863571397e+03  3.5897817339819949e+03  3.5615298637755477e+03  3.5332751988327577e+03  3.5050182991493111e+03  3.4767596028921530e+03  3.4484994558926492e+03  3.4202381331070892e+03  3.3919758544881288e+03  3.3637127968953405e+03  3.3354491031507141e+03  3.3071848890036918e+03  3.2789202485433802e+03  3.2506552584418914e+03  3.2223899813072494e+03  3.1941244683505493e+03  3.1658587615198917e+03  3.1375928952160830e+03  3.1093268976778468e+03  3.0810607921041524e+03  3.0527945975662437e+03  3.0245283297506248e+03  2.9962620015655771e+03  2.9679956236371540e+03  2.9397292047153628e+03  2.9114627520072036e+03  2.8831962714500014e+03  2.8549297679359297e+03  2.8266632454965570e+03  2.7983967074546276e+03  2.7701301565489512e+03  2.7418635950371959e+03  2.7135970247805431e+03  2.6853304473133885e+03  2.6570638639007871e+03  2.6287972755857595e+03  2.6005306832283004e+03  2.5722640875374959e+03  2.5439974890980343e+03  2.5157308883920246e+03  2.4874642858170050e+03  2.4591976817007803e+03  2.4309310763136600e+03  2.4026644698785394e+03  2.3743978625792197e+03  2.3461312545672704e+03  2.3178646459676747e+03  2.2895980368834994e+03  2.2613314273997366e+03  2.2330648175864749e+03  2.2047982075015138e+03  2.1765315971925179e+03  2.1482649866987977e+03  2.1199983760527739e+03  2.0917317652811862e+03  2.0634651544060921e+03  2.0351985434456881e+03  2.0069319324149894e+03  1.9786653213263894e+03  1.9503987101901239e+03  1.9221320990146476e+03  1.8938654878069542e+03  1.8655988765728371e+03  1.8373322653171035e+03  1.8090656540437531e+03  1.7807990427561317e+03  1.7525324314570505e+03  1.7242658201488923e+03  1.6959992088337037e+03  1.6677325975132685e+03  1.6394659861891744e+03  1.6111993748628715e+03  1.5829327635357304e+03  1.5546661522090881e+03  1.5263995408843020e+03  1.4981329295627959e+03  1.4698663182461171e+03  1.4415997069359964e+03  1.4133330956344050e+03  1.3850664843436327e+03  1.3567998730663753e+03  1.3285332618058319e+03  1.3002666505658231e+03  1.2720000393509399e+03  1.2437334281667102e+03  1.2154668170198067e+03  1.1872002059182958e+03  1.1589335948719422e+03  1.1306669838925754e+03  1.1024003729945300e+03  1.0741337621951877e+03  1.0458671515156359e+03  1.0176005409814558e+03  9.8933393062369817e+02  9.6106732048006154e+02  9.3280071059633121e+02  9.0453410102813302e+02  8.7626749184308107e+02  8.4800088312340472e+02  8.1973427496917043e+02  7.9146766750224242e+02  7.6320106087116903e+02  7.3493445525722768e+02  7.0666785088193217e+02  6.7840124801640127e+02  6.5013464699311999e+02  6.2186804822080217e+02  5.9360145220329480e+02  5.6533485956387403e+02  5.3706827107675963e+02  5.0880168770848132e+02  4.8053511067289674e+02  4.5226854150547172e+02  4.2400198216525342e+02  3.9573543517749499e+02  3.6746890383734393e+02  3.3920239250756265e+02  3.1093590706502550e+02  2.8266945559019268e+02  2.5440304946475467e+02  2.2613670520045801e+02  1.9787044748193023e+02  1.6960431552346319e+02  1.4133836852468468e+02  1.1307274709566232e+02  8.4807457144470547e+01  5.6544055777370176e+01  2.8285121436974261e+01  5.6319887885673695e-03  9.4718244270838877e+03  9.3206383854593169e+03  9.1685290382977510e+03  9.0165271500033596e+03  8.8647995749980055e+03  8.7132818400302694e+03  8.5619158977745428e+03  8.4106613602045600e+03  8.2594907698662246e+03  8.1083853439612112e+03  7.9573321128207717e+03  7.8063221437533193e+03  7.6553494408217157e+03  7.5044102690231839e+03  7.3535027530274310e+03  7.2026266635715529e+03  7.0517833399890160e+03  6.9009757152719767e+03  6.7502084124036655e+03  6.5994878832198556e+03  6.4488228185757625e+03  6.2982248829143164e+03  6.1477128840978203e+03  5.9974217484950332e+03  5.8480057820630918e+03  5.7004166828649040e+03  5.5507701057992317e+03  3.9841837749535721e+03  3.9562233631381137e+03  3.9278335647233503e+03  3.8998336571476611e+03  3.8717929468092275e+03  3.8436936662647831e+03  3.8155515305815529e+03  3.7873786048537299e+03  3.7591835927860816e+03  3.7309724301513843e+03  3.7027492427783354e+03  3.6745169534676434e+03  3.6462776763708025e+03  3.6180329698569271e+03  3.5897840020584567e+03  3.5615316614934559e+03  3.5332766325926655e+03  3.5050194483267715e+03  3.4767605275834853e+03  3.4485002021862260e+03  3.4202387367442875e+03  3.3919763434537267e+03  3.3637131932821503e+03  3.3354494245232304e+03  3.3071851494100047e+03  3.2789204592761412e+03  3.2506554286175769e+03  3.2223901183119337e+03  3.1941245781863377e+03  3.1658588490764764e+03  3.1375929644852458e+03  3.1093269519240102e+03  3.0810608340007725e+03  3.0527946293054147e+03  3.0245283531315304e+03  2.9962620180661315e+03  2.9679956344721904e+03  2.9397292108840261e+03  2.9114627543316237e+03  2.8831962706069148e+03  2.8549297644825679e+03  2.8266632398918678e+03  2.7983967000766938e+03  2.7701301477092925e+03  2.7418635849925249e+03  2.7135970137424347e+03  2.6853304354562320e+03  2.6570638513683348e+03  2.6287972624965178e+03  2.6005306696799635e+03  2.5722640736106137e+03  2.5439974748590139e+03  2.5157308738956240e+03  2.4874642711083716e+03  2.4591976668171415e+03  2.4309310612857093e+03  2.4026644547315882e+03  2.3743978473341404e+03  2.3461312392412710e+03  2.3178646305749462e+03  2.2895980214357442e+03  2.2613314119066035e+03  2.2330648020559211e+03  2.2047981919400991e+03  2.1765315816056523e+03  2.1482649710909423e+03  2.1199983604276058e+03  2.0917317496417381e+03  2.0634651387548624e+03  2.0351985277847373e+03  2.0069319167460144e+03  1.9786653056507889e+03  1.9503986945090480e+03  1.9221320833290436e+03  1.8938654721176001e+03  1.8655988608803702e+03  1.8373322496220458e+03  1.8090656383465312e+03  1.7807990270570883e+03  1.7525324157564635e+03  1.7242658044469808e+03  1.6959991931306377e+03  1.6677325818091731e+03  1.6394659704841390e+03  1.6111993591569490e+03  1.5829327478289410e+03  1.5546661365014199e+03  1.5263995251757096e+03  1.4981329138531996e+03  1.4698663025354015e+03  1.4415996912240012e+03  1.4133330799209243e+03  1.3850664686284044e+03  1.3567998573490718e+03  1.3285332460860488e+03  1.3002666348430632e+03  1.2720000236245949e+03  1.2437334124360373e+03  1.2154668012839004e+03  1.1872001901760555e+03  1.1589335791220296e+03  1.1306669681333635e+03  1.1024003572240424e+03  1.0741337464110229e+03  1.0458671357148758e+03  1.0176005251605535e+03  9.8933391477834073e+02  9.6106730460500285e+02  9.3280069468518639e+02  9.0453408507312383e+02  8.7626747583472468e+02  8.4800086705012700e+02  8.1973425881682510e+02  7.9146765125351124e+02  7.6320104450480824e+02  7.3493443874711693e+02  7.0666783419586238e+02  6.7840123111451908e+02  6.5013462982591079e+02  6.2186803072644614e+02  5.9360143430416031e+02  5.6533484116179977e+02  5.3706825204661573e+02  5.0880166788923134e+02  4.8053508985497501e+02  4.5226851941259906e+02  4.2400195842768301e+02  3.9573540929172896e+02  3.6746887510391218e+02  3.3920235993216909e+02  3.1093586919652034e+02  2.8266941024513415e+02  2.5440299324279442e+02  2.2613663257111298e+02  1.9787034914073320e+02  1.6960417398952086e+02  1.4133815603412256e+02  1.1307236827153361e+02  8.4806939091587168e+01  5.6542509718262551e+01  2.8277085991467910e+01  -4.2735393692981552e-04  9.4703093451477362e+03  9.3194352518629730e+03  9.1678435962548283e+03  9.0161402389793584e+03  8.8645598129292121e+03  8.7131223002306087e+03  8.5618037081133625e+03  8.4105788639278908e+03  8.2594277222913097e+03  8.1083353750155948e+03  7.9572910054535532e+03  7.8062869280916420e+03  7.6553178846231895e+03  7.5043805715150147e+03  7.3534733498606247e+03  7.2025961004144719e+03  7.0517502058460741e+03  6.9009386675818714e+03  6.7501664119050374e+03  6.5994409841607121e+03  6.4487743786841638e+03  6.2981879132679705e+03  6.1477338985816541e+03  5.9975939506746536e+03  5.8482041763492998e+03  5.6999162784544951e+03  5.5489275216000351e+03  3.9835554830677274e+03  3.9564711871012219e+03  3.9280886489425625e+03  3.8999675515849913e+03  3.8718698503480350e+03  3.8437419707571767e+03  3.8155835820837265e+03  3.7874008244242505e+03  3.7591995034297870e+03  3.7309841184256588e+03  3.7027580067686176e+03  3.6745236350923014e+03  3.6462828403730091e+03  3.6180370060209862e+03  3.5897871860883051e+03  3.5615341926042706e+03  3.5332786574407937e+03  3.5050210766540667e+03  3.4767618426901108e+03  3.4485012680933874e+03  3.4202396031901444e+03  3.3919770494415452e+03  3.3637137696427544e+03  3.3354498957943915e+03  3.3071855352346424e+03  3.2789207754561949e+03  3.2506556879178029e+03  3.2223903310795913e+03  3.1941247528334975e+03  3.1658589924586031e+03  3.1375930822005776e+03  3.1093270485518383e+03  3.0810609132921500e+03  3.0527946943365300e+03  3.0245284064275493e+03  2.9962620617015523e+03  2.9679956701523988e+03  2.9397292400117317e+03  2.9114627780611008e+03  2.8831962898883548e+03  2.8549297800983995e+03  2.8266632524865436e+03  2.7983967101811290e+03  2.7701301557609436e+03  2.7418635913518942e+03  2.7135970187066373e+03  2.6853304392701734e+03  2.6570638542338925e+03  2.6287972645801165e+03  2.6005306711188073e+03  2.5722640745178223e+03  2.5439974753278543e+03  2.5157308740029935e+03  2.4874642709176765e+03  2.4591976663806636e+03  2.4309310606465583e+03  2.4026644539253098e+03  2.3743978463900462e+03  2.3461312381835310e+03  2.3178646294234909e+03  2.2895980202070073e+03  2.2613314106141374e+03  2.2330648007108994e+03  2.2047981905517363e+03  2.1765315801815464e+03  2.1482649696373569e+03  2.1199983589497060e+03  2.0917317481437826e+03  2.0634651372403609e+03  2.0351985262565822e+03  2.0069319152065907e+03  1.9786653041020595e+03  1.9503986929526288e+03  1.9221320817662649e+03  1.8938654705495544e+03  1.8655988593079537e+03  1.8373322480459919e+03  1.8090656367674358e+03  1.7807990254754368e+03  1.7525324141726435e+03  1.7242658028613007e+03  1.6959991915433352e+03  1.6677325802204268e+03  1.6394659688940719e+03  1.6111993575656370e+03  1.5829327462364122e+03  1.5546661349076564e+03  1.5263995235806490e+03  1.4981329122567302e+03  1.4698663009373583e+03  1.4415996896241631e+03  1.4133330783190006e+03  1.3850664670240278e+03  1.3567998557417832e+03  1.3285332444752792e+03  1.3002666332281158e+03  1.2720000220046149e+03  1.2437334108099819e+03  1.2154667996505002e+03  1.1872001885337652e+03  1.1589335774689703e+03  1.1306669664672525e+03  1.1024003555421061e+03  1.0741337447098913e+03  1.0458671339904533e+03  1.0176005234078634e+03  9.8933391299133211e+02  9.6106730277631584e+02  9.3280069280586338e+02  9.0453408313225566e+02  8.7626747381901248e+02  8.4800086494334221e+02  8.1973425659913744e+02  7.9146764890065060e+02  7.6320104198701381e+02  7.3493443602781019e+02  7.0666783122996094e+02  6.7840122784627363e+02  6.5013462618610652e+02  6.2186802662874243e+02  5.9360142964024442e+02  5.6533483579488598e+02  5.3706824580259683e+02  5.0880166054444248e+02  4.8053508111897128e+02  4.5226850890346105e+02  4.2400194