<?xml version="1.0"?>
<VTKFile type="UnstructuredGrid"  version="0.1"  >
<UnstructuredGrid>
<Piece  NumberOfPoints="21400" NumberOfCells="42336">
<Points>
<DataArray  type="Float64"  NumberOfComponents="3"  format="ascii">0 0 0  0.004583333333333333 0 0  0.009166666666666667 0 0  0.01375 0 0  0.01833333333333333 0 0  0.02291666666666667 0 0  0.0275 0 0  0.03208333333333334 0 0  0.03666666666666667 0 0  0.04125 0 0  0.04583333333333334 0 0  0.05041666666666667 0 0  0.055 0 0  0.05958333333333334 0 0  0.06416666666666668 0 0  0.06875000000000001 0 0  0.07333333333333333 0 0  0.07791666666666666 0 0  0.08249999999999999 0 0  0.08708333333333333 0 0  0.09166666666666667 0 0  0.09625000000000002 0 0  0.1008333333333333 0 0  0.1054166666666667 0 0  0.11 0 0  0.1145833333333333 0 0  0.1191666666666667 0 0  0.12375 0 0  0.1283333333333334 0 0  0.1329166666666667 0 0  0.1375 0 0  0.1420833333333333 0 0  0.1466666666666667 0 0  0.15125 0 0  0.1558333333333333 0 0  0.1604166666666667 0 0  0.165 0 0  0.1695833333333333 0 0  0.1741666666666667 0 0  0.17875 0 0  0.1833333333333333 0 0  0.1879166666666667 0 0  0.1925 0 0  0.1970833333333333 0 0  0.2016666666666667 0 0  0.20625 0 0  0.2108333333333333 0 0  0.2154166666666666 0 0  0.22 0 0  0.2245833333333334 0 0  0.2291666666666667 0 0  0.23375 0 0  0.2383333333333333 0 0  0.2429166666666667 0 0  0.2475 0 0  0.2520833333333333 0 0  0.2566666666666667 0 0  0.26125 0 0  0.2658333333333334 0 0  0.2704166666666666 0 0  0.275 0 0  0.2795833333333334 0 0  0.2841666666666667 0 0  0.28875 0 0  0.2933333333333333 0 0  0.2979166666666667 0 0  0.3025 0 0  0.3070833333333334 0 0  0.3116666666666666 0 0  0.31625 0 0  0.3208333333333333 0 0  0.3254166666666667 0 0  0.33 0 0  0.3345833333333333 0 0  0.3391666666666667 0 0  0.34375 0 0  0.3483333333333333 0 0  0.3529166666666667 0 0  0.3575 0 0  0.3620833333333333 0 0  0.3666666666666667 0 0  0.37125 0 0  0.3758333333333334 0 0  0.3804166666666667 0 0  0.3850000000000001 0 0  0.3895833333333333 0 0  0.3941666666666667 0 0  0.39875 0 0  0.4033333333333334 0 0  0.4079166666666666 0 0  0.4125 0 0  0.4170833333333334 0 0  0.4216666666666667 0 0  0.42625 0 0  0.4308333333333333 0 0  0.4354166666666667 0 0  0.44 0 0  0.4445833333333333 0 0  0.4491666666666667 0 0  0.45375 0 0  0.4583333333333333 0 0  0.4629166666666666 0 0  0.4675 0 0  0.4720833333333334 0 0  0.4766666666666667 0 0  0.4812500000000001 0 0  0.4858333333333333 0 0  0.4904166666666667 0 0  0.495 0 0  0.4995833333333334 0 0  0.5041666666666667 0 0  0.50875 0 0  0.5133333333333334 0 0  0.5179166666666667 0 0  0.5225 0 0  0.5270833333333333 0 0  0.5316666666666667 0 0  0.53625 0 0  0.5408333333333333 0 0  0.5454166666666667 0 0  0.55 0 0  0.5545833333333333 0 0  0.5591666666666667 0 0  0.5637500000000001 0 0  0.5683333333333334 0 0  0.5729166666666666 0 0  0.5775 0 0  0.5820833333333334 0 0  0.5866666666666667 0 0  0.5912499999999999 0 0  0.5958333333333334 0 0  0.6004166666666667 0 0  0.605 0 0  0.6095833333333334 0 0  0.6141666666666667 0 0  0.61875 0 0  0.6233333333333333 0 0  0.6279166666666667 0 0  0.6325000000000001 0 0  0.6370833333333333 0 0  0.6416666666666666 0 0  0.64625 0 0  0.6508333333333334 0 0  0.6554166666666666 0 0  0.6599999999999999 0 0  0.6645833333333334 0 0  0.6691666666666667 0 0  0.67375 0 0  0.6783333333333333 0 0  0.6829166666666667 0 0  0.6875 0 0  0.6920833333333333 0 0  0.6966666666666667 0 0  0.70125 0 0  0.7058333333333333 0 0  0.7104166666666667 0 0  0.7150000000000001 0 0  0.7195833333333334 0 0  0.7241666666666666 0 0  0.72875 0 0  0.7333333333333334 0 0  0.7379166666666667 0 0  0.7425 0 0  0.7470833333333333 0 0  0.7516666666666667 0 0  0.75625 0 0  0.7608333333333334 0 0  0.7654166666666666 0 0  0.7700000000000001 0 0  0 0.002380952380952381 0  0.004583333333333333 0.002380952380952381 0  0.009166666666666667 0.002380952380952381 0  0.01375 0.002380952380952381 0  0.01833333333333333 0.002380952380952381 0  0.02291666666666667 0.002380952380952381 0  0.0275 0.002380952380952381 0  0.03208333333333334 0.002380952380952381 0  0.03666666666666667 0.002380952380952381 0  0.04125 0.002380952380952381 0  0.04583333333333334 0.002380952380952381 0  0.05041666666666667 0.002380952380952381 0  0.055 0.002380952380952381 0  0.05958333333333334 0.002380952380952381 0  0.06416666666666668 0.002380952380952381 0  0.06875000000000001 0.002380952380952381 0  0.07333333333333333 0.002380952380952381 0  0.07791666666666666 0.002380952380952381 0  0.08249999999999999 0.002380952380952381 0  0.08708333333333333 0.002380952380952381 0  0.09166666666666667 0.002380952380952381 0  0.09625000000000002 0.002380952380952381 0  0.1008333333333333 0.002380952380952381 0  0.1054166666666667 0.002380952380952381 0  0.11 0.002380952380952381 0  0.1145833333333333 0.002380952380952381 0  0.1191666666666667 0.002380952380952381 0  0.12375 0.002380952380952381 0  0.1283333333333334 0.002380952380952381 0  0.1329166666666667 0.002380952380952381 0  0.1375 0.002380952380952381 0  0.1420833333333333 0.002380952380952381 0  0.1466666666666667 0.002380952380952381 0  0.15125 0.002380952380952381 0  0.1558333333333333 0.002380952380952381 0  0.1604166666666667 0.002380952380952381 0  0.165 0.002380952380952381 0  0.1695833333333333 0.002380952380952381 0  0.1741666666666667 0.002380952380952381 0  0.17875 0.002380952380952381 0  0.1833333333333333 0.002380952380952381 0  0.1879166666666667 0.002380952380952381 0  0.1925 0.002380952380952381 0  0.1970833333333333 0.002380952380952381 0  0.2016666666666667 0.002380952380952381 0  0.20625 0.002380952380952381 0  0.2108333333333333 0.002380952380952381 0  0.2154166666666666 0.002380952380952381 0  0.22 0.002380952380952381 0  0.2245833333333334 0.002380952380952381 0  0.2291666666666667 0.002380952380952381 0  0.23375 0.002380952380952381 0  0.2383333333333333 0.002380952380952381 0  0.2429166666666667 0.002380952380952381 0  0.2475 0.002380952380952381 0  0.2520833333333333 0.002380952380952381 0  0.2566666666666667 0.002380952380952381 0  0.26125 0.002380952380952381 0  0.2658333333333334 0.002380952380952381 0  0.2704166666666666 0.002380952380952381 0  0.275 0.002380952380952381 0  0.2795833333333334 0.002380952380952381 0  0.2841666666666667 0.002380952380952381 0  0.28875 0.002380952380952381 0  0.2933333333333333 0.002380952380952381 0  0.2979166666666667 0.002380952380952381 0  0.3025 0.002380952380952381 0  0.3070833333333334 0.002380952380952381 0  0.3116666666666666 0.002380952380952381 0  0.31625 0.002380952380952381 0  0.3208333333333333 0.002380952380952381 0  0.3254166666666667 0.002380952380952381 0  0.33 0.002380952380952381 0  0.3345833333333333 0.002380952380952381 0  0.3391666666666667 0.002380952380952381 0  0.34375 0.002380952380952381 0  0.3483333333333333 0.002380952380952381 0  0.3529166666666667 0.002380952380952381 0  0.3575 0.002380952380952381 0  0.3620833333333333 0.002380952380952381 0  0.3666666666666667 0.002380952380952381 0  0.37125 0.002380952380952381 0  0.3758333333333334 0.002380952380952381 0  0.3804166666666667 0.002380952380952381 0  0.3850000000000001 0.002380952380952381 0  0.3895833333333333 0.002380952380952381 0  0.3941666666666667 0.002380952380952381 0  0.39875 0.002380952380952381 0  0.4033333333333334 0.002380952380952381 0  0.4079166666666666 0.002380952380952381 0  0.4125 0.002380952380952381 0  0.4170833333333334 0.002380952380952381 0  0.4216666666666667 0.002380952380952381 0  0.42625 0.002380952380952381 0  0.4308333333333333 0.002380952380952381 0  0.4354166666666667 0.002380952380952381 0  0.44 0.002380952380952381 0  0.4445833333333333 0.002380952380952381 0  0.4491666666666667 0.002380952380952381 0  0.45375 0.002380952380952381 0  0.4583333333333333 0.002380952380952381 0  0.4629166666666666 0.002380952380952381 0  0.4675 0.002380952380952381 0  0.4720833333333334 0.002380952380952381 0  0.4766666666666667 0.002380952380952381 0  0.4812500000000001 0.002380952380952381 0  0.4858333333333333 0.002380952380952381 0  0.4904166666666667 0.002380952380952381 0  0.495 0.002380952380952381 0  0.4995833333333334 0.002380952380952381 0  0.5041666666666667 0.002380952380952381 0  0.50875 0.002380952380952381 0  0.5133333333333334 0.002380952380952381 0  0.5179166666666667 0.002380952380952381 0  0.5225 0.002380952380952381 0  0.5270833333333333 0.002380952380952381 0  0.5316666666666667 0.002380952380952381 0  0.53625 0.002380952380952381 0  0.5408333333333333 0.002380952380952381 0  0.5454166666666667 0.002380952380952381 0  0.55 0.002380952380952381 0  0.5545833333333333 0.002380952380952381 0  0.5591666666666667 0.002380952380952381 0  0.5637500000000001 0.002380952380952381 0  0.5683333333333334 0.002380952380952381 0  0.5729166666666666 0.002380952380952381 0  0.5775 0.002380952380952381 0  0.5820833333333334 0.002380952380952381 0  0.5866666666666667 0.002380952380952381 0  0.5912499999999999 0.002380952380952381 0  0.5958333333333334 0.002380952380952381 0  0.6004166666666667 0.002380952380952381 0  0.605 0.002380952380952381 0  0.6095833333333334 0.002380952380952381 0  0.6141666666666667 0.002380952380952381 0  0.61875 0.002380952380952381 0  0.6233333333333333 0.002380952380952381 0  0.6279166666666667 0.002380952380952381 0  0.6325000000000001 0.002380952380952381 0  0.6370833333333333 0.002380952380952381 0  0.6416666666666666 0.002380952380952381 0  0.64625 0.002380952380952381 0  0.6508333333333334 0.002380952380952381 0  0.6554166666666666 0.002380952380952381 0  0.6599999999999999 0.002380952380952381 0  0.6645833333333334 0.002380952380952381 0  0.6691666666666667 0.002380952380952381 0  0.67375 0.002380952380952381 0  0.6783333333333333 0.002380952380952381 0  0.6829166666666667 0.002380952380952381 0  0.6875 0.002380952380952381 0  0.6920833333333333 0.002380952380952381 0  0.6966666666666667 0.002380952380952381 0  0.70125 0.002380952380952381 0  0.7058333333333333 0.002380952380952381 0  0.7104166666666667 0.002380952380952381 0  0.7150000000000001 0.002380952380952381 
[...]
<PointData  Scalars="pressure"> 
<DataArray  type="Float64"  Name="pressure"  format="ascii">7.2938706057814943e+03  7.1315301241099341e+03  6.9779904111113656e+03  6.8256698283110090e+03  6.6739981932849423e+03  6.5145649588308643e+03  4.6303284120769249e+03  4.5669873386388826e+03  4.5217555578822021e+03  4.4928281648251932e+03  4.4647697934186035e+03  4.4367183427447117e+03  4.4086744536111346e+03  4.3805924130337671e+03  4.3524740947074561e+03  4.3243247295652018e+03  4.2961506273034547e+03  4.2679571790768387e+03  4.2397486778847051e+03  4.2115284407822737e+03  4.1832990099629369e+03  4.1550623349583857e+03  4.1268199180011643e+03  4.0985729242707403e+03  4.0703222639542473e+03  4.0420686530322982e+03  4.0138126584081933e+03  3.9855547316146403e+03  3.9572952341888422e+03  3.9290344569431754e+03  3.9007726347313856e+03  3.8725099578623153e+03  3.8442465809952769e+03  3.8159826301256408e+03  3.7877182081085980e+03  3.7594533990539253e+03  3.7311882718415013e+03  3.7029228829467743e+03  3.6746572787209307e+03  3.6463914972374123e+03  3.6181255697917372e+03  3.5898595221227829e+03  3.5615933754093608e+03  3.5333271470849072e+03  3.5050608515044546e+03  3.4767945004913608e+03  3.4485281037859390e+03  3.4202616694138992e+03  3.3919952039891668e+03  3.3637287129628926e+03  3.3354622008283363e+03  3.3071956712894998e+03  3.2789291273999702e+03  3.2506625716772824e+03  3.2223960061971147e+03  3.1941294326709017e+03  3.1658628525098061e+03  3.1375962668774259e+03  3.1093296767332481e+03  3.0810630828684712e+03  3.0527964859355197e+03  3.0245298864724050e+03  2.9962632849227825e+03  2.9679966816525148e+03  2.9397300769632998e+03  2.9114634711039357e+03  2.8831968642795964e+03  2.8549302566594765e+03  2.8266636483831076e+03  2.7983970395655479e+03  2.7701304303016923e+03  2.7418638206697879e+03  2.7135972107343691e+03  2.6853306005486502e+03  2.6570639901565182e+03  2.6287973795941657e+03  2.6005307688914368e+03  2.5722641580729460e+03  2.5439975471589910e+03  2.5157309361663119e+03  2.4874643251087136e+03  2.4591977139975816e+03  2.4309311028423026e+03  2.4026644916506239e+03  2.3743978804289295e+03  2.3461312691824887e+03  2.3178646579156471e+03  2.2895980466319875e+03  2.2613314353344713e+03  2.2330648240255391e+03  2.2047982127072059e+03  2.1765316013811380e+03  2.1482649900487122e+03  2.1199983787110705e+03  2.0917317673691559e+03  2.0634651560237571e+03  2.0351985446755298e+03  2.0069319333250257e+03  1.9786653219727118e+03  1.9503987106189859e+03  1.9221320992641959e+03  1.8938654879086475e+03  1.8655988765526183e+03  1.8373322651963692e+03  1.8090656538401529e+03  1.7807990424842235e+03  1.7525324311288450e+03  1.7242658197743008e+03  1.6959992084209073e+03  1.6677325970690240e+03  1.6394659857190659e+03  1.6111993743715186e+03  1.5829327630269602e+03  1.5546661516860790e+03  1.5263995403497006e+03  1.4981329290188169e+03  1.4698663176946268e+03  1.4415997063785787e+03  1.4133330950724248e+03  1.3850664837782845e+03  1.3567998724987274e+03  1.3285332612368677e+03  1.3002666499964780e+03  1.2720000387821342e+03  1.2437334275993858e+03  1.2154668164549601e+03  1.1872002053570177e+03  1.1589335943154581e+03  1.1306669833422905e+03  1.1024003724520828e+03  1.0741337616625135e+03  1.0458671509950391e+03  1.0176005404756993e+03  9.8933393013610896e+02  9.6106732001466185e+02  9.3280071015799513e+02  9.0453410062277942e+02  8.7626749147791281e+02  8.4800088280720217e+02  8.1973427471265688e+02  7.9146766731854007e+02  7.6320106077637024e+02  7.3493445527111987e+02  7.0666785102891845e+02  6.7840124832668596e+02  6.5013464750424521e+02  6.2186804897966510e+02  5.9360145326883026e+02  5.6533486101066535e+02  5.3706827299998247e+02  5.0880169023077644e+02  4.8053511395410879e+02  4.5226854575671962e+02  4.2400198766970539e+02  3.9573544232178438e+02  3.6746891316033202e+02  3.3920240477827070e+02  3.1093592341125844e+02  2.8266947771920223e+02  2.5440308005432513e+02  2.2613674865654394e+02  1.9787051121841506e+02  1.6960441452088889e+02  1.4133851893130006e+02  1.1307309740123874e+02  8.4807248966241289e+01  5.6551537994367365e+01  2.8205951008049890e+01  7.9925960186025835e-01  7.2855636075538850e+03  7.1315577958568310e+03  6.9777903039379044e+03  6.8256996033097521e+03  6.6735930979329532e+03  6.5206865343898235e+03  6.3678306588840724e+03  6.2621125673254965e+03  4.5204121910139074e+03  4.4929552598265918e+03  4.4647374886403622e+03  4.4367239941824610e+03  4.4086783176941026e+03  4.3805965788261892e+03  4.3524775009795321e+03  4.3243274351525224e+03  4.2961527373389727e+03  4.2679588211716218e+03  4.2397499596927946e+03  4.2115294468908514e+03  4.1832998046956127e+03  4.1550629667621843e+03  4.1268204233607903e+03  4.0985733307933197e+03  4.0703225926775817e+03  4.0420689201171785e+03  4.0138128763711015e+03  3.9855549102265668e+03  3.9572953811340071e+03  3.9290345783054090e+03  3.9007727353564242e+03  3.8725100416302016e+03  3.8442466510271247e+03  3.8159826889420578e+03  3.7877182577521389e+03  3.7594534411845402e+03  3.7311883078114920e+03  3.7029229138600845e+03  3.6746573054803016e+03  3.6463915205821222e+03  3.6181255903279280e+03  3.5898595403479280e+03  3.5615933917320913e+03  3.5333271618411063e+03  3.5050608649703649e+03  3.4767945128942870e+03  3.4485281153129836e+03  3.4202616802191283e+03  3.3919952141994727e+03  3.3637287226828130e+03  3.3354622101440059e+03  3.3071956802719010e+03  3.2789291361076084e+03  3.2506625801583809e+03  3.2223960144914240e+03  3.1941294408111953e+03  3.1658628605231020e+03  3.1375962747860021e+03  3.1093296845554732e+03  3.0810630906194874e+03  3.0527964936278177e+03  3.0245298941162805e+03  2.9962632925267294e+03  2.9679966892235311e+03  2.9397300845071618e+03  2.9114634786254051e+03  2.8831968717825994e+03  2.8549302641472509e+03  2.8266636558583223e+03  2.7983970470304075e+03  2.7701304377580109e+03  2.7418638281190638e+03  2.7135972181778357e+03  2.6853306079873278e+03  2.6570639975912459e+03  2.6287973870256346e+03  2.6005307763202195e+03  2.5722641654995145e+03  2.5439975545837324e+03  2.5157309435895472e+03  2.4874643325307061e+03  2.4591977214185486e+03  2.4309311102624256e+03  2.4026644990700484e+03  2.3743978878477792e+03  2.3461312766008641e+03  2.3178646653336309e+03  2.2895980540496498e+03  2.2613314427518662e+03  2.2330648314427144e+03  2.2047982201241994e+03  2.1765316087979804e+03  2.1482649974654310e+03  2.1199983861276851e+03  2.0917317747856855e+03  2.0634651634402144e+03  2.0351985520919275e+03  2.0069319407413730e+03  1.9786653293890149e+03  1.9503987180352515e+03  1.9221321066804280e+03  1.8938654953248492e+03  1.8655988839687914e+03  1.8373322726125155e+03  1.8090656612562723e+03  1.7807990499003140e+03  1.7525324385449042e+03  1.7242658271903258e+03  1.6959992158368937e+03  1.6677326044849653e+03  1.6394659931349545e+03  1.6111993817873454e+03  1.5829327704427124e+03  1.5546661591017423e+03  1.5263995477652568e+03  1.4981329364342439e+03  1.4698663251098974e+03  1.4415997137936604e+03  1.4133331024872778e+03  1.3850664911928604e+03  1.3567998799129675e+03  1.3285332686507006e+03  1.3002666574098173e+03  1.2720000461948755e+03  1.2437334350114011e+03  1.2154668238660956e+03  1.1872002127670858e+03  1.1589336017242308e+03  1.1306669907494913e+03  1.1024003798573776e+03  1.0741337690654943e+03  1.0458671583952116e+03  1.0176005478724624e+03  9.8933393752873224e+02  9.6106732740225596e+02  9.3280071753947823e+02  9.0453410799683365e+02  8.7626749884293110e+02  8.4800089016122274e+02  8.1973428205328185e+02  7.9146767464283232e+02  7.6320106808072660e+02  7.3493446255110769e+02  7.0666785827907040e+02  6.7840125554023200e+02  6.5013465467276910e+02  6.2186805609265105e+02  5.9360146031305896e+02  5.6533486796940315e+02  5.3706827985186749e+02  5.0880169694827117e+02  4.8053512050130485e+02  4.5226855208616223e+02  4.2400199371770105e+02  3.9573544800129451e+02  3.6746891834992772e+02  3.3920240930443708e+02  3.1093592701922523e+02  2.8266948002194982e+02  2.5440308044872819e+02  2.2613674610335849e+02  1.9787050432712758e+02  1.6960439735361842e+02  1.4133850851386313e+02  1.1307288684608409e+02  8.4808461689279397e+01  5.6540124276307409e+01  2.8309264635274502e+01  -4.3494475681840283e-02  7.2818100406706963e+03  7.1299790832209237e+03  6.9773709785950541e+03  6.8255534096844167e+03  6.6741634302776229e+03  6.5237641897142821e+03  6.3733267290937429e+03  4.5556403527472039e+03  4.5216295012036808e+03  4.4925970848847383e+03  4.4647409123995067e+03  4.4367306448851887e+03  4.4086938388714707e+03  4.3806107505383461e+03  4.3524892208861611e+03  4.3243366855798413e+03  4.2961599402759148e+03  4.2679644173352253e+03  4.2397543209900041e+03  4.2115328636668382e+03  4.1833024973792189e+03  4.1550651012415374e+03  4.1268221245404529e+03  4.0985746931935719e+03  4.0703236883427730e+03  4.0420698044056176e+03  4.0138135921702469e+03  3.9855554910261230e+03  3.9572958532784041e+03  3.9290349626573993e+03  3.9007730485366474e+03  3.8725102969495229e+03  3.8442468591945899e+03  3.8159828586074814e+03  3.7877183959256686e+03  3.7594535535637738e+03  3.7311883990384654e+03  3.7029229877245475e+03  3.6746573650814953e+03  3.6463915684582148e+03  3.6181256285600698e+03  3.5898595706442311e+03  3.5615934154956549e+03  3.5333271802252680e+03  3.5050608789236953e+03  3.4767945231973122e+03  3.4485281226082047e+03  3.4202616850355957e+03  3.3919952169729372e+03  3.3637287237722544e+03  3.3354622098452164e+03  3.3071956788286384e+03  3.2789291337207801e+03  3.2506625769935872e+03  3.2223960106851782e+03  3.1941294364760402e+03  3.1658628557518250e+03  3.1375962696551032e+03  3.1093296791280295e+03  3.0810630849475087e+03  3.0527964877541881e+03  3.0245298880763648e+03  2.9962632863496874e+03  2.9679966829334089e+03  2.9397300781237864e+03  2.9114634721651291e+03  2.8831968652589071e+03  2.8549302575712622e+03  2.8266636492392058e+03  2.7983970403757266e+03  2.7701304310740002e+03  2.7418638214108660e+03  2.7135972114496922e+03  2.6853306012427342e+03  2.6570639908330877e+03  2.6287973802562906e+03  2.6005307695416500e+03  2.5722641587133357e+03  2.5439975477912808e+03  2.5157309367919211e+03  2.4874643257288126e+03  2.4591977146131367e+03  2.4309311034541101e+03  2.4026644922593405e+03  2.3743978810350959e+03  2.3461312697865524e+03  2.3178646585179758e+03  2.2895980472328856e+03  2.2613314359341871e+03  2.2330648246242790e+03  2.2047982133051405e+03  2.1765316019784050e+03  2.1482649906454280e+03  2.1199983793073275e+03  2.0917317679650332e+03  2.0634651566193161e+03  2.0351985452708229e+03  2.0069319339200933e+03  1.9786653225675857e+03  1.9503987112136931e+03  1.9221320998587546e+03  1.8938654885030714e+03  1.8655988771469158e+03  1.8373322657905460e+03  1.8090656544342078e+03  1.7807990430781501e+03  1.7525324317226339e+03  1.7242658203679375e+03  1.6959992090143714e+03  1.6677325976622878e+03  1.6394659863120951e+03  1.6111993749642704e+03  1.5829327636193807e+03  1.5546661522781019e+03  1.5263995409412450e+03  1.4981329296097842e+03  1.4698663182848970e+03  1.4415997069680061e+03  1.4133330956608308e+03  1.3850664843654533e+03  1.3567998730843976e+03  1.3285332618207210e+03  1.3002666505781285e+03  1.2720000393611133e+03  1.2437334281751255e+03  1.2154668170267712e+03  1.1872002059240633e+03  1.1589335948767223e+03  1.1306669838965399e+03  1.1024003729978219e+03  1.0741337621979244e+03  1.0458671515179135e+03  1.0176005409833549e+03  9.8933393062528376e+02  9.6106732048138804e+02  9.3280071059744364e+02  9.0453410102906821e+02  8.7626749184386961e+02  8.4800088312407127e+02  8.1973427496973579e+02  7.9146766750272400e+02  7.6320106087158058e+02  7.3493445525758102e+02  7.0666785088223673e+02  6.7840124801666514e+02  6.5013464699334952e+02  6.2186804822100248e+02  5.9360145220347056e+02  5.6533485956402876e+02  5.3706827107689628e+02  5.0880168770860263e+02  4.8053511067300423e+02  4.5226854150556733e+02  4.2400198216533869e+02  3.9573543517757111e+02  3.6746890383741169e+02  3.3920239250762285e+02  3.1093590706507877e+02  2.8266945559023941e+02  2.5440304946479537e+02  2.2613670520049291e+02  1.9787044748195959e+02  1.6960431552348714e+02  1.4133836852470324e+02  1.1307274709567544e+02  8.4807457144478093e+01  5.6544055777370389e+01  2.8285121436961415e+01  5.6319887916856798e-03  7.2794901624412623e+03  7.1284115181773041e+03  6.9766674150959589e+03  6.8253098569326512e+03  6.6746864261640085e+03  6.5253928520716263e+03  6.3826587315504203e+03  6.2550082614639741e+03  4.5188588921540522e+03  4.4926166919063135e+03  4.4647066748966590e+03  4.4367541627274049e+03  4.4087211869249577e+03  4.3806354248873140e+03  4.3525092359455384e+03  4.3243523998998089e+03  4.2961721470787506e+03  4.2679738943161638e+03  4.2397617064038004e+03  4.2115386509962309e+03  4.1833070596739199e+03  4.1550687187976837e+03  4.1268250083320581e+03  4.0985770029185669e+03  4.0703255457963360e+03  4.0420713032414692e+03  4.0138148049987235e+03  3.9855564745880865e+03  3.9572966522389206e+03  3.9290356124094778e+03  3.9007735772920746e+03  3.8725107273128770e+03  3.8442472093595311e+03  3.8159831432744436e+03  3.7877186270120478e+03  3.7594537407580783e+03  3.7311885502359678e+03  3.7029231093720964e+03  3.6746574624520904e+03  3.6463916458708018e+03  3.6181256895563010e+03  3.5898596181311914e+03  3.5615934518614863e+03  3.5333272074331230e+03  3.5050608985882668e+03  3.4767945366472927e+03  3.4485281309373613e+03  3.4202616891445932e+03  3.3919952176036159e+03  3.3637287215357746e+03  3.3354622052451623e+03  3.3071956722800201e+03  3.2789291255656476e+03  3.2506625675138880e+03  3.2223960001133396e+03  3.1941294250036749e+03  3.1658628435369092e+03  3.1375962568278883e+03  3.1093296657959104e+03  3.0810630711990370e+03  3.0527964736623831e+03  3.0245298737014341e+03  2.9962632717412807e+03  2.9679966681324672e+03  2.9397300631640715e+03  2.9114634570744811e+03  2.8831968500602843e+03  2.8549302422835972e+03  2.8266636338781118e+03  2.7983970249540766e+03  2.7701304156024134e+03  2.7418638058980969e+03  2.7135971959029630e+03  2.6853305856679981e+03  2.6570639752352554e+03  2.6287973646394112e+03  2.6005307539090636e+03  2.5722641430677959e+03  2.5439975321350576e+03  2.5157309211268894e+03  2.4874643100565154e+03  2.4591976989348468e+03  2.4309310877708795e+03  2.4026644765720330e+03  2.3743978653444274e+03  2.3461312540931099e+03  2.3178646428222451e+03  2.2895980315352676e+03  2.2613314202350111e+03  2.2330648089238161e+03  2.2047981976036144e+03  2.1765315862760008e+03  2.1482649749422967e+03  2.1199983636035918e+03  2.0917317522607959e+03  2.0634651409146604e+03  2.0351985295658144e+03  2.0069319182147872e+03  1.9786653068620253e+03  1.9503986955079115e+03  1.9221320841527779e+03  1.8938654727969172e+03  1.8655988614405953e+03  1.8373322500840645e+03  1.8090656387275646e+03  1.7807990273713388e+03  1.7525324160156410e+03  1.7242658046607432e+03  1.6959991933069489e+03  1.6677325819546004e+03  1.6394659706040975e+03  1.6111993592559056e+03  1.5829327479105771e+03  1.5546661365687728e+03  1.5263995252312832e+03  1.4981329138990588e+03  1.4698663025732494e+03  1.4415996912552428e+03  1.4133330799467160e+03  1.3850664686497025e+03  1.3567998573666634e+03  1.3285332461005826e+03  1.3002666348550756e+03  1.2720000236345268e+03  1.2437334124442530e+03  1.2154668012907007e+03  1.1872001901816873e+03  1.1589335791266979e+03  1.1306669681372362e+03  1.1024003572272586e+03  1.0741337464136971e+03  1.0458671357171017e+03  1.0176005251624096e+03  9.8933391477989119e+02  9.6106730460630058e+02  9.3280069468627482e+02  9.0453408507403935e+02  8.7626747583549718e+02  8.4800086705078036e+02  8.1973425881737944e+02  7.9146765125398349e+02  7.6320104450521239e+02  7.3493443874746390e+02  7.0666783419616183e+02  6.7840123111477862e+02  6.5013462982613669e+02  6.2186803072664361e+02  5.9360143430433379e+02  5.6533484116195280e+02  5.3706825204675056e+02  5.0880166788935117e+02  4.8053508985508148e+02  4.5226851941269393e+02  4.2400195842776753e+02  3.9573540929180439e+02  3.6746887510397943e+02  3.3920235993222877e+02  3.1093586919657326e+02  2.8266941024518059e+02  2.5440299324283487e+02  2.2613663257114771e+02  1.9787034914076250e+02  1.6960417398954479e+02  1.4133815603414118e+02  1.1307236827154692e+02  8.4806939091594927e+01  5.6542509718263396e+01  2.8277085991463910e+01  -4.2735393953145638e-04  7.2777601782424626e+03  7.1270010231090419e+03  6.9758146553775032e+03  6.8248982931472274e+03  6.6748333839795105e+03  6.5263531971934799e+03  6.3837014916254966e+03  6.2540688550003051e+03  4.5184244506282857e+03  4.4925083905636175e+03  4.4647187885707408e+03  4.4367947774257709e+03  4.4087629756312581e+03  4.3806708410729807e+03  4.3525374386472877e+03  4.3243743714088750e+03  4.2961891695137019e+03  4.2679871046335184e+03  4.2397720081529851e+03  4.2115467333568031e+03  4.1833134406723657e+03  4.1550737868387660e+03  4.1268290556630500e+03  4.0985802508796469e+03  4.0703281633597690e+03  4.0420734204871887e+03  4.0138165228981748e+03  3.9855578721349143e+03  3.9572977916809150e+03  3.9290365431195160e+03  3.9007743386586262e+03  3.8725113509191428e+03  3.8442477206420217e+03  3.8159835627970488e+03  3.7877189714533442e+03  3.7594540236826274e+03  3.7311887827013452e+03  3.7029233004098337e+03  3.6746576194509666e+03  3.6463917748839040e+03  3.6181257955481296e+03  3.5898597051772872e+03  3.5615935233102400e+03  3.5333272660373077e+03  3.5050609466122096e+03  3.4767945759543732e+03  3.4485281630615782e+03  3.4202617153491692e+03  3.3919952389290584e+03  3.3637287388393188e+03  3.3354622192331763e+03  3.3071956835346364e+03  3.2789291345666693e+03  3.2506625746568188e+03  3.2223960057242152e+03  3.1941294293512856e+03  3.1658628468428619e+03  3.1375962592748983e+03  3.1093296675346305e+03  3.0810630723536906e+03  3.0527964743353978e+03  3.0245298739772747e+03  2.9962632716895951e+03  2.9679966678106885e+03  2.9397300626195602e+03  2.9114634563462923e+03  2.8831968491806256e+03  2.8549302412790266e+03  2.8266636327705314e+03  2.7983970237615495e+03  2.7701304143398320e+03  2.7418638045777457e+03  2.7135971945349697e+03  2.6853305842607174e+03  2.6570639737955739e+03  2.6287973631730092e+03  2.6005307524206273e+03  2.5722641415611879e+03  2.5439975306134629e+03  2.5157309195929361e+03  2.4874643085123707e+03  2.4591976973822962e+03  2.4309310862113966e+03  2.4026644750068326e+03  2.3743978637745099e+03  2.3461312525193034e+03  2.3178646412452285e+03  2.2895980299556027e+03  2.2613314186531602e+03  2.2330648073401608e+03  2.2047981960184670e+03  2.1765315846896210e+03  2.1482649733548951e+03  2.1199983620153448e+03  2.0917317506718437e+03  2.0634651393251202e+03  2.0351985279757814e+03  2.0069319166243365e+03  1.9786653052712179e+03  1.9503986939167939e+03  1.9221320825613859e+03  1.8938654712052760e+03  1.8655988598487218e+03  1.8373322484919647e+03  1.8090656371352381e+03  1.7807990257787762e+03  1.7525324144228234e+03  1.7242658030676432e+03  1.6959991917135278e+03  1.6677325803608085e+03  1.6394659690098704e+03  1.6111993576611626e+03  1.5829327463152185e+03  1.5546661349726764e+03  1.5263995236342985e+03  1.4981329123010030e+03  1.4698663009738984e+03  1.4415996896543252e+03  1.4133330783439030e+03  1.3850664670445922e+03  1.3567998557587694e+03  1.3285332444893143e+03  1.3002666332397166e+03  1.2720000220142074e+03  1.2437334108179184e+03  1.2154667996570695e+03  1.1872001885392065e+03  1.1589335774734816e+03  1.1306669664709959e+03  1.1024003555452157e+03  1.0741337447124772e+03  1.0458671339926068e+03  1.0176005234096598e+03  9.8933391299283323e+02  9.6106730277757299e+02  9.3280069280691839e+02  9.0453408313314367e+02  8.7626747381976202e+02  8.4800086494397669e+02  8.1973425659967666e+02  7.9146764890111024e+02  7.6320104198740717e+02  7.3493443602814864e+02  7.0666783123025323e+02  6.7840122784652726e+02  6.5013462618632752e+02  6.2186802662893592e+02  5.9360142964041461e+02  5.6533483579503616e+02  5.3706824580272962e+02  5.0880166054456032e+02  4.8053508111907627e+02  4.5226850890355468e+02  4.2400194