<?xml version="1.0"?>
<VTKFile type="UnstructuredGrid"  version="0.1"  >
<UnstructuredGrid>
<Piece  NumberOfPoints="21400" NumberOfCells="42336">
<Points>
<DataArray  type="Float64"  NumberOfComponents="3"  format="ascii">0 0 0  0.004583333333333333 0 0  0.009166666666666667 0 0  0.01375 0 0  0.01833333333333333 0 0  0.02291666666666667 0 0  0.0275 0 0  0.03208333333333334 0 0  0.03666666666666667 0 0  0.04125 0 0  0.04583333333333334 0 0  0.05041666666666667 0 0  0.055 0 0  0.05958333333333334 0 0  0.06416666666666668 0 0  0.06875000000000001 0 0  0.07333333333333333 0 0  0.07791666666666666 0 0  0.08249999999999999 0 0  0.08708333333333333 0 0  0.09166666666666667 0 0  0.09625000000000002 0 0  0.1008333333333333 0 0  0.1054166666666667 0 0  0.11 0 0  0.1145833333333333 0 0  0.1191666666666667 0 0  0.12375 0 0  0.1283333333333334 0 0  0.1329166666666667 0 0  0.1375 0 0  0.1420833333333333 0 0  0.1466666666666667 0 0  0.15125 0 0  0.1558333333333333 0 0  0.1604166666666667 0 0  0.165 0 0  0.1695833333333333 0 0  0.1741666666666667 0 0  0.17875 0 0  0.1833333333333333 0 0  0.1879166666666667 0 0  0.1925 0 0  0.1970833333333333 0 0  0.2016666666666667 0 0  0.20625 0 0  0.2108333333333333 0 0  0.2154166666666666 0 0  0.22 0 0  0.2245833333333334 0 0  0.2291666666666667 0 0  0.23375 0 0  0.2383333333333333 0 0  0.2429166666666667 0 0  0.2475 0 0  0.2520833333333333 0 0  0.2566666666666667 0 0  0.26125 0 0  0.2658333333333334 0 0  0.2704166666666666 0 0  0.275 0 0  0.2795833333333334 0 0  0.2841666666666667 0 0  0.28875 0 0  0.2933333333333333 0 0  0.2979166666666667 0 0  0.3025 0 0  0.3070833333333334 0 0  0.3116666666666666 0 0  0.31625 0 0  0.3208333333333333 0 0  0.3254166666666667 0 0  0.33 0 0  0.3345833333333333 0 0  0.3391666666666667 0 0  0.34375 0 0  0.3483333333333333 0 0  0.3529166666666667 0 0  0.3575 0 0  0.3620833333333333 0 0  0.3666666666666667 0 0  0.37125 0 0  0.3758333333333334 0 0  0.3804166666666667 0 0  0.3850000000000001 0 0  0.3895833333333333 0 0  0.3941666666666667 0 0  0.39875 0 0  0.4033333333333334 0 0  0.4079166666666666 0 0  0.4125 0 0  0.4170833333333334 0 0  0.4216666666666667 0 0  0.42625 0 0  0.4308333333333333 0 0  0.4354166666666667 0 0  0.44 0 0  0.4445833333333333 0 0  0.4491666666666667 0 0  0.45375 0 0  0.4583333333333333 0 0  0.4629166666666666 0 0  0.4675 0 0  0.4720833333333334 0 0  0.4766666666666667 0 0  0.4812500000000001 0 0  0.4858333333333333 0 0  0.4904166666666667 0 0  0.495 0 0  0.4995833333333334 0 0  0.5041666666666667 0 0  0.50875 0 0  0.5133333333333334 0 0  0.5179166666666667 0 0  0.5225 0 0  0.5270833333333333 0 0  0.5316666666666667 0 0  0.53625 0 0  0.5408333333333333 0 0  0.5454166666666667 0 0  0.55 0 0  0.5545833333333333 0 0  0.5591666666666667 0 0  0.5637500000000001 0 0  0.5683333333333334 0 0  0.5729166666666666 0 0  0.5775 0 0  0.5820833333333334 0 0  0.5866666666666667 0 0  0.5912499999999999 0 0  0.5958333333333334 0 0  0.6004166666666667 0 0  0.605 0 0  0.6095833333333334 0 0  0.6141666666666667 0 0  0.61875 0 0  0.6233333333333333 0 0  0.6279166666666667 0 0  0.6325000000000001 0 0  0.6370833333333333 0 0  0.6416666666666666 0 0  0.64625 0 0  0.6508333333333334 0 0  0.6554166666666666 0 0  0.6599999999999999 0 0  0.6645833333333334 0 0  0.6691666666666667 0 0  0.67375 0 0  0.6783333333333333 0 0  0.6829166666666667 0 0  0.6875 0 0  0.6920833333333333 0 0  0.6966666666666667 0 0  0.70125 0 0  0.7058333333333333 0 0  0.7104166666666667 0 0  0.7150000000000001 0 0  0.7195833333333334 0 0  0.7241666666666666 0 0  0.72875 0 0  0.7333333333333334 0 0  0.7379166666666667 0 0  0.7425 0 0  0.7470833333333333 0 0  0.7516666666666667 0 0  0.75625 0 0  0.7608333333333334 0 0  0.7654166666666666 0 0  0.7700000000000001 0 0  0 0.002380952380952381 0  0.004583333333333333 0.002380952380952381 0  0.009166666666666667 0.002380952380952381 0  0.01375 0.002380952380952381 0  0.01833333333333333 0.002380952380952381 0  0.02291666666666667 0.002380952380952381 0  0.0275 0.002380952380952381 0  0.03208333333333334 0.002380952380952381 0  0.03666666666666667 0.002380952380952381 0  0.04125 0.002380952380952381 0  0.04583333333333334 0.002380952380952381 0  0.05041666666666667 0.002380952380952381 0  0.055 0.002380952380952381 0  0.05958333333333334 0.002380952380952381 0  0.06416666666666668 0.002380952380952381 0  0.06875000000000001 0.002380952380952381 0  0.07333333333333333 0.002380952380952381 0  0.07791666666666666 0.002380952380952381 0  0.08249999999999999 0.002380952380952381 0  0.08708333333333333 0.002380952380952381 0  0.09166666666666667 0.002380952380952381 0  0.09625000000000002 0.002380952380952381 0  0.1008333333333333 0.002380952380952381 0  0.1054166666666667 0.002380952380952381 0  0.11 0.002380952380952381 0  0.1145833333333333 0.002380952380952381 0  0.1191666666666667 0.002380952380952381 0  0.12375 0.002380952380952381 0  0.1283333333333334 0.002380952380952381 0  0.1329166666666667 0.002380952380952381 0  0.1375 0.002380952380952381 0  0.1420833333333333 0.002380952380952381 0  0.1466666666666667 0.002380952380952381 0  0.15125 0.002380952380952381 0  0.1558333333333333 0.002380952380952381 0  0.1604166666666667 0.002380952380952381 0  0.165 0.002380952380952381 0  0.1695833333333333 0.002380952380952381 0  0.1741666666666667 0.002380952380952381 0  0.17875 0.002380952380952381 0  0.1833333333333333 0.002380952380952381 0  0.1879166666666667 0.002380952380952381 0  0.1925 0.002380952380952381 0  0.1970833333333333 0.002380952380952381 0  0.2016666666666667 0.002380952380952381 0  0.20625 0.002380952380952381 0  0.2108333333333333 0.002380952380952381 0  0.2154166666666666 0.002380952380952381 0  0.22 0.002380952380952381 0  0.2245833333333334 0.002380952380952381 0  0.2291666666666667 0.002380952380952381 0  0.23375 0.002380952380952381 0  0.2383333333333333 0.002380952380952381 0  0.2429166666666667 0.002380952380952381 0  0.2475 0.002380952380952381 0  0.2520833333333333 0.002380952380952381 0  0.2566666666666667 0.002380952380952381 0  0.26125 0.002380952380952381 0  0.2658333333333334 0.002380952380952381 0  0.2704166666666666 0.002380952380952381 0  0.275 0.002380952380952381 0  0.2795833333333334 0.002380952380952381 0  0.2841666666666667 0.002380952380952381 0  0.28875 0.002380952380952381 0  0.2933333333333333 0.002380952380952381 0  0.2979166666666667 0.002380952380952381 0  0.3025 0.002380952380952381 0  0.3070833333333334 0.002380952380952381 0  0.3116666666666666 0.002380952380952381 0  0.31625 0.002380952380952381 0  0.3208333333333333 0.002380952380952381 0  0.3254166666666667 0.002380952380952381 0  0.33 0.002380952380952381 0  0.3345833333333333 0.002380952380952381 0  0.3391666666666667 0.002380952380952381 0  0.34375 0.002380952380952381 0  0.3483333333333333 0.002380952380952381 0  0.3529166666666667 0.002380952380952381 0  0.3575 0.002380952380952381 0  0.3620833333333333 0.002380952380952381 0  0.3666666666666667 0.002380952380952381 0  0.37125 0.002380952380952381 0  0.3758333333333334 0.002380952380952381 0  0.3804166666666667 0.002380952380952381 0  0.3850000000000001 0.002380952380952381 0  0.3895833333333333 0.002380952380952381 0  0.3941666666666667 0.002380952380952381 0  0.39875 0.002380952380952381 0  0.4033333333333334 0.002380952380952381 0  0.4079166666666666 0.002380952380952381 0  0.4125 0.002380952380952381 0  0.4170833333333334 0.002380952380952381 0  0.4216666666666667 0.002380952380952381 0  0.42625 0.002380952380952381 0  0.4308333333333333 0.002380952380952381 0  0.4354166666666667 0.002380952380952381 0  0.44 0.002380952380952381 0  0.4445833333333333 0.002380952380952381 0  0.4491666666666667 0.002380952380952381 0  0.45375 0.002380952380952381 0  0.4583333333333333 0.002380952380952381 0  0.4629166666666666 0.002380952380952381 0  0.4675 0.002380952380952381 0  0.4720833333333334 0.002380952380952381 0  0.4766666666666667 0.002380952380952381 0  0.4812500000000001 0.002380952380952381 0  0.4858333333333333 0.002380952380952381 0  0.4904166666666667 0.002380952380952381 0  0.495 0.002380952380952381 0  0.4995833333333334 0.002380952380952381 0  0.5041666666666667 0.002380952380952381 0  0.50875 0.002380952380952381 0  0.5133333333333334 0.002380952380952381 0  0.5179166666666667 0.002380952380952381 0  0.5225 0.002380952380952381 0  0.5270833333333333 0.002380952380952381 0  0.5316666666666667 0.002380952380952381 0  0.53625 0.002380952380952381 0  0.5408333333333333 0.002380952380952381 0  0.5454166666666667 0.002380952380952381 0  0.55 0.002380952380952381 0  0.5545833333333333 0.002380952380952381 0  0.5591666666666667 0.002380952380952381 0  0.5637500000000001 0.002380952380952381 0  0.5683333333333334 0.002380952380952381 0  0.5729166666666666 0.002380952380952381 0  0.5775 0.002380952380952381 0  0.5820833333333334 0.002380952380952381 0  0.5866666666666667 0.002380952380952381 0  0.5912499999999999 0.002380952380952381 0  0.5958333333333334 0.002380952380952381 0  0.6004166666666667 0.002380952380952381 0  0.605 0.002380952380952381 0  0.6095833333333334 0.002380952380952381 0  0.6141666666666667 0.002380952380952381 0  0.61875 0.002380952380952381 0  0.6233333333333333 0.002380952380952381 0  0.6279166666666667 0.002380952380952381 0  0.6325000000000001 0.002380952380952381 0  0.6370833333333333 0.002380952380952381 0  0.6416666666666666 0.002380952380952381 0  0.64625 0.002380952380952381 0  0.6508333333333334 0.002380952380952381 0  0.6554166666666666 0.002380952380952381 0  0.6599999999999999 0.002380952380952381 0  0.6645833333333334 0.002380952380952381 0  0.6691666666666667 0.002380952380952381 0  0.67375 0.002380952380952381 0  0.6783333333333333 0.002380952380952381 0  0.6829166666666667 0.002380952380952381 0  0.6875 0.002380952380952381 0  0.6920833333333333 0.002380952380952381 0  0.6966666666666667 0.002380952380952381 0  0.70125 0.002380952380952381 0  0.7058333333333333 0.002380952380952381 0  0.7104166666666667 0.002380952380952381 0  0.7150000000000001 0.002380952380952381 
[...]
<PointData  Scalars="pressure"> 
<DataArray  type="Float64"  Name="pressure"  format="ascii">7.6309647177918223e+03  7.4686259342602652e+03  7.3151203132934861e+03  7.1630606099549450e+03  7.0119274035417957e+03  6.8614522673833353e+03  6.7114982191777108e+03  6.5621594073578044e+03  6.4065300993542778e+03  4.5636007226589882e+03  4.4726189247602997e+03  4.4349218315217186e+03  4.4067192738121912e+03  4.3790925450442319e+03  4.3512847588826089e+03  4.3233992682433782e+03  4.2954269955179352e+03  4.2673882859007153e+03  4.2392984738544974e+03  4.2111699255335780e+03  4.1830118993240576e+03  4.1548312840273429e+03  4.1266332085963213e+03  4.0984215199849377e+03  4.0701991310863114e+03  4.0419682699345908e+03  4.0137306575625121e+03  3.9854876355689926e+03  3.9572402584264869e+03  3.9289893609966189e+03  3.9007356084851613e+03  3.8724795338353633e+03  3.8442215660352167e+03  3.8159620517754092e+03  3.7877012721836886e+03  3.7594394558712006e+03  3.7311767891855916e+03  3.7029134243264898e+03  3.6746494858092160e+03  3.6463850756409183e+03  3.6181202774849990e+03  3.5898551600250003e+03  3.5615897796910945e+03  3.5333241828763003e+03  3.5050584077423041e+03  3.4767924856938780e+03  3.4485264425847477e+03  3.4202602997052404e+03  3.3919940745921463e+03  3.3637277816934602e+03  3.3354614329144456e+03  3.3071950380665066e+03  3.2789286052363882e+03  3.2506621410899752e+03  3.2223956511223719e+03  3.1941291398638296e+03  3.1658626110493524e+03  3.1375960677584412e+03  3.1093295125302270e+03  3.0810629474583452e+03  3.0527963742691504e+03  3.0245297943861710e+03  2.9962632089832491e+03  2.9679966190283562e+03  2.9397300253196972e+03  2.9114634285154953e+03  2.8831968291585481e+03  2.8549302276964681e+03  2.8266636244983752e+03  2.7983970198686666e+03  2.7701304140583620e+03  2.7418638072744670e+03  2.7135971996876888e+03  2.6853305914388061e+03  2.6570639826439078e+03  2.6287973733987351e+03  2.6005307637822352e+03  2.5722641538595162e+03  2.5439975436842742e+03  2.5157309333007843e+03  2.4874643227455604e+03  2.4591977120487181e+03  2.4309311012350913e+03  2.4026644903251590e+03  2.3743978793358133e+03  2.3461312682809817e+03  2.3178646571721538e+03  2.2895980460188043e+03  2.2613314348287495e+03  2.2330648236084371e+03  2.2047982123631864e+03  2.1765316010973875e+03  2.1482649898146642e+03  2.1199983785180102e+03  2.0917317672098989e+03  2.0634651558923761e+03  2.0351985445671389e+03  2.0069319332355938e+03  1.9786653218989150e+03  1.9503987105580841e+03  1.9221320992139290e+03  1.8938654878671505e+03  1.8655988765183554e+03  1.8373322651680726e+03  1.8090656538167768e+03  1.7807990424649056e+03  1.7525324311128741e+03  1.7242658197610915e+03  1.6959992084099767e+03  1.6677325970599722e+03  1.6394659857115641e+03  1.6111993743652965e+03  1.5829327630217936e+03  1.5546661516817837e+03  1.5263995403461240e+03  1.4981329290158340e+03  1.4698663176921343e+03  1.4415997063764910e+03  1.4133330950706720e+03  1.3850664837768090e+03  1.3567998724974805e+03  1.3285332612358102e+03  1.3002666499955776e+03  1.2720000387813641e+03  1.2437334275987237e+03  1.2154668164543880e+03  1.1872002053565195e+03  1.1589335943150227e+03  1.1306669833419073e+03  1.1024003724517436e+03  1.0741337616622106e+03  1.0458671509947669e+03  1.0176005404754533e+03  9.8933393013588579e+02  9.6106732001445721e+02  9.3280071015780686e+02  9.0453410062260559e+02  8.7626749147775161e+02  8.4800088280705211e+02  8.1973427471251648e+02  7.9146766731840853e+02  7.6320106077624678e+02  7.3493445527100323e+02  7.0666785102880874e+02  6.7840124832658250e+02  6.5013464750414698e+02  6.2186804897957256e+02  5.9360145326874272e+02  5.6533486101058304e+02  5.3706827299990482e+02  5.0880169023070380e+02  4.8053511395404075e+02  4.5226854575665595e+02  4.2400198766964598e+02  3.9573544232172941e+02  3.6746891316028132e+02  3.3920240477822432e+02  3.1093592341121644e+02  2.8266947771916460e+02  2.5440308005429171e+02  2.2613674865651490e+02  1.9787051121839031e+02  1.6960441452086852e+02  1.4133851893128426e+02  1.1307309740122784e+02  8.4807248966235420e+01  5.6551537994368239e+01  2.8205951008081350e+01  7.9925960190612333e-01  7.6226585532086820e+03  7.4686510597056085e+03  7.3149101657801039e+03  7.1629779389048608e+03  7.0118601031747339e+03  6.8613796131614899e+03  6.7114621381921661e+03  6.5616534246455467e+03  6.4121357010173988e+03  6.2692743703885772e+03  6.1384220345498316e+03  4.4335913512782745e+03  4.4068962310454835e+03  4.3790761043232487e+03  4.3512991132590023e+03  4.3234081136643945e+03  4.2954343142073676e+03  4.2673938091736209e+03  4.2393026674295179e+03  4.2111731175880241e+03  4.1830143489380471e+03  4.1548331807132317e+03  4.1266346903002859e+03  4.0984226871593401e+03  4.0702000574317303e+03  4.0419690100664156e+03  4.0137312524015429e+03  3.9854881161170797e+03  3.9572406484219214e+03  3.9289896787965999e+03  3.9007358684138981e+03  3.8724797471604238e+03  3.8442217416829526e+03  3.8159621968613933e+03  3.7877013924105268e+03  3.7594395558301708e+03  3.7311768725877364e+03  3.7029134941813500e+03  3.6746495445642881e+03  3.6463851252913068e+03  3.6181203196602432e+03  3.5898551960582522e+03  3.5615898106745235e+03  3.5333242097056723e+03  3.5050584311530006e+03  3.4767925062900836e+03  3.4485264608631796e+03  3.4202603160744852e+03  3.3919940893884441e+03  3.3637277951936171e+03  3.3354614453464087e+03  3.3071950496180343e+03  3.2789286160621691e+03  3.2506621513174741e+03  3.2223956608566350e+03  3.1941291491914353e+03  3.1658626200416711e+03  3.1375960764743077e+03  3.1093295210181413e+03  3.0810629557582984e+03  3.0527963824141111e+03  3.0245298024033241e+03  2.9962632168950131e+03  2.9679966268532125e+03  2.9397300330728858e+03  2.9114634362095849e+03  2.8831968368039029e+03  2.8549302353016328e+03  2.8266636320703983e+03  2.7983970274133585e+03  2.7701304215805162e+03  2.7418638147780330e+03  2.7135972071759279e+03  2.6853305989144037e+03  2.6570639901090831e+03  2.6287973808553138e+03  2.6005307712317249e+03  2.5722641613031610e+03  2.5439975511230969e+03  2.5157309407356297e+03  2.4874643301771284e+03  2.4591977194775827e+03  2.4309311086617258e+03  2.4026644977499545e+03  2.3743978867590918e+03  2.3461312757030096e+03  2.3178646645931494e+03  2.2895980534389491e+03  2.2613314422481931e+03  2.2330648310273014e+03  2.2047982197815727e+03  2.1765316085153790e+03  2.1482649972323302e+03  2.1199983859354065e+03  2.0917317746270724e+03  2.0634651633093649e+03  2.0351985519839741e+03  2.0069319406523014e+03  1.9786653293155161e+03  1.9503987179745955e+03  1.9221321066303638e+03  1.8938654952835197e+03  1.8655988839346669e+03  1.8373322725843320e+03  1.8090656612329894e+03  1.7807990498810727e+03  1.7525324385289971e+03  1.7242658271771691e+03  1.6959992158260059e+03  1.6677326044759491e+03  1.6394659931274825e+03  1.6111993817811472e+03  1.5829327704375658e+03  1.5546661590974636e+03  1.5263995477616938e+03  1.4981329364312721e+03  1.4698663251074140e+03  1.4415997137915808e+03  1.4133331024855313e+03  1.3850664911913896e+03  1.3567998799117247e+03  1.3285332686496470e+03  1.3002666574089199e+03  1.2720000461941077e+03  1.2437334350107412e+03  1.2154668238655249e+03  1.1872002127665889e+03  1.1589336017237965e+03  1.1306669907491096e+03  1.1024003798570391e+03  1.0741337690651919e+03  1.0458671583949401e+03  1.0176005478722169e+03  9.8933393752850895e+02  9.6106732740205177e+02  9.3280071753929019e+02  9.0453410799666005e+02  8.7626749884277001e+02  8.4800089016107290e+02  8.1973428205314156e+02  7.9146767464270067e+02  7.6320106808060279e+02  7.3493446255099127e+02  7.0666785827896047e+02  6.7840125554012832e+02  6.5013465467267110e+02  6.2186805609255839e+02  5.9360146031297154e+02  5.6533486796932084e+02  5.3706827985178995e+02  5.0880169694819841e+02  4.8053512050123658e+02  4.5226855208609857e+02  4.2400199371764182e+02  3.9573544800123960e+02  3.6746891834987713e+02  3.3920240930439076e+02  3.1093592701918317e+02  2.8266948002191214e+02  2.5440308044869468e+02  2.2613674610332941e+02  1.9787050432710276e+02  1.6960439735359807e+02  1.4133850851384733e+02  1.1307288684607310e+02  8.4808461689273514e+01  5.6540124276307594e+01  2.8309264635301833e+01  -4.3494475678481942e-02  7.6189086308179576e+03  7.4670674290193028e+03  7.3144400275405551e+03  7.1626727303227981e+03  7.0116257026496633e+03  6.8611686880870539e+03  6.7112550784197520e+03  6.5618235164871930e+03  6.4141277181343121e+03  6.2642516923234261e+03  4.4692086924233809e+03  4.4351126666749014e+03  4.4066691041713475e+03  4.3791350289798938e+03  4.3513346531268016e+03  4.3234405396035918e+03  4.2954592232280675e+03  4.2674127687345253e+03  4.2393170191706986e+03  4.2111840366728702e+03  4.1830227220052648e+03  4.1548396584116881e+03  4.1266397451933854e+03  4.0984266633280413e+03  4.0702032073449382e+03  4.0419715208736729e+03  4.0137332643801406e+03  3.9854897355858438e+03  3.9572419568225200e+03  3.9289907391327752e+03  3.9007367298644635e+03  3.8724804484215961e+03  3.8442223134186111e+03  3.8159626635206077e+03  3.7877017735912673e+03  3.7594398673137880e+03  3.7311771271318012e+03  3.7029137021331035e+03  3.6746497143394149e+03  3.6463852637505242e+03  3.6181204324075725e+03  3.5898552876786976e+03  3.5615898849244759e+03  3.5333242696661491e+03  3.5050584793534454e+03  3.4767925448087312e+03  3.4485264914086488e+03  3.4202603400522598e+03  3.3919941079551695e+03  3.3637278093015007e+03  3.3354614557795894e+03  3.3071950570224135e+03  3.2789286209698853e+03  3.2506621541670147e+03  3.2223956620093686e+03  3.1941291489452115e+03  3.1658626186420061e+03  3.1375960741235972e+03  3.1093295178832427e+03  3.0810629519767772e+03  3.0527963780993928e+03  3.0245297976489301e+03  2.9962632117780558e+03  2.9679966214372776e+03  2.9397300274104050e+03  2.9114634303437929e+03  2.8831968307704515e+03  2.8549302291299214e+03  2.8266636257846717e+03  2.7983970210336097e+03  2.7701304151232293e+03  2.7418638082568059e+03  2.7135972006019715e+03  2.6853305922969630e+03  2.6570639834557828e+03  2.6287973741724404e+03  2.6005307645244648e+03  2.5722641545757906e+03  2.5439975443791404e+03  2.5157309339779972e+03  2.4874643234082155e+03  2.4591977126993679e+03  2.4309311018758399e+03  2.4026644909577426e+03  2.3743978799616621e+03  2.3461312689012766e+03  2.3178646577878671e+03  2.2895980466307392e+03  2.2613314354375671e+03  2.2330648242146835e+03  2.2047982129673110e+03  2.1765316016997599e+03  2.1482649904155901e+03  2.1199983791177401e+03  2.0917317678086392e+03  2.0634651564902965e+03  2.0351985451643784e+03  2.0069319338322666e+03  1.9786653224951135e+03  1.9503987111538834e+03  1.9221320998093879e+03  1.8938654884623174e+03  1.8655988771132659e+03  1.8373322657627539e+03  1.8090656544112476e+03  1.7807990430591756e+03  1.7525324317069469e+03  1.7242658203549622e+03  1.6959992090036335e+03  1.6677325976533950e+03  1.6394659863047250e+03  1.6111993749581566e+03  1.5829327636143030e+03  1.5546661522738800e+03  1.5263995409377292e+03  1.4981329296068516e+03  1.4698663182824462e+03  1.4415997069659529e+03  1.4133330956591064e+03  1.3850664843640009e+03  1.3567998730831694e+03  1.3285332618196792e+03  1.3002666505772406e+03  1.2720000393603543e+03  1.2437334281744722e+03  1.2154668170262059e+03  1.1872002059235713e+03  1.1589335948762916e+03  1.1306669838961614e+03  1.1024003729974863e+03  1.0741337621976243e+03  1.0458671515176436e+03  1.0176005409831108e+03  9.8933393062506173e+02  9.6106732048118499e+02  9.3280071059725674e+02  9.0453410102889541e+02  8.7626749184370885e+02  8.4800088312392177e+02  8.1973427496959619e+02  7.9146766750259314e+02  7.6320106087145734e+02  7.3493445525746483e+02  7.0666785088212725e+02  6.7840124801656168e+02  6.5013464699325164e+02  6.2186804822090994e+02  5.9360145220338325e+02  5.6533485956394645e+02  5.3706827107681897e+02  5.0880168770852981e+02  4.8053511067293613e+02  4.5226854150550378e+02  4.2400198216527940e+02  3.9573543517751614e+02  3.6746890383736104e+02  3.3920239250757652e+02  3.1093590706503670e+02  2.8266945559020161e+02  2.5440304946476189e+02  2.2613670520046372e+02  1.9787044748193472e+02  1.6960431552346665e+02  1.4133836852468738e+02  1.1307274709566430e+02  8.4807457144471925e+01  5.6544055777371028e+01  2.8285121436974574e+01  5.6319887885584634e-03  7.6166004301030471e+03  7.4654985506545872e+03  7.3136769429306314e+03  7.1621873962311465e+03  7.0112338410370985e+03  6.8608081754599871e+03  6.7109368197291960e+03  6.5618373438281633e+03  6.4139325883607526e+03  6.2704240880095567e+03  6.1378033409991094e+03  4.4328594840178484e+03  4.4068652511281607e+03  4.3791865964707767e+03  4.3514041209298111e+03  4.3234953973254096e+03  4.2955016104508086e+03  4.2674448343712420e+03  4.2393412766228412e+03  4.2112024934843212e+03  4.1830368836696589e+03  4.1548506222848946e+03  4.1266483069645110e+03  4.0984334022222711e+03  4.0702085486283463e+03  4.0419757800894149e+03  4.0137366783004804e+03  3.9854924838622483e+03  3.9572441772142988e+03  3.9289925383136142e+03  3.9007381911723464e+03  3.8724816374806514e+03  3.8442232822655728e+03  3.8159634536693866e+03  3.7877024183350391e+03  3.7594403934731977e+03  3.7311775563961846e+03  3.7029140520991832e+03  3.6746499993226403e+03  3.6463854954237113e+03  3.6181206203070524e+03  3.5898554396078757e+03  3.5615900072772806e+03  3.5333243676874436e+03  3.5050585573495005e+03  3.4767926063178957e+03  3.4485265393401305e+03  3.4202603767992505e+03  3.3919941354872199e+03  3.3637278292400965e+03  3.3354614694600591e+03  3.3071950655446894e+03  3.2789286252401903e+03  3.2506621549320980e+03  3.2223956598846526e+03  3.1941291444379444e+03  3.1658626121703192e+03  3.1375960660321821e+03  3.1093295084562710e+03  3.0810629414485393e+03  3.0527963666630608e+03  3.0245297854637793e+03  2.9962631989754195e+03  2.9679966081254456e+03  2.9397300136786748e+03  2.9114634162657994e+03  2.8831968164069144e+03  2.8549302145309116e+03  2.8266636109914803e+03  2.7983970060802844e+03  2.7701304000378495e+03  2.7418637930625273e+03  2.7135971853178867e+03  2.6853305769388198e+03  2.6570639680365657e+03  2.6287973587028587e+03  2.6005307490133496e+03  2.5722641390304225e+03  2.5439975288055257e+03  2.5157309183810885e+03  2.4874643077920978e+03  2.4591976970674073e+03  2.4309310862308143e+03  2.4026644753019423e+03  2.3743978642969746e+03  2.3461312532292609e+03  2.3178646421098065e+03  2.2895980309476936e+03  2.2613314197504078e+03  2.2330648085241305e+03  2.2047981972739572e+03  2.1765315860040946e+03  2.1482649747180158e+03  2.1199983634185883e+03  2.0917317521081814e+03  2.0634651407887573e+03  2.0351985294619410e+03  2.0069319181290809e+03  1.9786653067913012e+03  1.9503986954495435e+03  1.9221320841045997e+03  1.8938654727571434e+03  1.8655988614077539e+03  1.8373322500569393e+03  1.8090656387051542e+03  1.7807990273528176e+03  1.7525324160003283e+03  1.7242658046480767e+03  1.6959991932964649e+03  1.6677325819459172e+03  1.6394659705969002e+03  1.6111993592499339e+03  1.5829327479056171e+03  1.5546661365646480e+03  1.5263995252278478e+03  1.4981329138961923e+03  1.4698663025708527e+03  1.4415996912532344e+03  1.4133330799450291e+03  1.3850664686482803e+03  1.3567998573654609e+03  1.3285332460995617e+03  1.3002666348542052e+03  1.2720000236337812e+03  1.2437334124436113e+03  1.2154668012901448e+03  1.1872001901812034e+03  1.1589335791262740e+03  1.1306669681368624e+03  1.1024003572269269e+03  1.0741337464134006e+03  1.0458671357168353e+03  1.0176005251621684e+03  9.8933391477967120e+02  9.6106730460609936e+02  9.3280069468608929e+02  9.0453408507386780e+02  8.7626747583533745e+02  8.4800086705063143e+02  8.1973425881724029e+02  7.9146765125385286e+02  7.6320104450508950e+02  7.3493443874734828e+02  7.0666783419605258e+02  6.7840123111467551e+02  6.5013462982603914e+02  6.2186803072655141e+02  5.9360143430424660e+02  5.6533484116187060e+02  5.3706825204667336e+02  5.0880166788927858e+02  4.8053508985501355e+02  4.5226851941263038e+02  4.2400195842770836e+02  3.9573540929174942e+02  3.6746887510392878e+02  3.3920235993218250e+02  3.1093586919653131e+02  2.8266941024514290e+02  2.5440299324280136e+02  2.2613663257111847e+02  1.9787034914073757e+02  1.6960417398952427e+02  1.4133815603412512e+02  1.1307236827153555e+02  8.4806939091588504e+01  5.6542509718263396e+01  2.8277085991468276e+01  -4.2735393694409826e-04  7.6148969512447438e+03  7.4641015276369817e+03  7.3127789190475478e+03  7.1615550282525401e+03  7.0107013347386528e+03  6.8603004713017772e+03  6.7104474264747414e+03  6.5614254729673776e+03  6.4135293144911320e+03  6.2698715113810376e+03  6.1374265780571959e+03  4.4328392738395441e+03  4.4069557734878408e+03  4.3793005639671510e+03  4.3515030840588797e+03  4.3235731933339612e+03  4.2955606965389161e+03  4.2674893563649675e+03  4.2393749237584807e+03  4.2112281126485723e+03  4.1830565675959951e+03  4.1548658859184279e+03  4.1266602462420533e+03  4.0984428149631822e+03  4.0702160212415515e+03  4.0419817483764782e+03  4.0137414698430512e+03  3.9854963476456314e+03  3.9572473044770554e+03  3.9289950773629048e+03  3.9007402580272865e+03  3.8724833236078207e+03  3.8442246602680011e+03  3.8159645815196664e+03  3.7877033425610180e+03  3.7594411515813717e+03  3.7311781787338273e+03  3.7029145632985469e+03  3.6746504194304862e+03  3.6463858407914122e+03  3.6181209042967598e+03  3.5898556731560302e+03  3.5615901993466068e+03  3.5333245256310879e+03  3.5050586872054969e+03  3.4767927130480612e+03  3.4485266270243997e+03  3.4202604487941198e+03  3.3919941945551927e+03  3.3637278776555877e+03  3.3354615090961679e+03  3.3071950979443809e+03  3.2789286516747275e+03  3.2506621764490551e+03  3.2223956773473901e+03  3.1941291585580816e+03  3.1658626235344532e+03  3.1375960751238913e+03  3.1093295156742324e+03  3.0810629471214515e+03  3.0527963710619351e+03  3.0245297888120749e+03  2.9962632014573892e+03  2.9679966098930217e+03  2.9397300148571389e+03  2.9114634169584588e+03  2.8831968166989586e+03  2.8549302144925905e+03  2.8266636106807218e+03  2.7983970055448603e+03  2.7701303993171550e+03  2.7418637921890454e+03  2.7135971843184088e+03  2.6853305758354381e+03  2.6570639668474987e+03  2.6287973574431289e+03  2.6005307476953467e+03  2.5722641376643646e+03  2.5439975273998384e+03  2.5157309169427190e+03  2.4874643063267768e+03  2.4591976955798600e+03  2.4309310847249367e+03  2.4026644737809479e+03  2.3743978627635133e+03  2.3461312516855169e+03  2.3178646405575819e+03  2.2895980293884727e+03  2.2613314181854180e+03  2.2330648069543799e+03  2.2047981957002771e+03  2.1765315844271718e+03  2.1482649731384131e+03  2.1199983618367710e+03  2.0917317505245333e+03  2.0634651392035917e+03  2.0351985278755142e+03  2.0069319165416046e+03  1.9786653052029465e+03  1.9503986938604485e+03  1.9221320825148764e+03  1.8938654711668778e+03  1.8655988598170140e+03  1.8373322484657747e+03  1.8090656371135992e+03  1.7807990257608910e+03  1.7525324144080353e+03  1.7242658030554094e+03  1.6959991917034004e+03  1.6677325803524195e+03  1.6394659690029152e+03  1.6111993576553909e+03  1.5829327463104235e+03  1.5546661349686874e+03  1.5263995236309745e+03  1.4981329122982286e+03  1.4698663009715783e+03  1.4415996896523802e+03  1.4133330783422675e+03  1.3850664670432129e+03  1.3567998557576020e+03  1.3285332444883229e+03  1.3002666332388703e+03  1.2720000220134818e+03  1.2437334108172925e+03  1.2154667996565274e+03  1.1872001885387340e+03  1.1589335774730669e+03  1.1306669664706299e+03  1.1024003555448899e+03  1.0741337447121862e+03  1.0458671339923446e+03  1.0176005234094221e+03  9.8933391299261632e+02  9.6106730277737392e+02  9.3280069280673501e+02  9.0453408313297348e+02  8.7626747381960388e+02  8.4800086494382901e+02  8.1973425659953818e+02  7.9146764890098052e+02  7.6320104198728518e+02  7.3493443602803336e+02  7.0666783123014420e+02  6.7840122784642415e+02  6.5013462618623021e+02  6.2186802662884406e+02  5.9360142964032764e+02  5.6533483579495419e+02  5.3706824580265231e+02  5.0880166054448785e+02  4.8053508111900840e+02  4.5226850890349118e+02  4.2400194