<?xml version="1.0"?>
<VTKFile type="UnstructuredGrid"  version="0.1"  >
<UnstructuredGrid>
<Piece  NumberOfPoints="21400" NumberOfCells="42336">
<Points>
<DataArray  type="Float64"  NumberOfComponents="3"  format="ascii">0 0 0  0.004583333333333333 0 0  0.009166666666666667 0 0  0.01375 0 0  0.01833333333333333 0 0  0.02291666666666667 0 0  0.0275 0 0  0.03208333333333334 0 0  0.03666666666666667 0 0  0.04125 0 0  0.04583333333333334 0 0  0.05041666666666667 0 0  0.055 0 0  0.05958333333333334 0 0  0.06416666666666668 0 0  0.06875000000000001 0 0  0.07333333333333333 0 0  0.07791666666666666 0 0  0.08249999999999999 0 0  0.08708333333333333 0 0  0.09166666666666667 0 0  0.09625000000000002 0 0  0.1008333333333333 0 0  0.1054166666666667 0 0  0.11 0 0  0.1145833333333333 0 0  0.1191666666666667 0 0  0.12375 0 0  0.1283333333333334 0 0  0.1329166666666667 0 0  0.1375 0 0  0.1420833333333333 0 0  0.1466666666666667 0 0  0.15125 0 0  0.1558333333333333 0 0  0.1604166666666667 0 0  0.165 0 0  0.1695833333333333 0 0  0.1741666666666667 0 0  0.17875 0 0  0.1833333333333333 0 0  0.1879166666666667 0 0  0.1925 0 0  0.1970833333333333 0 0  0.2016666666666667 0 0  0.20625 0 0  0.2108333333333333 0 0  0.2154166666666666 0 0  0.22 0 0  0.2245833333333334 0 0  0.2291666666666667 0 0  0.23375 0 0  0.2383333333333333 0 0  0.2429166666666667 0 0  0.2475 0 0  0.2520833333333333 0 0  0.2566666666666667 0 0  0.26125 0 0  0.2658333333333334 0 0  0.2704166666666666 0 0  0.275 0 0  0.2795833333333334 0 0  0.2841666666666667 0 0  0.28875 0 0  0.2933333333333333 0 0  0.2979166666666667 0 0  0.3025 0 0  0.3070833333333334 0 0  0.3116666666666666 0 0  0.31625 0 0  0.3208333333333333 0 0  0.3254166666666667 0 0  0.33 0 0  0.3345833333333333 0 0  0.3391666666666667 0 0  0.34375 0 0  0.3483333333333333 0 0  0.3529166666666667 0 0  0.3575 0 0  0.3620833333333333 0 0  0.3666666666666667 0 0  0.37125 0 0  0.3758333333333334 0 0  0.3804166666666667 0 0  0.3850000000000001 0 0  0.3895833333333333 0 0  0.3941666666666667 0 0  0.39875 0 0  0.4033333333333334 0 0  0.4079166666666666 0 0  0.4125 0 0  0.4170833333333334 0 0  0.4216666666666667 0 0  0.42625 0 0  0.4308333333333333 0 0  0.4354166666666667 0 0  0.44 0 0  0.4445833333333333 0 0  0.4491666666666667 0 0  0.45375 0 0  0.4583333333333333 0 0  0.4629166666666666 0 0  0.4675 0 0  0.4720833333333334 0 0  0.4766666666666667 0 0  0.4812500000000001 0 0  0.4858333333333333 0 0  0.4904166666666667 0 0  0.495 0 0  0.4995833333333334 0 0  0.5041666666666667 0 0  0.50875 0 0  0.5133333333333334 0 0  0.5179166666666667 0 0  0.5225 0 0  0.5270833333333333 0 0  0.5316666666666667 0 0  0.53625 0 0  0.5408333333333333 0 0  0.5454166666666667 0 0  0.55 0 0  0.5545833333333333 0 0  0.5591666666666667 0 0  0.5637500000000001 0 0  0.5683333333333334 0 0  0.5729166666666666 0 0  0.5775 0 0  0.5820833333333334 0 0  0.5866666666666667 0 0  0.5912499999999999 0 0  0.5958333333333334 0 0  0.6004166666666667 0 0  0.605 0 0  0.6095833333333334 0 0  0.6141666666666667 0 0  0.61875 0 0  0.6233333333333333 0 0  0.6279166666666667 0 0  0.6325000000000001 0 0  0.6370833333333333 0 0  0.6416666666666666 0 0  0.64625 0 0  0.6508333333333334 0 0  0.6554166666666666 0 0  0.6599999999999999 0 0  0.6645833333333334 0 0  0.6691666666666667 0 0  0.67375 0 0  0.6783333333333333 0 0  0.6829166666666667 0 0  0.6875 0 0  0.6920833333333333 0 0  0.6966666666666667 0 0  0.70125 0 0  0.7058333333333333 0 0  0.7104166666666667 0 0  0.7150000000000001 0 0  0.7195833333333334 0 0  0.7241666666666666 0 0  0.72875 0 0  0.7333333333333334 0 0  0.7379166666666667 0 0  0.7425 0 0  0.7470833333333333 0 0  0.7516666666666667 0 0  0.75625 0 0  0.7608333333333334 0 0  0.7654166666666666 0 0  0.7700000000000001 0 0  0 0.002380952380952381 0  0.004583333333333333 0.002380952380952381 0  0.009166666666666667 0.002380952380952381 0  0.01375 0.002380952380952381 0  0.01833333333333333 0.002380952380952381 0  0.02291666666666667 0.002380952380952381 0  0.0275 0.002380952380952381 0  0.03208333333333334 0.002380952380952381 0  0.03666666666666667 0.002380952380952381 0  0.04125 0.002380952380952381 0  0.04583333333333334 0.002380952380952381 0  0.05041666666666667 0.002380952380952381 0  0.055 0.002380952380952381 0  0.05958333333333334 0.002380952380952381 0  0.06416666666666668 0.002380952380952381 0  0.06875000000000001 0.002380952380952381 0  0.07333333333333333 0.002380952380952381 0  0.07791666666666666 0.002380952380952381 0  0.08249999999999999 0.002380952380952381 0  0.08708333333333333 0.002380952380952381 0  0.09166666666666667 0.002380952380952381 0  0.09625000000000002 0.002380952380952381 0  0.1008333333333333 0.002380952380952381 0  0.1054166666666667 0.002380952380952381 0  0.11 0.002380952380952381 0  0.1145833333333333 0.002380952380952381 0  0.1191666666666667 0.002380952380952381 0  0.12375 0.002380952380952381 0  0.1283333333333334 0.002380952380952381 0  0.1329166666666667 0.002380952380952381 0  0.1375 0.002380952380952381 0  0.1420833333333333 0.002380952380952381 0  0.1466666666666667 0.002380952380952381 0  0.15125 0.002380952380952381 0  0.1558333333333333 0.002380952380952381 0  0.1604166666666667 0.002380952380952381 0  0.165 0.002380952380952381 0  0.1695833333333333 0.002380952380952381 0  0.1741666666666667 0.002380952380952381 0  0.17875 0.002380952380952381 0  0.1833333333333333 0.002380952380952381 0  0.1879166666666667 0.002380952380952381 0  0.1925 0.002380952380952381 0  0.1970833333333333 0.002380952380952381 0  0.2016666666666667 0.002380952380952381 0  0.20625 0.002380952380952381 0  0.2108333333333333 0.002380952380952381 0  0.2154166666666666 0.002380952380952381 0  0.22 0.002380952380952381 0  0.2245833333333334 0.002380952380952381 0  0.2291666666666667 0.002380952380952381 0  0.23375 0.002380952380952381 0  0.2383333333333333 0.002380952380952381 0  0.2429166666666667 0.002380952380952381 0  0.2475 0.002380952380952381 0  0.2520833333333333 0.002380952380952381 0  0.2566666666666667 0.002380952380952381 0  0.26125 0.002380952380952381 0  0.2658333333333334 0.002380952380952381 0  0.2704166666666666 0.002380952380952381 0  0.275 0.002380952380952381 0  0.2795833333333334 0.002380952380952381 0  0.2841666666666667 0.002380952380952381 0  0.28875 0.002380952380952381 0  0.2933333333333333 0.002380952380952381 0  0.2979166666666667 0.002380952380952381 0  0.3025 0.002380952380952381 0  0.3070833333333334 0.002380952380952381 0  0.3116666666666666 0.002380952380952381 0  0.31625 0.002380952380952381 0  0.3208333333333333 0.002380952380952381 0  0.3254166666666667 0.002380952380952381 0  0.33 0.002380952380952381 0  0.3345833333333333 0.002380952380952381 0  0.3391666666666667 0.002380952380952381 0  0.34375 0.002380952380952381 0  0.3483333333333333 0.002380952380952381 0  0.3529166666666667 0.002380952380952381 0  0.3575 0.002380952380952381 0  0.3620833333333333 0.002380952380952381 0  0.3666666666666667 0.002380952380952381 0  0.37125 0.002380952380952381 0  0.3758333333333334 0.002380952380952381 0  0.3804166666666667 0.002380952380952381 0  0.3850000000000001 0.002380952380952381 0  0.3895833333333333 0.002380952380952381 0  0.3941666666666667 0.002380952380952381 0  0.39875 0.002380952380952381 0  0.4033333333333334 0.002380952380952381 0  0.4079166666666666 0.002380952380952381 0  0.4125 0.002380952380952381 0  0.4170833333333334 0.002380952380952381 0  0.4216666666666667 0.002380952380952381 0  0.42625 0.002380952380952381 0  0.4308333333333333 0.002380952380952381 0  0.4354166666666667 0.002380952380952381 0  0.44 0.002380952380952381 0  0.4445833333333333 0.002380952380952381 0  0.4491666666666667 0.002380952380952381 0  0.45375 0.002380952380952381 0  0.4583333333333333 0.002380952380952381 0  0.4629166666666666 0.002380952380952381 0  0.4675 0.002380952380952381 0  0.4720833333333334 0.002380952380952381 0  0.4766666666666667 0.002380952380952381 0  0.4812500000000001 0.002380952380952381 0  0.4858333333333333 0.002380952380952381 0  0.4904166666666667 0.002380952380952381 0  0.495 0.002380952380952381 0  0.4995833333333334 0.002380952380952381 0  0.5041666666666667 0.002380952380952381 0  0.50875 0.002380952380952381 0  0.5133333333333334 0.002380952380952381 0  0.5179166666666667 0.002380952380952381 0  0.5225 0.002380952380952381 0  0.5270833333333333 0.002380952380952381 0  0.5316666666666667 0.002380952380952381 0  0.53625 0.002380952380952381 0  0.5408333333333333 0.002380952380952381 0  0.5454166666666667 0.002380952380952381 0  0.55 0.002380952380952381 0  0.5545833333333333 0.002380952380952381 0  0.5591666666666667 0.002380952380952381 0  0.5637500000000001 0.002380952380952381 0  0.5683333333333334 0.002380952380952381 0  0.5729166666666666 0.002380952380952381 0  0.5775 0.002380952380952381 0  0.5820833333333334 0.002380952380952381 0  0.5866666666666667 0.002380952380952381 0  0.5912499999999999 0.002380952380952381 0  0.5958333333333334 0.002380952380952381 0  0.6004166666666667 0.002380952380952381 0  0.605 0.002380952380952381 0  0.6095833333333334 0.002380952380952381 0  0.6141666666666667 0.002380952380952381 0  0.61875 0.002380952380952381 0  0.6233333333333333 0.002380952380952381 0  0.6279166666666667 0.002380952380952381 0  0.6325000000000001 0.002380952380952381 0  0.6370833333333333 0.002380952380952381 0  0.6416666666666666 0.002380952380952381 0  0.64625 0.002380952380952381 0  0.6508333333333334 0.002380952380952381 0  0.6554166666666666 0.002380952380952381 0  0.6599999999999999 0.002380952380952381 0  0.6645833333333334 0.002380952380952381 0  0.6691666666666667 0.002380952380952381 0  0.67375 0.002380952380952381 0  0.6783333333333333 0.002380952380952381 0  0.6829166666666667 0.002380952380952381 0  0.6875 0.002380952380952381 0  0.6920833333333333 0.002380952380952381 0  0.6966666666666667 0.002380952380952381 0  0.70125 0.002380952380952381 0  0.7058333333333333 0.002380952380952381 0  0.7104166666666667 0.002380952380952381 0  0.7150000000000001 0.002380952380952381 
[...]
<PointData  Scalars="pressure"> 
<DataArray  type="Float64"  Name="pressure"  format="ascii">1.4016248132140427e+04  1.3853817291935515e+04  1.3699997574260165e+04  1.3547379460240225e+04  1.3395411608891091e+04  1.3243764515828794e+04  1.3092318502891607e+04  1.2941005924970197e+04  1.2789787185899524e+04  1.2638636882832427e+04  1.2487537864514114e+04  1.2336478061342119e+04  1.2185448710656710e+04  1.2034443293099919e+04  1.1883456863717436e+04  1.1732485613592078e+04  1.1581526572542594e+04  1.1430577401545397e+04  1.1279636244172083e+04  1.1128701617999921e+04  1.0977772333808602e+04  1.0826847434544026e+04  1.0675926148640925e+04  1.0525007853975640e+04  1.0374092049828403e+04  1.0223178334981982e+04  1.0072266390599081e+04  9.9213559668842572e+03  9.7704468727979929e+03  9.6195389682837085e+03  9.4686321586147369e+03  9.3177263905826167e+03  9.1668216503409731e+03  9.0159179627976009e+03  8.8650153925180020e+03  8.7141140461699943e+03  8.5632140766062566e+03  8.4123156887531532e+03  8.2614191475542866e+03  8.1105247883113743e+03  7.9596330298787188e+03  7.8087443913093866e+03  7.6578595127316721e+03  7.5069791814685123e+03  7.3561043647208771e+03  7.2052362505482470e+03  7.0543762994370672e+03  6.9035263095122173e+03  6.7526884995047067e+03  6.6018656150689485e+03  6.4510610661302817e+03  6.3002791059054807e+03  6.1495250664538526e+03  5.9988056715958228e+03  5.8481294564098689e+03  5.6975073338010698e+03  5.5469533630867763e+03  5.3964857876401293e+03  5.2461284195406934e+03  5.0959123144829564e+03  4.9458782334663174e+03  4.7960731654319989e+03  4.6465721185957809e+03  4.4973602779491666e+03  4.3486259800363623e+03  4.1935070933863144e+03  2.9517954429087317e+03  2.8610500430894285e+03  2.8234413327187012e+03  2.7952925148957761e+03  2.7677078114651654e+03  2.7399341556845206e+03  2.7120763443139867e+03  2.6841266429809857e+03  2.6561063845472149e+03  2.6280316852175251e+03  2.5999155327085628e+03  2.5717676848356441e+03  2.5435954340847134e+03  2.5154042371643345e+03  2.4871982080072853e+03  2.4589804775194475e+03  2.4307534521047519e+03  2.4025189989518112e+03  2.3742785795631435e+03  2.3460333468725403e+03  2.3177842166579176e+03  2.2895319206644713e+03  2.2612770465804001e+03  2.2330200684535616e+03  2.2047613700754773e+03  2.1765012631300333e+03  2.1482400014000682e+03  2.1199777919731823e+03  2.0917148041401001e+03  2.0634511765021271e+03  2.0351870226768697e+03  2.0069224358985466e+03  1.9786574927407426e+03  1.9503922561384429e+03  1.9221267778477154e+03  1.8938611004521208e+03  1.8655952590024219e+03  1.8373292823586842e+03  1.8090631942902089e+03  1.7807970143779551e+03  1.7525307587555908e+03  1.7242644407184575e+03  1.6959980712243271e+03  1.6677316593053599e+03  1.6394652124071756e+03  1.6111987366680160e+03  1.5829322371486646e+03  1.5546657180218381e+03  1.5263991827282471e+03  1.4981326341052011e+03  1.4698660744926144e+03  1.4415995058203914e+03  1.4133329296804743e+03  1.3850663473862660e+03  1.3567997600216415e+03  1.3285331684813877e+03  1.3002665735045757e+03  1.2719999757021394e+03  1.2437333755796556e+03  1.2154667735561968e+03  1.1872001699799650e+03  1.1589335651412755e+03  1.1306669592833821e+03  1.1024003526115528e+03  1.0741337453007247e+03  1.0458671375020419e+03  1.0176005293484911e+03  9.8933392095988324e+02  9.6106731244734146e+02  9.3280070391748279e+02  9.0453409547644048e+02  8.7626748723390119e+02  8.4800087930731036e+02  8.1973427182641694e+02  7.9146766493836014e+02  7.6320105881352401e+02  7.3493445365243883e+02  7.0666784969406376e+02  6.7840124722589951e+02  6.5013464659649367e+02  6.2186804823111265e+02  5.9360145265157450e+02  5.6533486050169915e+02  5.3706827258033491e+02  5.0880168988480619e+02  4.8053511366892155e+02  4.5226854552168595e+02  4.2400198747606578e+02  3.9573544216232256e+02  3.6746891302910518e+02  3.3920240467038889e+02  3.1093592332270168e+02  2.8266947764667106e+02  2.5440307999511677e+02  2.2613674860845254e+02  1.9787051117964901e+02  1.6960441449000405e+02  1.4133851890714595e+02  1.1307309738291583e+02  8.4807248953067102e+01  5.6551537985851326e+01  2.8205951003911384e+01  7.9925960178807698e-01  1.4007965568278629e+04  1.3853866662063381e+04  1.3699813841535688e+04  1.3547327600090066e+04  1.3395377593958678e+04  1.3243743809325828e+04  1.3092304457399889e+04  1.2940995996630440e+04  1.2789779911534884e+04  1.2638631416935597e+04  1.2487533677879621e+04  1.2336474807126253e+04  1.2185446152138218e+04  1.2034441263408246e+04  1.1883455242032667e+04  1.1732484310475566e+04  1.1581525520549276e+04  1.1430576549018908e+04  1.1279635551025116e+04  1.1128701052771337e+04  1.0977771871563958e+04  1.0826847055346936e+04  1.0675925836419017e+04  1.0525007595664616e+04  1.0374091834715264e+04  1.0223178154192861e+04  1.0072266236693111e+04  9.9213558335256585e+03  9.7704467544858271e+03  9.6195388601236191e+03  9.4686320561204320e+03  9.3177262894972773e+03  9.1668215464699479e+03  9.0159178518449844e+03  8.8650152699198097e+03  8.7141139069167493e+03  8.5632139150472358e+03  8.4123154983736185e+03  8.2614189207155650e+03  8.1105245159414762e+03  7.9596327010981831e+03  7.8087439929728880e+03  7.6578590288601254e+03  7.5069785925384922e+03  7.3561036467669674e+03  7.2052353740183444e+03  7.0543752277185322e+03  6.9035249970152136e+03  6.7526868891438280e+03  6.6018636349189601e+03  6.4510586249376584e+03  6.3002760870017346e+03  6.1495213194237713e+03  5.9988010007878747e+03  5.8481236050221769e+03  5.6974999619716482e+03  5.5469440178859268e+03  5.3964738652467386e+03  5.2461131123755476e+03  5.0958926652453056e+03  4.9458524184264552e+03  4.7960436186752459e+03  4.6465221380929706e+03  4.4973404682786431e+03  4.3481307735146038e+03  4.1991046986996234e+03  4.0566557265521747e+03  3.9261433488077255e+03  2.8221153195776701e+03  2.7954701846298994e+03  2.7676923080566530e+03  2.7399491915759968e+03  2.7120857420228772e+03  2.6841344059575295e+03  2.6561122682099071e+03  2.6280361721594627e+03  2.5999189642635179e+03  2.5717703303835337e+03  2.5435974913198320e+03  2.5154058505866628e+03  2.4871994833523513e+03  2.4589814927667762e+03  2.4307542653478445e+03  2.4025196539465433e+03  2.3742791096274027e+03  2.3460337776399742e+03  2.3177845680390010e+03  2.2895322082578055e+03  2.2612772827000977e+03  2.2330202628860616e+03  2.2047615306436328e+03  2.1765013961183677e+03  2.1482401118788284e+03  2.1199778840477793e+03  2.0917148811448787e+03  2.0634512411521455e+03  2.0351870771876902e+03  2.0069224820813795e+03  1.9786575320784666e+03  1.9503922898466399e+03  1.9221268069238861e+03  1.8938611257155108e+03  1.8655952811263562e+03  1.8373293018968843e+03  1.8090632116982592e+03  1.7807970300308486e+03  1.7525307729620836e+03  1.7242644537328415e+03  1.6959980832560823e+03  1.6677316705270828e+03  1.6394652229610970e+03  1.6111987466713545e+03  1.5829322466980329e+03  1.5546657271968743e+03  1.5263991915945971e+03  1.4981326427169799e+03  1.4698660828944289e+03  1.4415995140490102e+03  1.4133329377662019e+03  1.3850663553540739e+03  1.3567997678921035e+03  1.3285331762714436e+03  1.3002665812281689e+03  1.2719999833707325e+03  1.2437333832026609e+03  1.2154667811413269e+03  1.1872001775335191e+03  1.1589335726683753e+03  1.1306669667881631e+03  1.1024003600973178e+03  1.0741337527700666e+03  1.0458671449569397e+03  1.0176005367903845e+03  9.8933392838972316e+02  9.6106731986562704e+02  9.3280071132427588e+02  9.0453410287136694e+02  8.7626749461613213e+02  8.4800088667552563e+02  8.1973427917874756e+02  7.9146767227230555e+02  7.6320106612584095e+02  7.3493446093899138e+02  7.0666785694962903e+02  6.7840125444390947e+02  6.5013465376869908e+02  6.2186805534713403e+02  5.9360145969830648e+02  5.6533486746250071e+02  5.3706827943392148e+02  5.0880169660370399e+02  4.8053512021727374e+02  4.5226855185208154e+02  4.2400199352484674e+02  3.9573544784247923e+02  3.6746891821923288e+02  3.3920240919699268e+02  3.1093592693102755e+02  2.8266947994971258e+02  2.5440308038975974e+02  2.2613674605546203e+02  1.9787050428851865e+02  1.6960439732285877e+02  1.4133850848980694e+02  1.1307288682783539e+02  8.4808461676158402e+01  5.6540124267826826e+01  2.8309264631133740e+01  -4.3494475670596874e-02  1.4004296280111341e+04  1.3852366082390910e+04  1.3699434598909629e+04  1.3547126640419963e+04  1.3395265704410785e+04  1.3243672628657205e+04  1.3092256288261737e+04  1.2940961793345314e+04  1.2789754797732985e+04  1.2638612510171855e+04  1.2487519172246235e+04  1.2336463514395624e+04  1.2185437259495589e+04  1.2034434196817054e+04  1.1883449585282684e+04  1.1732479755117864e+04  1.1581521833779363e+04  1.1430573552405502e+04  1.1279633106020663e+04  1.1128699050592391e+04  1.0977770225963444e+04  1.0826845697346283e+04  1.0675924710396957e+04  1.0525006656402984e+04  1.0374091045130857e+04  1.0223177483567859e+04  1.0072265659271390e+04  9.9213553273792022e+03  9.7704463005802172e+03  9.6195384415288172e+03  9.4686316573246222e+03  9.3177258957894283e+03  9.1668211433620090e+03  9.0159174245075119e+03  8.8650148026063252e+03  8.7141133823517957e+03  8.5632133137515975e+03  8.4123147978967663e+03  8.2614180947404620e+03  8.1105235332194288e+03  7.9596315241611428e+03  7.8087425765563285e+03  7.6578573179499108e+03  7.5069765199278008e+03  7.3561011299712627e+03  7.2052323113429702e+03  7.0543714931978957e+03  6.9035204338348713e+03  6.7526813010023961e+03  6.6018567745644796e+03  6.4510501787922130e+03  6.3002656543269068e+03  6.1495083838242153e+03  5.9987848909449813e+03  5.8481034403900931e+03  5.6974745778896240e+03  5.5469118640244087e+03  5.3964328735787267e+03  5.2460605522740507e+03  5.0958249905247276e+03  4.9457656396158818e+03  4.7959338741260981e+03  4.6463906646981814e+03  4.4971890254592336e+03  4.3483347369475323e+03  4.2011165272873604e+03  4.0516619051631797e+03  2.8576563461121409e+03  2.8236378646688408e+03  2.7952474912046323e+03  2.7677541925672094e+03  2.7399871169926619e+03  2.7121200701650678e+03  2.6841608501943865e+03  2.6561324729679086e+03  2.6280515378201940e+03  2.5999307112183392e+03  2.5717793808032652e+03  2.5436045240903595e+03  2.5154113609026035e+03  2.4872038335446632e+03  2.4589849500893215e+03  2.4307570289703308e+03  2.4025218739455872e+03  2.3742809003280163e+03  2.3460352270363524e+03  2.3177857445051663e+03  2.2895331653788817e+03  2.2612780627909769e+03  2.2330208995846760e+03  2.2047620508447976e+03  2.1765018214323395e+03  2.1482404597432837e+03  2.1199781685840749e+03  2.0917151138234772e+03  2.0634514313140353e+03  2.0351872324559863e+03  2.0069226086883705e+03  1.9786576351269568e+03  1.9503923735198234e+03  1.9221268746546007e+03  1.8938611803232368e+03  1.8655953249284419e+03  1.8373293367990871e+03  1.8090632392686027e+03  1.7807970515599918e+03  1.7525307895127326e+03  1.7242644661802462e+03  1.6959980923212615e+03  1.6677316768041110e+03  1.6394652269395249e+03  1.6111987487546485e+03  1.5829322472187407e+03  1.5546657264291091e+03  1.5263991897643159e+03  1.4981326400104449e+03  1.4698660794651805e+03  1.4415995100236059e+03  1.4133329332489509e+03  1.3850663504309312e+03  1.3567997626338790e+03  1.3285331707364496e+03  1.3002665754643929e+03  1.2719999774176306e+03  1.2437333770926275e+03  1.2154667749009036e+03  1.1872001711843859e+03  1.1589335662281571e+03  1.1306669602710888e+03  1.1024003535147467e+03  1.0741337461309149e+03  1.0458671382680100e+03  1.0176005300566169e+03  9.8933392161437803e+02  9.6106731305040137e+02  9.3280070446936077e+02  9.0453409597544544e+02  8.7626748767631727e+02  8.4800087968723267e+02  8.1973427213549348e+02  7.9146766516542448e+02  7.6320105894409619e+02  7.3493445366806077e+02  7.0666784957142943e+02  6.7840124693570874e+02  6.5013464610195069e+02  6.2186804748593465e+02  5.9360145159733418e+02  5.6533485906423073e+02  5.3706827066480787e+02  5.0880168736886435e+02  4.8053511039295358e+02  4.5226854127476696e+02  4.2400198197518677e+02  3.9573543502098113e+02  3.6746890370854823e+02  3.3920239240168388e+02  3.1093590697811680e+02  2.8266945551901421e+02  2.5440304940665305e+02  2.2613670515326734e+02  1.9787044744389146e+02  1.6960431549315828e+02  1.4133836850098396e+02  1.1307274707768224e+02  8.4807457131540815e+01  5.6544055769008558e+01  2.8285121432868422e+01  5.6319887891513832e-03  1.4002124799804393e+04  1.3850937903332919e+04  1.3698825603776075e+04  1.3546818547517947e+04  1.3395083388116989e+04  1.3243555358587779e+04  1.3092176011180985e+04  1.2940904433358421e+04  1.2789712495937034e+04  1.2638580566914523e+04  1.2487494610738084e+04  1.2336444361598060e+04  1.2185422158179930e+04  1.2034422184400664e+04  1.1883439961542623e+04  1.1732471999787740e+04  1.1581515553379631e+04  1.1430568444862445e+04  1.1279628936471621e+04  1.1128695634432886e+04  1.0977767416705694e+04  1.0826843377749330e+04  1.0675922785868097e+04  1.0525005050005164e+04  1.0374089693744017e+04  1.0223176334890242e+04  1.0072264669438406e+04  9.9213544590386100e+03  9.7704455213042274e+03  9.6195377224721706e+03  9.4686309720572881e+03  9.3177252192458855e+03  9.1668204508576491e+03  9.0159166907778981e+03  8.8650140008271555e+03  8.7141124830973022e+03  8.5632122838461146e+03  8.4123135991088438e+03  8.2614166822602674e+03  8.1105218538477993e+03  7.9596295141212504e+03  7.8087401588148632e+03  7.6578543989015125e+03  7.5069729852504679e+03  7.3560968393965913e+03  7.2052270919953307e+03  7.0543651310299801e+03  6.9035126625066105e+03  6.7526717872918462e+03  6.6018450990269612e+03  6.4510358098466932e+03  6.3002479131745295e+03  6.1494863964994438e+03  5.9987575222625346e+03  5.8480692025287490e+03  5.6974315040305055e+03  5.5468573358602425e+03  5.3963633949668992e+03  5.2459714762334806e+03  5.0957102898940966e+03  4.9456180574683767e+03  4.7957460483671448e+03  4.6461621793139420e+03  4.4969608194172451e+03  4.3484090947210670e+03  4.2009634542934982e+03  4.0578455657628942e+03  3.9255481217038241e+03  2.8213982003709643e+03  2.7954498205368313e+03  2.7678109013859812e+03  2.7400606163040725e+03  2.7121781620549345e+03  2.6842058483646770e+03  2.6561666577751535e+03  2.6280775214978185e+03  2.5999505778958041e+03  2.5717946962344472e+03  2.5436164335871822e+03  2.5154206986241370e+03  2.4872112097585164e+03  2.4589908152218100e+03  2.4307617190269975e+03  2.4025256423848864e+03  2.3742839404370934e+03  2.3460376877362137e+03  2.3177877416185229e+03  2.2895347897512547e+03  2.2612793862125727e+03  2.2330219791602290e+03  2.2047629322561811e+03  2.1765025414021543e+03  2.1482410479150626e+03  2.1199786489715320e+03  2.0917155059377560e+03  2.0634517510477021e+03  2.0351874927813319e+03  2.0069228202126003e+03  1.9786578065360711e+03  1.9503925119352396e+03  1.9221269859208751e+03  1.8938612692410172e+03  1.8655953954436573e+03  1.8373293921569832e+03  1.8090632821394283e+03  1.7807970841417373e+03  1.7525308136152353e+03  1.7242644832941321e+03  1.6959981036745141e+03  1.6677316834085279e+03  1.6394652296288962e+03  1.6111987482161521e+03  1.5829322440187748e+03  1.5546657210345491e+03  1.5263991825600176e+03  1.4981326313136576e+03  1.4698660695374197e+03  1.4415994990804336e+03  1.4133329214680289e+03  1.3850663379586638e+03  1.3567997495908755e+03  1.3285331572220293e+03  1.3002665615602923e+03  1.2719999631910521e+03  1.2437333625987465e+03  1.2154667601849283e+03  1.1872001562832409e+03  1.1589335511718623e+03  1.1306669450838763e+03  1.1024003382159649e+03  1.0741337307357483e+03  1.0458671227880418e+03  1.0176005145002596e+03  9.8933390598718108e+02  9.6106729735525175e+02  9.3280068870657999e+02  9.0453408014278659e+02  8.7626747176885863e+02  8.4800086369716132e+02  8.1973425605176510e+02  7.9146764897327887e+02  7.6320104262439907e+02  7.3493443719643142e+02  7.0666783291709328e+02  6.7840123005999510e+02  6.5013462895632097e+02  6.2186803000937334e+02  5.9360143371287290e+02  5.6533484067425547e+02  5.3706825164463896e+02  5.0880166755783790e+02  4.8053508958181072e+02  4.5226851918748082e+02  4.2400195824221879e+02  3.9573540913900496e+02  3.6746887497823531e+02  3.3920235982885413e+02  3.1093586911171610e+02  2.8266941017567916e+02  2.5440299318609965e+02  2.2613663252506498e+02  1.9787034910361550e+02  1.6960417395994978e+02  1.4133815601099570e+02  1.1307236825398891e+02  8.4806939078970558e+01  5.6542509710103644e+01  2.8277085987462691e+01  -4.2735393551813979e-04  1.4000611641196103e+04  1.3849736723728382e+04  1.3698142221543207e+04  1.3546433881875646e+04  1.3394846144749163e+04  1.3243398710291842e+04  1.3092067201539379e+04  1.2940825942988531e+04  1.2789654245871856e+04  1.2638536389502977e+04  1.2487460538593659e+04  1.2336417735018611e+04  1.2185401132050474e+04  1.2034405441640509e+04  1.1883426539243443e+04  1.1732461179686255e+04  1.1581506790549205e+04  1.1430561319914295e+04  1.1279623122670999e+04  1.1128690874541784e+04  1.0977763506327432e+04  1.0826840153117228e+04  1.0675920114733126e+04  1.0525002824723319e+04  1.0374087825949317e+04  1.0223174751325361e+04  1.0072263308638372e+04  9.9213532686462531e+03  9.7704444558527921e+03  9.6195367415094624e+03  9.4686300385125924e+03  9.3177242979589610e+03  9.1668195072010603e+03  9.0159156893109284e+03  8.8650129039226595e+03  8.7141112494823010e+03  8.5632108669930949e+03  8.4123119454071420e+03  8.2614147288849472e+03  8.1105195262263705e+03  7.9596267228744900e+03  7.8087367960148003e+03  7.6578503334439993e+03  7.5069680570764822e+03  7.3560908522086738e+03  7.2052198039925706e+03  7.0543562430114480e+03  6.9035018024465580e+03  6.7526584901366350e+03  6.6018287799552645e+03  6.4510157284995776e+03  6.3002231253005120e+03  6.1494556879354905e+03  5.9987193180221275e+03  5.8480214408532274e+03  5.6973714616565321e+03  5.5467813874029425e+03  5.3962666895512630e+03  5.2458475297182576e+03  5.0955505611934977e+03  4.9454117613248100e+03  4.7954811660180685e+03  4.6458322867649385e+03  4.4965935461587032e+03  4.3480815273757271e+03  4.2006178814037648e+03  4.0573311673549510e+03  3.9251994720157695e+03  2.8213899009895217e+03  2.7955494067695508e+03  2.7679319435809930e+03  2.7401652056053249e+03  2.7122604756320957e+03  2.6842685870581467e+03  2.6562141468788795e+03  2.6281135869866266e+03  2.5999781730198956e+03  2.5718159976769466e+03  2.5436330232308228e+03  2.5154337261743640e+03  2.4872215164629811e+03  2.4589990227128883e+03  2.4307682917677280e+03  2.4025309313384046e+03  2.3742882137015831e+03  2.3460411521992064e+03  2.3177905584168352e+03  2.2895370854334515e+03  2.2612812608943541e+03  2.2330235125542117e+03  2.2047641881824138e+03  2.1765035712001463e+03  2.1482418930521749e+03  2.1199793430565878e+03  2.0917160762894086e+03  2.0634522199258536e+03  2.0351878783609429e+03  2.0069231373586315e+03  1.9786580674235727e+03  1.9503927265478912e+03  1.9221271624534365e+03  1.8938614144253452e+03  1.8655955148135813e+03  1.8373294902640428e+03  1.8090633627289615e+03  1.7807971502968467e+03  1.7525308678746806e+03  1.7242645277489737e+03  1.6959981400474278e+03  1.6677317131189473e+03  1.6394652538465557e+03  1.6111987679051206e+03  1.5829322599736836e+03  1.5546657339104113e+03  1.5263991928967803e+03  1.4981326395564211e+03  1.4698660760530911e+03  1.4415995041714475e+03  1.4133329253836512e+03  1.3850663409043002e+03  1.3567997517357464e+03  1.3285331587054820e+03  1.3002665624970050e+03  1.2719999636753116e+03  1.2437333627079674e+03  1.2154667599825377e+03  1.1872001558210463e+03  1.1589335504919811e+03  1.1306669442203074e+03  1.1024003371958540e+03  1.0741337295803987e+03  1.0458671215137056e+03  1.0176005131187387e+03  9.8933390450626200e+02  9.6106729577898523e+02  9.3280068703541872e+02  9.0453407837358145e+02  8.7626746989471087e+02  8.4800086170711927e+02  8.1973425393035052e+02  7.9146764669981053e+02  7.6320104017207620e+02  7.3493443453111593e+02  7.0666782999571535e+02  6.7840122682846550e+02  6.5013462534679354e+02  6.2186802593663629e+02  5.9360142906954400e+02  5.6533483532431649e+02  5.3706824541461606e+02  5.0880166022458724e+02  4.8053508085531791e+02  4.5226850868618084e+02  4.2400194