<?xml version="1.0"?>
<VTKFile type="UnstructuredGrid"  version="0.1"  >
<UnstructuredGrid>
<Piece  NumberOfPoints="21400" NumberOfCells="42336">
<Points>
<DataArray  type="Float64"  NumberOfComponents="3"  format="ascii">0 0 0  0.004583333333333333 0 0  0.009166666666666667 0 0  0.01375 0 0  0.01833333333333333 0 0  0.02291666666666667 0 0  0.0275 0 0  0.03208333333333334 0 0  0.03666666666666667 0 0  0.04125 0 0  0.04583333333333334 0 0  0.05041666666666667 0 0  0.055 0 0  0.05958333333333334 0 0  0.06416666666666668 0 0  0.06875000000000001 0 0  0.07333333333333333 0 0  0.07791666666666666 0 0  0.08249999999999999 0 0  0.08708333333333333 0 0  0.09166666666666667 0 0  0.09625000000000002 0 0  0.1008333333333333 0 0  0.1054166666666667 0 0  0.11 0 0  0.1145833333333333 0 0  0.1191666666666667 0 0  0.12375 0 0  0.1283333333333334 0 0  0.1329166666666667 0 0  0.1375 0 0  0.1420833333333333 0 0  0.1466666666666667 0 0  0.15125 0 0  0.1558333333333333 0 0  0.1604166666666667 0 0  0.165 0 0  0.1695833333333333 0 0  0.1741666666666667 0 0  0.17875 0 0  0.1833333333333333 0 0  0.1879166666666667 0 0  0.1925 0 0  0.1970833333333333 0 0  0.2016666666666667 0 0  0.20625 0 0  0.2108333333333333 0 0  0.2154166666666666 0 0  0.22 0 0  0.2245833333333334 0 0  0.2291666666666667 0 0  0.23375 0 0  0.2383333333333333 0 0  0.2429166666666667 0 0  0.2475 0 0  0.2520833333333333 0 0  0.2566666666666667 0 0  0.26125 0 0  0.2658333333333334 0 0  0.2704166666666666 0 0  0.275 0 0  0.2795833333333334 0 0  0.2841666666666667 0 0  0.28875 0 0  0.2933333333333333 0 0  0.2979166666666667 0 0  0.3025 0 0  0.3070833333333334 0 0  0.3116666666666666 0 0  0.31625 0 0  0.3208333333333333 0 0  0.3254166666666667 0 0  0.33 0 0  0.3345833333333333 0 0  0.3391666666666667 0 0  0.34375 0 0  0.3483333333333333 0 0  0.3529166666666667 0 0  0.3575 0 0  0.3620833333333333 0 0  0.3666666666666667 0 0  0.37125 0 0  0.3758333333333334 0 0  0.3804166666666667 0 0  0.3850000000000001 0 0  0.3895833333333333 0 0  0.3941666666666667 0 0  0.39875 0 0  0.4033333333333334 0 0  0.4079166666666666 0 0  0.4125 0 0  0.4170833333333334 0 0  0.4216666666666667 0 0  0.42625 0 0  0.4308333333333333 0 0  0.4354166666666667 0 0  0.44 0 0  0.4445833333333333 0 0  0.4491666666666667 0 0  0.45375 0 0  0.4583333333333333 0 0  0.4629166666666666 0 0  0.4675 0 0  0.4720833333333334 0 0  0.4766666666666667 0 0  0.4812500000000001 0 0  0.4858333333333333 0 0  0.4904166666666667 0 0  0.495 0 0  0.4995833333333334 0 0  0.5041666666666667 0 0  0.50875 0 0  0.5133333333333334 0 0  0.5179166666666667 0 0  0.5225 0 0  0.5270833333333333 0 0  0.5316666666666667 0 0  0.53625 0 0  0.5408333333333333 0 0  0.5454166666666667 0 0  0.55 0 0  0.5545833333333333 0 0  0.5591666666666667 0 0  0.5637500000000001 0 0  0.5683333333333334 0 0  0.5729166666666666 0 0  0.5775 0 0  0.5820833333333334 0 0  0.5866666666666667 0 0  0.5912499999999999 0 0  0.5958333333333334 0 0  0.6004166666666667 0 0  0.605 0 0  0.6095833333333334 0 0  0.6141666666666667 0 0  0.61875 0 0  0.6233333333333333 0 0  0.6279166666666667 0 0  0.6325000000000001 0 0  0.6370833333333333 0 0  0.6416666666666666 0 0  0.64625 0 0  0.6508333333333334 0 0  0.6554166666666666 0 0  0.6599999999999999 0 0  0.6645833333333334 0 0  0.6691666666666667 0 0  0.67375 0 0  0.6783333333333333 0 0  0.6829166666666667 0 0  0.6875 0 0  0.6920833333333333 0 0  0.6966666666666667 0 0  0.70125 0 0  0.7058333333333333 0 0  0.7104166666666667 0 0  0.7150000000000001 0 0  0.7195833333333334 0 0  0.7241666666666666 0 0  0.72875 0 0  0.7333333333333334 0 0  0.7379166666666667 0 0  0.7425 0 0  0.7470833333333333 0 0  0.7516666666666667 0 0  0.75625 0 0  0.7608333333333334 0 0  0.7654166666666666 0 0  0.7700000000000001 0 0  0 0.002380952380952381 0  0.004583333333333333 0.002380952380952381 0  0.009166666666666667 0.002380952380952381 0  0.01375 0.002380952380952381 0  0.01833333333333333 0.002380952380952381 0  0.02291666666666667 0.002380952380952381 0  0.0275 0.002380952380952381 0  0.03208333333333334 0.002380952380952381 0  0.03666666666666667 0.002380952380952381 0  0.04125 0.002380952380952381 0  0.04583333333333334 0.002380952380952381 0  0.05041666666666667 0.002380952380952381 0  0.055 0.002380952380952381 0  0.05958333333333334 0.002380952380952381 0  0.06416666666666668 0.002380952380952381 0  0.06875000000000001 0.002380952380952381 0  0.07333333333333333 0.002380952380952381 0  0.07791666666666666 0.002380952380952381 0  0.08249999999999999 0.002380952380952381 0  0.08708333333333333 0.002380952380952381 0  0.09166666666666667 0.002380952380952381 0  0.09625000000000002 0.002380952380952381 0  0.1008333333333333 0.002380952380952381 0  0.1054166666666667 0.002380952380952381 0  0.11 0.002380952380952381 0  0.1145833333333333 0.002380952380952381 0  0.1191666666666667 0.002380952380952381 0  0.12375 0.002380952380952381 0  0.1283333333333334 0.002380952380952381 0  0.1329166666666667 0.002380952380952381 0  0.1375 0.002380952380952381 0  0.1420833333333333 0.002380952380952381 0  0.1466666666666667 0.002380952380952381 0  0.15125 0.002380952380952381 0  0.1558333333333333 0.002380952380952381 0  0.1604166666666667 0.002380952380952381 0  0.165 0.002380952380952381 0  0.1695833333333333 0.002380952380952381 0  0.1741666666666667 0.002380952380952381 0  0.17875 0.002380952380952381 0  0.1833333333333333 0.002380952380952381 0  0.1879166666666667 0.002380952380952381 0  0.1925 0.002380952380952381 0  0.1970833333333333 0.002380952380952381 0  0.2016666666666667 0.002380952380952381 0  0.20625 0.002380952380952381 0  0.2108333333333333 0.002380952380952381 0  0.2154166666666666 0.002380952380952381 0  0.22 0.002380952380952381 0  0.2245833333333334 0.002380952380952381 0  0.2291666666666667 0.002380952380952381 0  0.23375 0.002380952380952381 0  0.2383333333333333 0.002380952380952381 0  0.2429166666666667 0.002380952380952381 0  0.2475 0.002380952380952381 0  0.2520833333333333 0.002380952380952381 0  0.2566666666666667 0.002380952380952381 0  0.26125 0.002380952380952381 0  0.2658333333333334 0.002380952380952381 0  0.2704166666666666 0.002380952380952381 0  0.275 0.002380952380952381 0  0.2795833333333334 0.002380952380952381 0  0.2841666666666667 0.002380952380952381 0  0.28875 0.002380952380952381 0  0.2933333333333333 0.002380952380952381 0  0.2979166666666667 0.002380952380952381 0  0.3025 0.002380952380952381 0  0.3070833333333334 0.002380952380952381 0  0.3116666666666666 0.002380952380952381 0  0.31625 0.002380952380952381 0  0.3208333333333333 0.002380952380952381 0  0.3254166666666667 0.002380952380952381 0  0.33 0.002380952380952381 0  0.3345833333333333 0.002380952380952381 0  0.3391666666666667 0.002380952380952381 0  0.34375 0.002380952380952381 0  0.3483333333333333 0.002380952380952381 0  0.3529166666666667 0.002380952380952381 0  0.3575 0.002380952380952381 0  0.3620833333333333 0.002380952380952381 0  0.3666666666666667 0.002380952380952381 0  0.37125 0.002380952380952381 0  0.3758333333333334 0.002380952380952381 0  0.3804166666666667 0.002380952380952381 0  0.3850000000000001 0.002380952380952381 0  0.3895833333333333 0.002380952380952381 0  0.3941666666666667 0.002380952380952381 0  0.39875 0.002380952380952381 0  0.4033333333333334 0.002380952380952381 0  0.4079166666666666 0.002380952380952381 0  0.4125 0.002380952380952381 0  0.4170833333333334 0.002380952380952381 0  0.4216666666666667 0.002380952380952381 0  0.42625 0.002380952380952381 0  0.4308333333333333 0.002380952380952381 0  0.4354166666666667 0.002380952380952381 0  0.44 0.002380952380952381 0  0.4445833333333333 0.002380952380952381 0  0.4491666666666667 0.002380952380952381 0  0.45375 0.002380952380952381 0  0.4583333333333333 0.002380952380952381 0  0.4629166666666666 0.002380952380952381 0  0.4675 0.002380952380952381 0  0.4720833333333334 0.002380952380952381 0  0.4766666666666667 0.002380952380952381 0  0.4812500000000001 0.002380952380952381 0  0.4858333333333333 0.002380952380952381 0  0.4904166666666667 0.002380952380952381 0  0.495 0.002380952380952381 0  0.4995833333333334 0.002380952380952381 0  0.5041666666666667 0.002380952380952381 0  0.50875 0.002380952380952381 0  0.5133333333333334 0.002380952380952381 0  0.5179166666666667 0.002380952380952381 0  0.5225 0.002380952380952381 0  0.5270833333333333 0.002380952380952381 0  0.5316666666666667 0.002380952380952381 0  0.53625 0.002380952380952381 0  0.5408333333333333 0.002380952380952381 0  0.5454166666666667 0.002380952380952381 0  0.55 0.002380952380952381 0  0.5545833333333333 0.002380952380952381 0  0.5591666666666667 0.002380952380952381 0  0.5637500000000001 0.002380952380952381 0  0.5683333333333334 0.002380952380952381 0  0.5729166666666666 0.002380952380952381 0  0.5775 0.002380952380952381 0  0.5820833333333334 0.002380952380952381 0  0.5866666666666667 0.002380952380952381 0  0.5912499999999999 0.002380952380952381 0  0.5958333333333334 0.002380952380952381 0  0.6004166666666667 0.002380952380952381 0  0.605 0.002380952380952381 0  0.6095833333333334 0.002380952380952381 0  0.6141666666666667 0.002380952380952381 0  0.61875 0.002380952380952381 0  0.6233333333333333 0.002380952380952381 0  0.6279166666666667 0.002380952380952381 0  0.6325000000000001 0.002380952380952381 0  0.6370833333333333 0.002380952380952381 0  0.6416666666666666 0.002380952380952381 0  0.64625 0.002380952380952381 0  0.6508333333333334 0.002380952380952381 0  0.6554166666666666 0.002380952380952381 0  0.6599999999999999 0.002380952380952381 0  0.6645833333333334 0.002380952380952381 0  0.6691666666666667 0.002380952380952381 0  0.67375 0.002380952380952381 0  0.6783333333333333 0.002380952380952381 0  0.6829166666666667 0.002380952380952381 0  0.6875 0.002380952380952381 0  0.6920833333333333 0.002380952380952381 0  0.6966666666666667 0.002380952380952381 0  0.70125 0.002380952380952381 0  0.7058333333333333 0.002380952380952381 0  0.7104166666666667 0.002380952380952381 0  0.7150000000000001 0.002380952380952381 
[...]
<PointData  Scalars="pressure"> 
<DataArray  type="Float64"  Name="pressure"  format="ascii">9.8222318740842238e+03  9.6598015326707791e+03  9.5059835360270590e+03  9.3533684344574613e+03  9.2014050023614745e+03  9.0497639042709652e+03  8.8983256918244188e+03  8.7470230201136947e+03  8.5958166761174980e+03  8.4446817393496603e+03  8.2936016610142342e+03  8.1425651207154224e+03  7.9915642856878212e+03  7.8405937903442627e+03  7.6896501222731249e+03  7.5387312533892400e+03  7.3878364298025681e+03  7.2369660710351945e+03  7.0861217454588341e+03  6.9353061872624985e+03  6.7845232889213457e+03  6.6337778864071806e+03  6.4830750457599834e+03  6.3324160884251614e+03  6.1817946203941547e+03  6.0311160992231089e+03  5.8806243694275199e+03  5.7231318249165543e+03  4.0630236717461676e+03  3.9635386091393657e+03  3.9072858651431720e+03  3.8693537862357512e+03  3.8423856124172230e+03  3.8148262271076101e+03  3.7868778776778054e+03  3.7588265017138492e+03  3.7307078421993851e+03  3.7025487392411087e+03  3.6743623720758956e+03  3.6461569293606444e+03  3.6179376765219945e+03  3.5897081790573147e+03  3.5614709331724725e+03  3.5332277353159789e+03  3.5049799075105502e+03  3.4767284408772721e+03  3.4484740901021742e+03  3.4202174374003885e+03  3.3919589369006453e+03  3.3636989461172438e+03  3.3354377487003349e+03  3.3071755711674186e+03  3.2789125953994394e+03  3.2506489681026146e+03  3.2223848080605476e+03  3.1941202117525941e+03  3.1658552577475853e+03  3.1375900101680159e+03  3.1093245214406370e+03  3.0810588344937155e+03  3.0527929845213271e+03  3.0245270004062490e+03  2.9962609058717335e+03  2.9679947204167597e+03  2.9397284600774351e+03  2.9114621380482299e+03  2.8831957651897710e+03  2.8549293504445313e+03  2.8266629011775717e+03  2.7983964234561126e+03  2.7701299222791431e+03  2.7418634017661061e+03  2.7135968653120794e+03  2.6853303157154178e+03  2.6570637552828366e+03  2.6287971859159125e+03  2.6005306091823295e+03  2.5722640263745693e+03  2.5439974385582573e+03  2.5157308466120176e+03  2.4874642512602973e+03  2.4591976531004420e+03  2.4309310526249992e+03  2.4026644502401155e+03  2.3743978462806876e+03  2.3461312410228788e+03  2.3178646346944051e+03  2.2895980274830513e+03  2.2613314195436628e+03  2.2330648110039333e+03  2.2047982019691622e+03  2.1765315925261839e+03  2.1482649827466093e+03  2.1199983726894916e+03  2.0917317624035377e+03  2.0634651519289141e+03  2.0351985412987551e+03  2.0069319305403922e+03  1.9786653196763766e+03  1.9503987087253158e+03  1.9221320977025762e+03  1.8938654866208476e+03  1.8655988754906186e+03  1.8373322643205727e+03  1.8090656531179063e+03  1.7807990418885977e+03  1.7525324306376363e+03  1.7242658193691980e+03  1.6959992080868110e+03  1.6677325967934821e+03  1.6394659854918100e+03  1.6111993741840822e+03  1.5829327628723609e+03  1.5546661515585592e+03  1.5263995402445116e+03  1.4981329289320429e+03  1.4698663176230393e+03  1.4415997063195155e+03  1.4133330950236893e+03  1.3850664837380668e+03  1.3567998724655340e+03  1.3285332612094680e+03  1.3002666499738564e+03  1.2720000387634536e+03  1.2437334275839551e+03  1.2154668164422112e+03  1.1872002053464798e+03  1.1589335943067445e+03  1.1306669833350813e+03  1.1024003724461161e+03  1.0741337616575713e+03  1.0458671509909423e+03  1.0176005404723006e+03  9.8933393013328657e+02  9.6106732001231512e+02  9.3280071015604108e+02  9.0453410062115040e+02  8.7626749147655255e+02  8.4800088280606417e+02  8.1973427471170282e+02  7.9146766731773789e+02  7.6320106077569437e+02  7.3493445527054860e+02  7.0666785102843460e+02  6.7840124832627441e+02  6.5013464750389369e+02  6.2186804897936440e+02  5.9360145326857173e+02  5.6533486101044252e+02  5.3706827299978954e+02  5.0880169023060915e+02  4.8053511395396310e+02  4.5226854575659240e+02  4.2400198766959397e+02  3.9573544232168683e+02  3.6746891316024670e+02  3.3920240477819601e+02  3.1093592341119319e+02  2.8266947771914579e+02  2.5440308005427656e+02  2.2613674865650273e+02  1.9787051121838059e+02  1.6960441452086087e+02  1.4133851893127832e+02  1.1307309740122335e+02  8.4807248966232265e+01  5.6551537994366214e+01  2.8205951008080572e+01  7.9925960190635459e-01  9.8139491848871130e+03  9.6598507760090779e+03  9.5057996700648764e+03  9.3533164292383717e+03  9.2013708249750871e+03  9.0497430116550422e+03  8.8983114293239141e+03  8.7470128353493637e+03  8.5958090957316417e+03  8.4446759055265029e+03  8.2935970295300176e+03  8.1425613262655061e+03  7.9915610687213793e+03  7.8405909556259212e+03  7.6896475136328299e+03  7.5387287373111330e+03  7.3878338841075838e+03  7.2369633769786396e+03  7.0861187833598869e+03  6.9353028382519415e+03  6.7845194503719467e+03  6.6337735579813043e+03  6.4830703111345792e+03  6.3324129535907923e+03  6.1817910945539570e+03  6.0311914947689593e+03  5.8801487334126859e+03  5.7290900730022513e+03  5.5824804853067644e+03  5.4445554813622111e+03  5.3584076617008923e+03  3.8685455070496746e+03  3.8426217806071400e+03  3.8148295150815229e+03  3.7868921516021715e+03  3.7588328504209603e+03  3.7307121244144246e+03  3.7025515995608089e+03  3.6743643920441295e+03  3.6461583971745304e+03  3.6179387695003861e+03  3.5897090086249605e+03  3.5614715727506505e+03  3.5332282348433973e+03  3.5049803019102715e+03  3.4767287551506693e+03  3.4484743425143411e+03  3.4202176415320996e+03  3.3919591030054917e+03  3.3636990820403653e+03  3.3354378605135907e+03  3.3071756636170435e+03  3.2789126722271330e+03  3.2506490322796585e+03  3.2223848619610267e+03  3.1941202572833577e+03  3.1658552964469623e+03  3.1375900432816297e+03  3.1093245499802288e+03  3.0810588592831841e+03  3.0527930062330570e+03  3.0245270195899557e+03  2.9962609229775153e+03  2.9679947358136037e+03  2.9397284740681444e+03  2.9114621508815071e+03  2.8831957770700237e+03  2.8549293615398628e+03  2.8266629116262916e+03  2.7983964333720651e+03  2.7701299317560620e+03  2.7418634108811916e+03  2.7135968741289271e+03  2.6853303242864240e+03  2.6570637636511801e+03  2.6287971941171763e+03  2.6005306172458445e+03  2.5722640343245125e+03  2.5439974464145607e+03  2.5157308543911113e+03  2.4874642589757277e+03  2.4591976607633774e+03  2.4309310602446503e+03  2.4026644578240730e+03  2.3743978538352130e+03  2.3461312485531344e+03  2.3178646422046486e+03  2.2895980349767906e+03  2.2613314270237929e+03  2.2330648184728416e+03  2.2047982094288159e+03  2.1765315999782056e+03  2.1482649901923364e+03  2.1199983801300291e+03  2.0917317698397933e+03  2.0634651593616391e+03  2.0351985487285667e+03  2.0069319379678006e+03  1.9786653271018010e+03  1.9503987161491036e+03  1.9221321051250115e+03  1.8938654940421645e+03  1.8655988829110099e+03  1.8373322717401973e+03  1.8090656605368929e+03  1.7807990493070531e+03  1.7525324380556453e+03  1.7242658267868312e+03  1.6959992155041236e+03  1.6677326042105171e+03  1.6394659929086013e+03  1.6111993816006532e+03  1.5829327702887263e+03  1.5546661589747280e+03  1.5263995476604846e+03  1.4981329363478135e+03  1.4698663250385935e+03  1.4415997137348309e+03  1.4133331024387348e+03  1.3850664911528011e+03  1.3567998798799049e+03  1.3285332686234090e+03  1.3002666573872850e+03  1.2720000461762681e+03  1.2437334349960317e+03  1.2154668238533961e+03  1.1872002127565888e+03  1.1589336017155510e+03  1.1306669907423109e+03  1.1024003798514341e+03  1.0741337690605715e+03  1.0458671583911305e+03  1.0176005478690766e+03  9.8933393752592042e+02  9.6106732739991810e+02  9.3280071753753157e+02  9.0453410799521089e+02  8.7626749884157573e+02  8.4800089016008872e+02  8.1973428205233085e+02  7.9146767464203288e+02  7.6320106808005266e+02  7.3493446255053846e+02  7.0666785827858780e+02  6.7840125553982159e+02  6.5013465467241883e+02  6.2186805609235114e+02  5.9360146031280112e+02  5.6533486796918089e+02  5.3706827985167490e+02  5.0880169694810411e+02  4.8053512050115938e+02  4.5226855208603524e+02  4.2400199371758993e+02  3.9573544800119720e+02  3.6746891834984245e+02  3.3920240930436256e+02  3.1093592701916015e+02  2.8266948002189349e+02  2.5440308044867962e+02  2.2613674610331722e+02  1.9787050432709310e+02  1.6960439735359046e+02  1.4133850851384142e+02  1.1307288684606867e+02  8.4808461689270317e+01  5.6540124276305605e+01  2.8309264635301030e+01  -4.3494475678429706e-02  9.8102794513891749e+03  9.6583497434212532e+03  9.5054199504911976e+03  9.3531149502845419e+03  9.2012583538586077e+03  9.0496711646733111e+03  8.8982624831866233e+03  8.7469777138292175e+03  8.5957828859343117e+03  8.4446556808220485e+03  8.2935809300563669e+03  8.1425480974082784e+03  7.9915498154675115e+03  7.8405810016464684e+03  7.6896383149606263e+03  7.5387198257280188e+03  7.3878248275616925e+03  7.2369537512055676e+03  7.0861081546240484e+03  6.9352907658747081e+03  6.7845055413437049e+03  6.6337576422428792e+03  6.4830530843782017e+03  6.3323973826665851e+03  6.1817932480577128e+03  6.0312163610919370e+03  5.8806201235357603e+03  5.7307756638585142e+03  5.5841301801216387e+03  5.4371036775310367e+03  3.9001438233582735e+03  3.8707504523351699e+03  3.8427179028026812e+03  3.8149214825001600e+03  3.7869293455683060e+03  3.7588556768774502e+03  3.7307265773091158e+03  3.7025614246848004e+03  3.6743713280802285e+03  3.6461634434035318e+03  3.6179425257302487e+03  3.5897118560745535e+03  3.5614737632309962e+03  3.5332299401731316e+03  3.5049816425291224e+03  3.4767298174551379e+03  3.4484751897297233e+03  3.4202183207368048e+03  3.3919596497880439e+03  3.3636995236587300e+03  3.3354382180835059e+03  3.3071759536568620e+03  3.2789129077676407e+03  3.2506492236742679e+03  3.2223850174860895e+03  3.1941203835889942e+03  3.1658553988998287e+03  3.1375901262284369e+03  3.1093246169523395e+03  3.0810589131568822e+03  3.0527930493560402e+03  3.0245270538818700e+03  2.9962609500103031e+03  2.9679947568760522e+03  2.9397284902179563e+03  2.9114621629874573e+03  2.8831957858462019e+03  2.8549293675735489e+03  2.8266629154007005e+03  2.7983964352849425e+03  2.7701299321349079e+03  2.7418634099957385e+03  2.7135968722013740e+03  2.6853303214998509e+03  2.6570637601564540e+03  2.6287971900386369e+03  2.6005306126859778e+03  2.5722640293677969e+03  2.5439974411306384e+03  2.5157308488373960e+03  2.4874642531995542e+03  2.4591976548037742e+03  2.4309310541337932e+03  2.4026644515884941e+03  2.3743978474967912e+03  2.3461312421299053e+03  2.3178646357114867e+03  2.2895980284259608e+03  2.2613314204254098e+03  2.2330648118352437e+03  2.2047982027588791e+03  2.1765315932816006e+03  2.1482649834737381e+03  2.1199983733932922e+03  2.0917317630880975e+03  2.0634651525976033e+03  2.0351985419543530e+03  2.0069319311851887e+03  1.9786653203122582e+03  1.9503987093538394e+03  1.9221320983250212e+03  1.8938654872382672e+03  1.8655988761038800e+03  1.8373322649303866e+03  1.8090656537248547e+03  1.7807990424931581e+03  1.7525324312401945e+03  1.7242658199700659e+03  1.6959992086862378e+03  1.6677325973916631e+03  1.6394659860888951e+03  1.6111993747801787e+03  1.5829327634675387e+03  1.5546661521528558e+03  1.5263995408379308e+03  1.4981329295245566e+03  1.4698663182145845e+03  1.4415997069099940e+03  1.4133330956129623e+03  1.3850664843259503e+03  1.3567998730517938e+03  1.3285332617938070e+03  1.3002666505559075e+03  1.2720000393427633e+03  1.2437334281599678e+03  1.2154668170142465e+03  1.1872002059137103e+03  1.1589335948681610e+03  1.1306669838894575e+03  1.1024003729919591e+03  1.0741337621930677e+03  1.0458671515138874e+03  1.0176005409800142e+03  9.8933393062250934e+02  9.6106732047908110e+02  9.3280071059552279e+02  9.0453410102746648e+02  8.7626749184253163e+02  8.4800088312295156e+02  8.1973427496879685e+02  7.9146766750193456e+02  7.6320106087091494e+02  7.3493445525701850e+02  7.0666785088175970e+02  6.7840124801625927e+02  6.5013464699300278e+02  6.2186804822070565e+02  5.9360145220321533e+02  5.6533485956380832e+02  5.3706827107670563e+02  5.0880168770843682e+02  4.8053511067285996e+02  4.5226854150544136e+02  4.2400198216522836e+02  3.9573543517747447e+02  3.6746890383732693e+02  3.3920239250754867e+02  3.1093590706501408e+02  2.8266945559018319e+02  2.5440304946474700e+02  2.2613670520045173e+02  1.9787044748192517e+02  1.6960431552345912e+02  1.4133836852468156e+02  1.1307274709565992e+02  8.4807457144468827e+01  5.6544055777369053e+01  2.8285121436973714e+01  5.6319887885695257e-03  9.8081072073726464e+03  9.6569207884952848e+03  9.5048101380560383e+03  9.3528059675131990e+03  9.2010750409859775e+03  9.0495527528468465e+03  8.8981808747424166e+03  8.7469187805574111e+03  8.5957387063948081e+03  8.4446214797204066e+03  8.2935536382487953e+03  8.1425256282316641e+03  7.9915306710077157e+03  7.8405640442164058e+03  7.6896226255409820e+03  7.5387046101478736e+03  7.3878093500314053e+03  7.2369372854838775e+03  7.0860899518861170e+03  6.9352700518452657e+03  6.7844815841845511e+03  6.6337300140416010e+03  6.4830224651492599e+03  6.3323681694085635e+03  6.1817792310596697e+03  6.0312748190393877e+03  5.8809901558184847e+03  5.7315797786547755e+03  5.5839955752231754e+03  5.4343534828062257e+03  3.8993801790540806e+03  3.8714204346488500e+03  3.8430311885690044e+03  3.8150317281414259e+03  3.7869913853494363e+03  3.7588924077997567e+03  3.7307505219409190e+03  3.7025778022172180e+03  3.6743829600197450e+03  3.6461719374595027e+03  3.6179488655917285e+03  3.5897166715270464e+03  3.5614774729708251e+03  3.5332328312225745e+03  3.5049839168310077e+03  3.4767316203065475e+03  3.4484766277227586e+03  3.4202194734049631e+03  3.3919605773578737e+03  3.3637002723259839e+03  3.3354388236781051e+03  3.3071764442365952e+03  3.2789133054855197e+03  3.2506495461444347e+03  3.2223852787975657e+03  3.1941205950681901e+03  3.1658555696910557e+03  3.1375902637407244e+03  3.1093247272067201e+03  3.0810590010586552e+03  3.0527931189098617e+03  3.0245271083627763e+03  2.9962609921005042e+03  2.9679947887748581e+03  2.9397285137305048e+03  2.9114621795965704e+03  2.8831957967707617e+03  2.8549293738160368e+03  2.8266629177860000e+03  2.7983964344920596e+03  2.7701299287229463e+03  2.7418634044251912e+03  2.7135968648515941e+03  2.6853303126834094e+03  2.6570637501309293e+03  2.6287971790163169e+03  2.6005306008418406e+03  2.5722640168460812e+03  2.5439974280502488e+03  2.5157308352963591e+03  2.4874642392786905e+03  2.4591976405697178e+03  2.4309310396414844e+03  2.4026644368832344e+03  2.3743978326159308e+03  2.3461312271042443e+03  2.3178646205664222e+03  2.2895980131824340e+03  2.2613314051006878e+03  2.2330647964435643e+03  2.2047981873119843e+03  2.1765315777891715e+03  2.1482649679437568e+03  2.1199983578323413e+03  2.0917317475016043e+03  2.0634651369900425e+03  2.0351985263294125e+03  2.0069319155459091e+03  1.9786653046611448e+03  1.9503986936929564e+03  1.9221320826560691e+03  1.8938654715626444e+03  1.8655988604227364e+03  1.8373322492446669e+03  1.8090656380353328e+03  1.7807990268004653e+03  1.7525324155448436e+03  1.7242658042724727e+03  1.6959991929867322e+03  1.6677325816905040e+03  1.6394659703862810e+03  1.6111993590762531e+03  1.5829327477623963e+03  1.5546661364465454e+03  1.5263995251304582e+03  1.4981329138158842e+03  1.4698663025046296e+03  1.4415996911986263e+03  1.4133330798999989e+03  1.3850664686111488e+03  1.3567998573348423e+03  1.3285332460743145e+03  1.3002666348333873e+03  1.2720000236166154e+03  1.2437334124294571e+03  1.2154668012784743e+03  1.1872001901715805e+03  1.1589335791183396e+03  1.1306669681303206e+03  1.1024003572215338e+03  1.0741337464089543e+03  1.0458671357131695e+03  1.0176005251591470e+03  9.8933391477718055e+02  9.6106730460404651e+02  9.3280069468439751e+02  9.0453408507247343e+02  8.7626747583418842e+02  8.4800086704968487e+02  8.1973425881646040e+02  7.9146765125321053e+02  7.6320104450456040e+02  7.3493443874691275e+02  7.0666783419569424e+02  6.7840123111438038e+02  6.5013462982579642e+02  6.2186803072635200e+02  5.9360143430408277e+02  5.6533484116173599e+02  5.3706825204656275e+02  5.0880166788918774e+02  4.8053508985493932e+02  4.5226851941256939e+02  4.2400195842765862e+02  3.9573540929170883e+02  3.6746887510389570e+02  3.3920235993215550e+02  3.1093586919650915e+02  2.8266941024512488e+02  2.5440299324278695e+02  2.2613663257110684e+02  1.9787034914072828e+02  1.6960417398951694e+02  1.4133815603411952e+02  1.1307236827153127e+02  8.4806939091585505e+01  5.6542509718261478e+01  2.8277085991467377e+01  -4.2735393692980343e-04  9.8065929745917874e+03  9.6557185178209056e+03  9.5041256064958379e+03  9.3524200505111949e+03  9.2008363962745898e+03  9.0493944991810658e+03  8.8980701933022883e+03  8.7468380785015379e+03  8.5956778169732079e+03  8.4445741291425002e+03  8.2935157295868958e+03  8.1424943424642925e+03  7.9915039658114856e+03  7.8405403570781509e+03  7.6896006867957321e+03  7.5386833171321714e+03  7.3877876762710812e+03  7.2369142117929669e+03  7.0860644166659094e+03  6.9352409325985527e+03  6.7844477537845050e+03  6.6336905962775336e+03  6.4829776389588887e+03  6.3323213885165214e+03  6.1817435805172181e+03  6.0312968688294559e+03  5.8811631508931951e+03  5.7317787626479085e+03  5.5834956026657719e+03  5.4325112485234877e+03  3.8987520583603223e+03  3.8716683618411134e+03  3.8432863591483901e+03  3.8151656946325297e+03  3.7870683487477927e+03  3.7589407617733573e+03  3.7307826142919403e+03  3.7026000554874277e+03  3.6743988984576213e+03  3.6461836486544348e+03  3.6179576484826671e+03  3.5897233687370845e+03  3.5614826498245834e+03  3.5332368779839244e+03  3.5049871095993531e+03  3.4767341586231541e+03  3.4484786585128486e+03  3.4202211066320883e+03  3.3919618965049972e+03  3.3637013415650395e+03  3.3354396928715360e+03  3.3071771524901510e+03  3.2789138837145292e+03  3.2506500189563521e+03  3.2223856658927739e+03  3.1941209122960049e+03  3.1658558298553107e+03  3.1375904772208978e+03  3.1093249024414522e+03  3.0810591449253207e+03  3.0527932370247663e+03  3.0245272053201111e+03  2.9962610716636073e+03  2.9679948540300506e+03  2.9397285672113089e+03  2.9114622233843743e+03  2.8831958325766323e+03  2.8549294030473689e+03  2.8266629416009328e+03  2.7983964538439691e+03  2.7701299443968915e+03  2.7418634170677888e+03  2.7135968749955478e+03  2.6853303207676495e+03  2.6570637565171710e+03  2.6287971840026830e+03  2.6005306046740570e+03  2.5722640197267078e+03  2.5439974301462739e+03  2.5157308367454507e+03  2.4874642401943493e+03  2.4591976410455241e+03  2.4309310397545983e+03  2.4026644366972741e+03  2.3743978321833556e+03  2.3461312264683079e+03  2.3178646197627922e+03  2.2895980122405199e+03  2.2613314040447408e+03  2.2330647952935819e+03  2.2047981860844557e+03  2.1765315764976926e+03  2.1482649665995400e+03  2.1199983564446302e+03  2.0917317460780200e+03  2.0634651355368701e+03  2.0351985248518317e+03  2.0069319140481903e+03  1.9786653031468063e+03  1.9503986921648977e+03  1.9221320811166770e+03  1.8938654700138841e+03  1.8655988588662233e+03  1.8373322476817264e+03  1.8090656364670517e+03  1.7807990252277309e+03  1.7525324139683778e+03  1.7242658026928561e+03  1.6959991914044303e+03  1.6677325801058819e+03  1.6394659687996150e+03  1.6111993574877447e+03  1.5829327461721796e+03  1.5546661348546888e+03  1.5263995235369698e+03  1.4981329122207117e+03  1.4698663009076568e+03  1.4415996895996702e+03  1.4133330782988025e+03  1.3850664670073716e+03  1.3567998557280478e+03  1.3285332444639530e+03  1.3002666332187755e+03  1.2720000219969124e+03  1.2437334108036305e+03  1.2154667996452624e+03  1.1872001885294458e+03  1.1589335774654085e+03  1.1306669664643157e+03  1.1024003555396848e+03  1.0741337447078943e+03  1.0458671339888067e+03  1.0176005234065055e+03  9.8933391299021253e+02  9.6106730277539259e+02  9.3280069280510190e+02  9.0453408313162788e+02  8.7626747381849498e+02  8.4800086494291543e+02  8.1973425659878546e+02  7.9146764890036047e+02  7.6320104198677461e+02  7.3493443602761317e+02  7.0666783122979859e+02  6.7840122784613959e+02  6.5013462618599613e+02  6.2186802662865148e+02  5.9360142964016950e+02  5.6533483579482413e+02  5.3706824580254590e+02  5.0880166054440036e+02  4.8053508111893666e+02  4.5226850890343246e+02  4.2400194