<?xml version="1.0"?>
<VTKFile type="UnstructuredGrid"  version="0.1"  >
<UnstructuredGrid>
<Piece  NumberOfPoints="21400" NumberOfCells="42336">
<Points>
<DataArray  type="Float64"  NumberOfComponents="3"  format="ascii">0 0 0  0.004583333333333333 0 0  0.009166666666666667 0 0  0.01375 0 0  0.01833333333333333 0 0  0.02291666666666667 0 0  0.0275 0 0  0.03208333333333334 0 0  0.03666666666666667 0 0  0.04125 0 0  0.04583333333333334 0 0  0.05041666666666667 0 0  0.055 0 0  0.05958333333333334 0 0  0.06416666666666668 0 0  0.06875000000000001 0 0  0.07333333333333333 0 0  0.07791666666666666 0 0  0.08249999999999999 0 0  0.08708333333333333 0 0  0.09166666666666667 0 0  0.09625000000000002 0 0  0.1008333333333333 0 0  0.1054166666666667 0 0  0.11 0 0  0.1145833333333333 0 0  0.1191666666666667 0 0  0.12375 0 0  0.1283333333333334 0 0  0.1329166666666667 0 0  0.1375 0 0  0.1420833333333333 0 0  0.1466666666666667 0 0  0.15125 0 0  0.1558333333333333 0 0  0.1604166666666667 0 0  0.165 0 0  0.1695833333333333 0 0  0.1741666666666667 0 0  0.17875 0 0  0.1833333333333333 0 0  0.1879166666666667 0 0  0.1925 0 0  0.1970833333333333 0 0  0.2016666666666667 0 0  0.20625 0 0  0.2108333333333333 0 0  0.2154166666666666 0 0  0.22 0 0  0.2245833333333334 0 0  0.2291666666666667 0 0  0.23375 0 0  0.2383333333333333 0 0  0.2429166666666667 0 0  0.2475 0 0  0.2520833333333333 0 0  0.2566666666666667 0 0  0.26125 0 0  0.2658333333333334 0 0  0.2704166666666666 0 0  0.275 0 0  0.2795833333333334 0 0  0.2841666666666667 0 0  0.28875 0 0  0.2933333333333333 0 0  0.2979166666666667 0 0  0.3025 0 0  0.3070833333333334 0 0  0.3116666666666666 0 0  0.31625 0 0  0.3208333333333333 0 0  0.3254166666666667 0 0  0.33 0 0  0.3345833333333333 0 0  0.3391666666666667 0 0  0.34375 0 0  0.3483333333333333 0 0  0.3529166666666667 0 0  0.3575 0 0  0.3620833333333333 0 0  0.3666666666666667 0 0  0.37125 0 0  0.3758333333333334 0 0  0.3804166666666667 0 0  0.3850000000000001 0 0  0.3895833333333333 0 0  0.3941666666666667 0 0  0.39875 0 0  0.4033333333333334 0 0  0.4079166666666666 0 0  0.4125 0 0  0.4170833333333334 0 0  0.4216666666666667 0 0  0.42625 0 0  0.4308333333333333 0 0  0.4354166666666667 0 0  0.44 0 0  0.4445833333333333 0 0  0.4491666666666667 0 0  0.45375 0 0  0.4583333333333333 0 0  0.4629166666666666 0 0  0.4675 0 0  0.4720833333333334 0 0  0.4766666666666667 0 0  0.4812500000000001 0 0  0.4858333333333333 0 0  0.4904166666666667 0 0  0.495 0 0  0.4995833333333334 0 0  0.5041666666666667 0 0  0.50875 0 0  0.5133333333333334 0 0  0.5179166666666667 0 0  0.5225 0 0  0.5270833333333333 0 0  0.5316666666666667 0 0  0.53625 0 0  0.5408333333333333 0 0  0.5454166666666667 0 0  0.55 0 0  0.5545833333333333 0 0  0.5591666666666667 0 0  0.5637500000000001 0 0  0.5683333333333334 0 0  0.5729166666666666 0 0  0.5775 0 0  0.5820833333333334 0 0  0.5866666666666667 0 0  0.5912499999999999 0 0  0.5958333333333334 0 0  0.6004166666666667 0 0  0.605 0 0  0.6095833333333334 0 0  0.6141666666666667 0 0  0.61875 0 0  0.6233333333333333 0 0  0.6279166666666667 0 0  0.6325000000000001 0 0  0.6370833333333333 0 0  0.6416666666666666 0 0  0.64625 0 0  0.6508333333333334 0 0  0.6554166666666666 0 0  0.6599999999999999 0 0  0.6645833333333334 0 0  0.6691666666666667 0 0  0.67375 0 0  0.6783333333333333 0 0  0.6829166666666667 0 0  0.6875 0 0  0.6920833333333333 0 0  0.6966666666666667 0 0  0.70125 0 0  0.7058333333333333 0 0  0.7104166666666667 0 0  0.7150000000000001 0 0  0.7195833333333334 0 0  0.7241666666666666 0 0  0.72875 0 0  0.7333333333333334 0 0  0.7379166666666667 0 0  0.7425 0 0  0.7470833333333333 0 0  0.7516666666666667 0 0  0.75625 0 0  0.7608333333333334 0 0  0.7654166666666666 0 0  0.7700000000000001 0 0  0 0.002380952380952381 0  0.004583333333333333 0.002380952380952381 0  0.009166666666666667 0.002380952380952381 0  0.01375 0.002380952380952381 0  0.01833333333333333 0.002380952380952381 0  0.02291666666666667 0.002380952380952381 0  0.0275 0.002380952380952381 0  0.03208333333333334 0.002380952380952381 0  0.03666666666666667 0.002380952380952381 0  0.04125 0.002380952380952381 0  0.04583333333333334 0.002380952380952381 0  0.05041666666666667 0.002380952380952381 0  0.055 0.002380952380952381 0  0.05958333333333334 0.002380952380952381 0  0.06416666666666668 0.002380952380952381 0  0.06875000000000001 0.002380952380952381 0  0.07333333333333333 0.002380952380952381 0  0.07791666666666666 0.002380952380952381 0  0.08249999999999999 0.002380952380952381 0  0.08708333333333333 0.002380952380952381 0  0.09166666666666667 0.002380952380952381 0  0.09625000000000002 0.002380952380952381 0  0.1008333333333333 0.002380952380952381 0  0.1054166666666667 0.002380952380952381 0  0.11 0.002380952380952381 0  0.1145833333333333 0.002380952380952381 0  0.1191666666666667 0.002380952380952381 0  0.12375 0.002380952380952381 0  0.1283333333333334 0.002380952380952381 0  0.1329166666666667 0.002380952380952381 0  0.1375 0.002380952380952381 0  0.1420833333333333 0.002380952380952381 0  0.1466666666666667 0.002380952380952381 0  0.15125 0.002380952380952381 0  0.1558333333333333 0.002380952380952381 0  0.1604166666666667 0.002380952380952381 0  0.165 0.002380952380952381 0  0.1695833333333333 0.002380952380952381 0  0.1741666666666667 0.002380952380952381 0  0.17875 0.002380952380952381 0  0.1833333333333333 0.002380952380952381 0  0.1879166666666667 0.002380952380952381 0  0.1925 0.002380952380952381 0  0.1970833333333333 0.002380952380952381 0  0.2016666666666667 0.002380952380952381 0  0.20625 0.002380952380952381 0  0.2108333333333333 0.002380952380952381 0  0.2154166666666666 0.002380952380952381 0  0.22 0.002380952380952381 0  0.2245833333333334 0.002380952380952381 0  0.2291666666666667 0.002380952380952381 0  0.23375 0.002380952380952381 0  0.2383333333333333 0.002380952380952381 0  0.2429166666666667 0.002380952380952381 0  0.2475 0.002380952380952381 0  0.2520833333333333 0.002380952380952381 0  0.2566666666666667 0.002380952380952381 0  0.26125 0.002380952380952381 0  0.2658333333333334 0.002380952380952381 0  0.2704166666666666 0.002380952380952381 0  0.275 0.002380952380952381 0  0.2795833333333334 0.002380952380952381 0  0.2841666666666667 0.002380952380952381 0  0.28875 0.002380952380952381 0  0.2933333333333333 0.002380952380952381 0  0.2979166666666667 0.002380952380952381 0  0.3025 0.002380952380952381 0  0.3070833333333334 0.002380952380952381 0  0.3116666666666666 0.002380952380952381 0  0.31625 0.002380952380952381 0  0.3208333333333333 0.002380952380952381 0  0.3254166666666667 0.002380952380952381 0  0.33 0.002380952380952381 0  0.3345833333333333 0.002380952380952381 0  0.3391666666666667 0.002380952380952381 0  0.34375 0.002380952380952381 0  0.3483333333333333 0.002380952380952381 0  0.3529166666666667 0.002380952380952381 0  0.3575 0.002380952380952381 0  0.3620833333333333 0.002380952380952381 0  0.3666666666666667 0.002380952380952381 0  0.37125 0.002380952380952381 0  0.3758333333333334 0.002380952380952381 0  0.3804166666666667 0.002380952380952381 0  0.3850000000000001 0.002380952380952381 0  0.3895833333333333 0.002380952380952381 0  0.3941666666666667 0.002380952380952381 0  0.39875 0.002380952380952381 0  0.4033333333333334 0.002380952380952381 0  0.4079166666666666 0.002380952380952381 0  0.4125 0.002380952380952381 0  0.4170833333333334 0.002380952380952381 0  0.4216666666666667 0.002380952380952381 0  0.42625 0.002380952380952381 0  0.4308333333333333 0.002380952380952381 0  0.4354166666666667 0.002380952380952381 0  0.44 0.002380952380952381 0  0.4445833333333333 0.002380952380952381 0  0.4491666666666667 0.002380952380952381 0  0.45375 0.002380952380952381 0  0.4583333333333333 0.002380952380952381 0  0.4629166666666666 0.002380952380952381 0  0.4675 0.002380952380952381 0  0.4720833333333334 0.002380952380952381 0  0.4766666666666667 0.002380952380952381 0  0.4812500000000001 0.002380952380952381 0  0.4858333333333333 0.002380952380952381 0  0.4904166666666667 0.002380952380952381 0  0.495 0.002380952380952381 0  0.4995833333333334 0.002380952380952381 0  0.5041666666666667 0.002380952380952381 0  0.50875 0.002380952380952381 0  0.5133333333333334 0.002380952380952381 0  0.5179166666666667 0.002380952380952381 0  0.5225 0.002380952380952381 0  0.5270833333333333 0.002380952380952381 0  0.5316666666666667 0.002380952380952381 0  0.53625 0.002380952380952381 0  0.5408333333333333 0.002380952380952381 0  0.5454166666666667 0.002380952380952381 0  0.55 0.002380952380952381 0  0.5545833333333333 0.002380952380952381 0  0.5591666666666667 0.002380952380952381 0  0.5637500000000001 0.002380952380952381 0  0.5683333333333334 0.002380952380952381 0  0.5729166666666666 0.002380952380952381 0  0.5775 0.002380952380952381 0  0.5820833333333334 0.002380952380952381 0  0.5866666666666667 0.002380952380952381 0  0.5912499999999999 0.002380952380952381 0  0.5958333333333334 0.002380952380952381 0  0.6004166666666667 0.002380952380952381 0  0.605 0.002380952380952381 0  0.6095833333333334 0.002380952380952381 0  0.6141666666666667 0.002380952380952381 0  0.61875 0.002380952380952381 0  0.6233333333333333 0.002380952380952381 0  0.6279166666666667 0.002380952380952381 0  0.6325000000000001 0.002380952380952381 0  0.6370833333333333 0.002380952380952381 0  0.6416666666666666 0.002380952380952381 0  0.64625 0.002380952380952381 0  0.6508333333333334 0.002380952380952381 0  0.6554166666666666 0.002380952380952381 0  0.6599999999999999 0.002380952380952381 0  0.6645833333333334 0.002380952380952381 0  0.6691666666666667 0.002380952380952381 0  0.67375 0.002380952380952381 0  0.6783333333333333 0.002380952380952381 0  0.6829166666666667 0.002380952380952381 0  0.6875 0.002380952380952381 0  0.6920833333333333 0.002380952380952381 0  0.6966666666666667 0.002380952380952381 0  0.70125 0.002380952380952381 0  0.7058333333333333 0.002380952380952381 0  0.7104166666666667 0.002380952380952381 0  0.7150000000000001 0.002380952380952381 
[...]
<PointData  Scalars="pressure"> 
<DataArray  type="Float64"  Name="pressure"  format="ascii">7.8053652295982538e+03  7.6429517003857118e+03  7.4891920022074410e+03  7.3366787695929388e+03  7.1848633000771970e+03  7.0334153225893151e+03  6.8822062170148984e+03  6.7310729546746788e+03  6.5802164414340405e+03  6.4224104663548487e+03  4.5722407473293824e+03  4.4726048883021767e+03  4.4162741198910071e+03  4.3782958865606197e+03  4.3513022826737260e+03  4.3237219747839417e+03  4.2957563176304966e+03  4.2676907770605258e+03  4.2395605076149732e+03  4.2113918827937623e+03  4.1831976993125754e+03  4.1549858354128646e+03  4.1267613040313718e+03  4.0985274649471194e+03  4.0702866464354188e+03  4.0420405076310362e+03  4.0137902581157787e+03  3.9855367968254945e+03  3.9572808027911906e+03  3.9290227960869015e+03  3.9007631797647623e+03  3.8725022693327578e+03  3.8442403138778941e+03  3.8159775114677013e+03  3.7877140205575147e+03  3.7594499685598676e+03  3.7311854583642885e+03  3.7029205733542904e+03  3.6746553813068385e+03  3.6463899374501016e+03  3.6181242868796498e+03  3.5898584664805094e+03  3.5615925064648377e+03  3.5333264316081913e+03  3.5050602622475690e+03  3.4767940150900058e+03  3.4485277038695876e+03  3.4202613398826743e+03  3.3919949324247814e+03  3.3637284891478303e+03  3.3354620163527138e+03  3.3071955192291407e+03  3.2789290020524959e+03  3.2506624683455384e+03  3.2223959210112994e+03  3.1941293624423897e+03  3.1658627946109327e+03  3.1375962191425938e+03  3.1093296373775315e+03  3.0810630504205983e+03  3.0527964591826985e+03  3.0245298644148634e+03  2.9962632667363268e+03  2.9679966666576652e+03  2.9397300645998776e+03  2.9114634609101026e+03  2.8831968558745830e+03  2.8549302497293511e+03  2.8266636426690347e+03  2.7983970348541266e+03  2.7701304264169676e+03  2.7418638174666903e+03  2.7135972080932834e+03  2.6853305983709547e+03  2.6570639883608987e+03  2.6287973781135761e+03  2.6005307676705966e+03  2.5722641570662763e+03  2.5439975463289111e+03  2.5157309354818349e+03  2.4874643245442908e+03  2.4591977135321454e+03  2.4309311024584854e+03  2.4026644913341033e+03  2.3743978801678991e+03  2.3461312689672095e+03  2.3178646577380928e+03  2.2895980464855402e+03  2.2613314352136717e+03  2.2330648239258876e+03  2.2047982126249922e+03  2.1765316013133020e+03  2.1482649899927333e+03  2.1199983786648663e+03  2.0917317673310145e+03  2.0634651559922631e+03  2.0351985446495180e+03  2.0069319333035355e+03  1.9786653219549498e+03  1.9503987106042987e+03  1.9221320992520439e+03  1.8938654878985865e+03  1.8655988765442821e+03  1.8373322651894566e+03  1.8090656538344149e+03  1.7807990424794534e+03  1.7525324311248733e+03  1.7242658197709891e+03  1.6959992084181408e+03  1.6677325970667068e+03  1.6394659857171200e+03  1.6111993743698802e+03  1.5829327630255752e+03  1.5546661516849042e+03  1.5263995403486995e+03  1.4981329290179597e+03  1.4698663176938885e+03  1.4415997063779398e+03  1.4133330950718685e+03  1.3850664837777963e+03  1.3567998724982963e+03  1.3285332612364843e+03  1.3002666499961344e+03  1.2720000387818247e+03  1.2437334275991047e+03  1.2154668164547038e+03  1.1872002053567817e+03  1.1589335943152398e+03  1.1306669833420867e+03  1.1024003724518925e+03  1.0741337616623346e+03  1.0458671509948706e+03  1.0176005404755398e+03  9.8933393013595776e+02  9.6106732001451826e+02  9.3280071015785791e+02  9.0453410062264845e+02  8.7626749147778764e+02  8.4800088280708246e+02  8.1973427471254263e+02  7.9146766731843059e+02  7.6320106077626519e+02  7.3493445527101983e+02  7.0666785102882295e+02  6.7840124832659433e+02  6.5013464750415790e+02  6.2186804897958245e+02  5.9360145326875113e+02  5.6533486101059054e+02  5.3706827299991164e+02  5.0880169023070960e+02  4.8053511395404610e+02  4.5226854575666044e+02  4.2400198766965019e+02  3.9573544232173316e+02  3.6746891316028479e+02  3.3920240477822733e+02  3.1093592341121894e+02  2.8266947771916682e+02  2.5440308005429364e+02  2.2613674865651663e+02  1.9787051121839181e+02  1.6960441452086980e+02  1.4133851893128539e+02  1.1307309740122871e+02  8.4807248966236074e+01  5.6551537994368722e+01  2.8205951008081797e+01  7.9925960190640777e-01  7.7970783420322205e+03  7.6429967017379258e+03  7.4890036998858559e+03  7.3366220878890672e+03  7.1848242819987363e+03  7.0333913986463886e+03  6.8821888643069851e+03  6.7311388101949478e+03  6.5797332867522309e+03  6.4283743110291834e+03  6.2815151229238245e+03  6.1433808596088820e+03  6.0571137350632798e+03  4.3774858992365562e+03  4.3515381822114950e+03  4.3237248302748631e+03  4.2957702589177297e+03  4.2676968509117305e+03  4.2395645658761787e+03  4.2113945601014202e+03  4.1831995695728592e+03  4.1549871805988168e+03  4.1267622964502798e+03  4.0985282119726708e+03  4.0702872182060560e+03  4.0420409514178818e+03  4.0137906066690562e+03  3.9855370733730624e+03  3.9572810241480347e+03  3.9290229746463810e+03  3.9007633248069710e+03  3.8725023879039077e+03  3.8442404113936345e+03  3.8159775921348969e+03  3.7877140876742887e+03  3.7594500247325177e+03  3.7311855056664785e+03  3.7029206134455067e+03  3.6746554155216745e+03  3.6463899668663444e+03  3.6181243123707591e+03  3.5898584887564257e+03  3.5615925261040279e+03  3.5333264490829574e+03  3.5050602779441974e+03  3.4767940293248776e+03  3.4485277169021369e+03  3.4202613519258466e+03  3.3919949436535026e+03  3.3637284997058978e+03  3.3354620263583947e+03  3.3071955287797514e+03  3.2789290112281442e+03  3.2506624772121868e+03  3.2223959296232774e+03  3.1941293708444537e+03  3.1658628028399598e+03  3.1375962272289730e+03  3.1093296453463076e+03  3.0810630582924168e+03  3.0527964669745766e+03  3.0245298721408294e+03  2.9962632744079460e+03  2.9679966742844736e+03  2.9397300721897368e+03  2.9114634684694934e+03  2.8831968634088503e+03  2.8549302572429010e+03  2.8266636501655025e+03  2.7983970423365072e+03  2.7701304338877330e+03  2.7418638249278761e+03  2.7135972155465706e+03  2.6853306058177295e+03  2.6570639958023025e+03  2.6287973855505506e+03  2.6005307751039190e+03  2.5722641644965861e+03  2.5439975537567379e+03  2.5157309429076131e+03  2.4874643319683796e+03  2.4591977209548422e+03  2.4309311098800335e+03  2.4026644987547038e+03  2.3743978875877169e+03  2.3461312763863843e+03  2.3178646651567365e+03  2.2895980539037455e+03  2.2613314426315146e+03  2.2330648313434317e+03  2.2047982200422894e+03  2.1765316087303963e+03  2.1482649974096580e+03  2.1199983860816524e+03  2.0917317747476850e+03  2.0634651634088368e+03  2.0351985520660114e+03  2.0069319407199612e+03  1.9786653293713173e+03  1.9503987180206182e+03  1.9221321066683204e+03  1.8938654953148250e+03  1.8655988839604861e+03  1.8373322726056272e+03  1.8090656612505538e+03  1.7807990498955598e+03  1.7525324385409465e+03  1.7242658271870255e+03  1.6959992158341363e+03  1.6677326044826559e+03  1.6394659931330157e+03  1.6111993817857119e+03  1.5829327704413322e+03  1.5546661591005711e+03  1.5263995477642582e+03  1.4981329364333885e+03  1.4698663251091612e+03  1.4415997137930235e+03  1.4133331024867223e+03  1.3850664911923730e+03  1.3567998799125369e+03  1.3285332686503180e+03  1.3002666574094744e+03  1.2720000461945660e+03  1.2437334350111207e+03  1.2154668238658392e+03  1.1872002127668497e+03  1.1589336017240123e+03  1.1306669907492881e+03  1.1024003798571873e+03  1.0741337690653158e+03  1.0458671583950431e+03  1.0176005478723029e+03  9.8933393752858103e+02  9.6106732740211214e+02  9.3280071753934089e+02  9.0453410799670269e+02  8.7626749884280605e+02  8.4800089016110326e+02  8.1973428205316770e+02  7.9146767464272261e+02  7.6320106808062144e+02  7.3493446255100753e+02  7.0666785827897434e+02  6.7840125554014037e+02  6.5013465467268190e+02  6.2186805609256794e+02  5.9360146031298007e+02  5.6533486796932823e+02  5.3706827985179643e+02  5.0880169694820444e+02  4.8053512050124181e+02  4.5226855208610317e+02  4.2400199371764592e+02  3.9573544800124330e+02  3.6746891834988043e+02  3.3920240930439371e+02  3.1093592701918584e+02  2.8266948002191441e+02  2.5440308044869670e+02  2.2613674610333112e+02  1.9787050432710430e+02  1.6960439735359938e+02  1.4133850851384841e+02  1.1307288684607401e+02  8.4808461689274139e+01  5.6540124276308070e+01  2.8309264635302259e+01  -4.3494475678425189e-02  7.7933935506313301e+03  7.6414803480751598e+03  7.4886078740655948e+03  7.3364034281640852e+03  7.1846941763958057e+03  7.0333043706940898e+03  6.8821434611385212e+03  6.7311306681080496e+03  6.5801824452629107e+03  6.4300467939366408e+03  6.2831565142874852e+03  6.1359113827201627e+03  4.4091166928500161e+03  4.3796909578877157e+03  4.3516325070012690e+03  4.3238153957999593e+03  4.2958062831992693e+03  4.2677187241284610e+03  4.2395782405753971e+03  4.2114037494865815e+03  4.1832059855125235e+03  4.1549918007914603e+03  4.1267657032978686e+03  4.0985307726277142e+03  4.0702891730792280e+03  4.0420424630632065e+03  4.0137917879791908e+03  3.9855380045839183e+03  3.9572817634473399e+03  3.9290235649872952e+03  3.9007637983957675e+03  3.8725027692226918e+03  3.8442407192780602e+03  3.8159778412291703e+03  3.7877142894678336e+03  3.7594501883104890e+03  3.7311856382612727e+03  3.7029207208476473e+03  3.6746555023898372e+03  3.6463900369640046e+03  3.6181243687487249e+03  3.5898585338949674e+03  3.5615925620244602e+03  3.5333264774359054e+03  3.5050603000798446e+03  3.4767940463491946e+03  3.4485277297221105e+03  3.4202613612859891e+03  3.3919949501654519e+03  3.3637285038724585e+03  3.3354620285931287e+03  3.3071955294229715e+03  3.2789290105599948e+03  3.2506624754633476e+03  3.2223959269837474e+03  3.1941293674707590e+03  3.1658627988610715e+03  3.1375962227511764e+03  3.1093296404571970e+03  3.0810630530641952e+03  3.0527964614667594e+03  3.0245298664024831e+03  2.9962632684795194e+03  2.9679966681993160e+03  2.9397300659753446e+03  2.9114634621485366e+03  2.8831968570000236e+03  2.8549302507616153e+03  2.8266636436244685e+03  2.7983970357462031e+03  2.7701304272568013e+03  2.7418638182634427e+03  2.7135972088545109e+03  2.6853305991028878e+03  2.6570639890686757e+03  2.6287973788014306e+03  2.6005307683420256e+03  2.5722641577241598e+03  2.5439975469756223e+03  2.5157309361193352e+03  2.4874643251741936e+03  2.4591977141557841e+03  2.4309311030769582e+03  2.4026644919483156e+03  2.3743978807785961e+03  2.3461312695750098e+03  2.3178646583435025e+03  2.2895980470889772e+03  2.2613314358154812e+03  2.2330648245263542e+03  2.2047982132243496e+03  2.1765316019117436e+03  2.1482649905904163e+03  2.1199983792619228e+03  2.0917317679275507e+03  2.0634651565883655e+03  2.0351985452452584e+03  2.0069319338989715e+03  1.9786653225501277e+03  1.9503987111992562e+03  1.9221320998468098e+03  1.8938654884931807e+03  1.8655988771387213e+03  1.8373322657837484e+03  1.8090656544285646e+03  1.7807990430734587e+03  1.7525324317187276e+03  1.7242658203646799e+03  1.6959992090116491e+03  1.6677325976600073e+03  1.6394659863101799e+03  1.6111993749626567e+03  1.5829327636180162e+03  1.5546661522769441e+03  1.5263995409402580e+03  1.4981329296089384e+03  1.4698663182841688e+03  1.4415997069673749e+03  1.4133330956602802e+03  1.3850664843649704e+03  1.3567998730839706e+03  1.3285332618203413e+03  1.3002666505777879e+03  1.2720000393608066e+03  1.2437334281748465e+03  1.2154668170265161e+03  1.1872002059238282e+03  1.1589335948765042e+03  1.1306669838963371e+03  1.1024003729976325e+03  1.0741337621977459e+03  1.0458671515177457e+03  1.0176005409831956e+03  9.8933393062513267e+02  9.6106732048124445e+02  9.3280071059730687e+02  9.0453410102893781e+02  8.7626749184374466e+02  8.4800088312395189e+02  8.1973427496962177e+02  7.9146766750261463e+02  7.6320106087147599e+02  7.3493445525748098e+02  7.0666785088214112e+02  6.7840124801657339e+02  6.5013464699326209e+02  6.2186804822091926e+02  5.9360145220339155e+02  5.6533485956395384e+02  5.3706827107682557e+02  5.0880168770853561e+02  4.8053511067294136e+02  4.5226854150550844e+02  4.2400198216528366e+02  3.9573543517751989e+02  3.6746890383736439e+02  3.3920239250757953e+02  3.1093590706503937e+02  2.8266945559020400e+02  2.5440304946476391e+02  2.2613670520046549e+02  1.9787044748193620e+02  1.6960431552346796e+02  1.4133836852468841e+02  1.1307274709566521e+02  8.4807457144472608e+01  5.6544055777371497e+01  2.8285121436974919e+01  5.6319887885714088e-03  7.7911954572963496e+03  7.6400251025105108e+03  7.4879703292004824e+03  7.3360646396749280e+03  7.1844795365583796e+03  7.0331574305808790e+03  6.8820500617288699e+03  6.7311339549044160e+03  6.5805143451189542e+03  6.4308253051320653e+03  6.2830036860509308e+03  6.1331482898019858e+03  4.4083483507408400e+03  4.3803575308964882e+03  4.3519429509328002e+03  4.3239232009142406e+03  4.2958663316664524e+03  4.2677538294940323e+03  4.2396008588957257e+03  4.2114190433671965e+03  4.1832167308307617e+03  4.1549995684910136e+03  4.1267714474327631e+03  4.0985350990294946e+03  4.0702924810259783e+03  4.0420450237930545e+03  4.0137937905742810e+03  3.9855395838413597e+03  3.9572830173719867e+03  3.9290245660796550e+03  3.9007646011154907e+03  3.8725034150321312e+03  3.8442412401188431e+03  3.8159782619628490e+03  3.7877146296186042e+03  3.7594504633293554e+03  3.7311858604566341e+03  3.7029209000796995e+03  3.6746556465952613e+03  3.6463901525569613e+03  3.6181244609305149e+03  3.5898586068953664e+03  3.5615926192913662e+03  3.5333265217854432e+03  3.5050603338159262e+03  3.4767940713592734e+03  3.4485277475542152e+03  3.4202613732109667e+03  3.3919949572274077e+03  3.3637285069297700e+03  3.3354620283518580e+03  3.3071955264641497e+03  3.2789290053619343e+03  3.2506624684199251e+03  3.2223959184193864e+03  3.1941293576527310e+03  3.1658627880096028e+03  3.1375962110477517e+03  3.1093296280513960e+03  3.0810630400793079e+03  3.0527964480044220e+03  3.0245298525464782e+03  2.9962632542989213e+03  2.9679966537510736e+03  2.9397300513064106e+03  2.9114634472976277e+03  2.8831968419990585e+03  2.8549302356369162e+03  2.8266636283977355e+03  2.7983970204353345e+03  2.7701304118765547e+03  2.7418638028259843e+03  2.7135971933698747e+03  2.6853305835793494e+03  2.6570639735130553e+03  2.6287973632193575e+03  2.6005307527381365e+03  2.5722641421022809e+03  2.5439975313389095e+03  2.5157309204703884e+03  2.4874643095151591e+03  2.4591976984884300e+03  2.4309310874027442e+03  2.4026644762684432e+03  2.3743978650940567e+03  2.3461312538866227e+03  2.3178646426519394e+03  2.2895980313947957e+03  2.2613314201191388e+03  2.2330648088282273e+03  2.2047981975247503e+03  2.1765315862109278e+03  2.1482649748885942e+03  2.1199983635592666e+03  2.0917317522242024e+03  2.0634651408844434e+03  2.0351985295408554e+03  2.0069319181941642e+03  1.9786653068449784e+03  1.9503986954938136e+03  1.9221320841411118e+03  1.8938654727872572e+03  1.8655988614325904e+03  1.8373322500774243e+03  1.8090656387220506e+03  1.7807990273667540e+03  1.7525324160118228e+03  1.7242658046575582e+03  1.6959991933042861e+03  1.6677325819523694e+03  1.6394659706022228e+03  1.6111993592543249e+03  1.5829327479092399e+03  1.5546661365676375e+03  1.5263995252303143e+03  1.4981329138982285e+03  1.4698663025725336e+03  1.4415996912546218e+03  1.4133330799461746e+03  1.3850664686492266e+03  1.3567998573662423e+03  1.3285332461002079e+03  1.3002666348547400e+03  1.2720000236342232e+03  1.2437334124439769e+03  1.2154668012904481e+03  1.1872001901814544e+03  1.1589335791264814e+03  1.1306669681370347e+03  1.1024003572270701e+03  1.0741337464135199e+03  1.0458671357169346e+03  1.0176005251622512e+03  9.8933391477974055e+02  9.6106730460615734e+02  9.3280069468613829e+02  9.0453408507390895e+02  8.7626747583537258e+02  8.4800086705066110e+02  8.1973425881726541e+02  7.9146765125387469e+02  7.6320104450510792e+02  7.3493443874736397e+02  7.0666783419606634e+02  6.7840123111468711e+02  6.5013462982604938e+02  6.2186803072656028e+02  5.9360143430425467e+02  5.6533484116187799e+02  5.3706825204667973e+02  5.0880166788928432e+02  4.8053508985501861e+02  4.5226851941263510e+02  4.2400195842771251e+02  3.9573540929175311e+02  3.6746887510393219e+02  3.3920235993218546e+02  3.1093586919653393e+02  2.8266941024514517e+02  2.5440299324280338e+02  2.2613663257112026e+02  1.9787034914073914e+02  1.6960417398952558e+02  1.4133815603412623e+02  1.1307236827153640e+02  8.4806939091589186e+01  5.6542509718263872e+01  2.8277085991468550e+01  -4.2735393692979015e-04  7.7896448882938384e+03  7.6387858483177988e+03  7.4872466385675252e+03  7.3356362192380620e+03  7.1841950376483719e+03  7.0329533508214245e+03  6.8819067357516706e+03  6.7310805030350384e+03  6.5806342838792352e+03  6.4309874496566781e+03  6.2824784922150657e+03  6.1312873892372281e+03  4.4077115026034944e+03  4.3806003115675130e+03  4.3521939182809456e+03  4.3240537401240863e+03  4.2959404980013651e+03  4.2677999044537992e+03  4.2396310917389801e+03  4.2114397771813083e+03  4.1832314258554534e+03  4.1550102608549978e+03  4.1267793945941876e+03  4.0985411100737474e+03  4.0702970940801001e+03  4.0420486070052098e+03  4.0137966020184208e+03  3.9855418083379245e+03  3.9572847898041314e+03  3.9290259865464664e+03  3.9007657450099528e+03  3.8725043398851130e+03  3.8442419903368063e+03  3.8159788721662317e+03  3.7877151270333916e+03  3.7594508695270183e+03  3.7311861926383021e+03  3.7029211720366479e+03  3.6746558694361756e+03  3.6463903352647885e+03  3.6181246107931802e+03  3.5898587298419411e+03  3.5615927201565701e+03  3.5333266045192249e+03  3.5050604016505567e+03  3.4767941269432590e+03  3.4485277930601296e+03  3.4202614104226086e+03  3.3919949876104788e+03  3.3637285316893563e+03  3.3354620484792827e+03  3.3071955427752396e+03  3.2789290185283285e+03  3.2506624789947155e+03  3.2223959268581552e+03  3.1941293643308150e+03  3.1658627932362783e+03  3.1375962150778932e+03  3.1093296310950741e+03  3.0810630423096768e+03  3.0527964495642204e+03  3.0245298535533757e+03  2.9962632548499309e+03  2.9679966539261782e+03  2.9397300511715557e+03  2.9114634469071866e+03  2.8831968413978634e+03  2.8549302348619344e+03  2.8266636274794500e+03  2.7983970193988798e+03  2.7701304107426554e+03  2.7418638016117311e+03  2.7135971920893612e+03  2.6853305822441948e+03  2.6570639721328434e+03  2.6287973618019905e+03  2.6005307512901300e+03  2.5722641406290072e+03  2.5439975298448012e+03  2.5157309189590983e+03  2.4874643079896996e+03  2.4591976969512862e+03  2.4309310858559634e+03  2.4026644747137166e+03  2.3743978635327767e+03  2.3461312523199358e+03  2.3178646410807946e+03  2.2895980298199711e+03  2.2613314185412792e+03  2.2330648072478625e+03  2.2047981959423169e+03  2.1765315846267854e+03  2.1482649733030380e+03  2.1199983619725408e+03  2.0917317506365052e+03  2.0634651392959377e+03  2.0351985279516748e+03  2.0069319166044170e+03  1.9786653052547504e+03  1.9503986939031740e+03  1.9221320825501143e+03  1.8938654711959407e+03  1.8655988598409842e+03  1.8373322484855455e+03  1.8090656371299060e+03  1.7807990257743413e+03  1.7525324144191293e+03  1.7242658030645600e+03  1.6959991917109489e+03  1.6677325803586466e+03  1.6394659690080528e+03  1.6111993576596290e+03  1.5829327463139207e+03  1.5546661349715725e+03  1.5263995236333558e+03  1.4981329123001940e+03  1.4698663009732006e+03  1.4415996896537192e+03  1.4133330783433735e+03  1.3850664670441265e+03  1.3567998557583569e+03  1.3285332444889470e+03  1.3002666332393867e+03  1.2720000220139088e+03  1.2437334108176460e+03  1.2154667996568201e+03  1.1872001885389764e+03  1.1589335774732681e+03  1.1306669664707963e+03  1.1024003555450288e+03  1.0741337447123012e+03  1.0458671339924406e+03  1.0176005234095022e+03  9.8933391299268351e+02  9.6106730277743009e+02  9.3280069280678208e+02  9.0453408313301350e+02  8.7626747381963787e+02  8.4800086494385778e+02  8.1973425659956263e+02  7.9146764890100110e+02  7.6320104198730303e+02  7.3493443602804871e+02  7.0666783123015762e+02  6.7840122784643586e+02  6.5013462618624033e+02  6.2186802662885282e+02  5.9360142964033548e+02  5.6533483579496124e+02  5.3706824580265879e+02  5.0880166054449347e+02  4.8053508111901351e+02  4.5226850890349584e+02  4.2400194