<?xml version="1.0"?>
<VTKFile type="UnstructuredGrid"  version="0.1"  >
<UnstructuredGrid>
<Piece  NumberOfPoints="21400" NumberOfCells="42336">
<Points>
<DataArray  type="Float64"  NumberOfComponents="3"  format="ascii">0 0 0  0.004583333333333333 0 0  0.009166666666666667 0 0  0.01375 0 0  0.01833333333333333 0 0  0.02291666666666667 0 0  0.0275 0 0  0.03208333333333334 0 0  0.03666666666666667 0 0  0.04125 0 0  0.04583333333333334 0 0  0.05041666666666667 0 0  0.055 0 0  0.05958333333333334 0 0  0.06416666666666668 0 0  0.06875000000000001 0 0  0.07333333333333333 0 0  0.07791666666666666 0 0  0.08249999999999999 0 0  0.08708333333333333 0 0  0.09166666666666667 0 0  0.09625000000000002 0 0  0.1008333333333333 0 0  0.1054166666666667 0 0  0.11 0 0  0.1145833333333333 0 0  0.1191666666666667 0 0  0.12375 0 0  0.1283333333333334 0 0  0.1329166666666667 0 0  0.1375 0 0  0.1420833333333333 0 0  0.1466666666666667 0 0  0.15125 0 0  0.1558333333333333 0 0  0.1604166666666667 0 0  0.165 0 0  0.1695833333333333 0 0  0.1741666666666667 0 0  0.17875 0 0  0.1833333333333333 0 0  0.1879166666666667 0 0  0.1925 0 0  0.1970833333333333 0 0  0.2016666666666667 0 0  0.20625 0 0  0.2108333333333333 0 0  0.2154166666666666 0 0  0.22 0 0  0.2245833333333334 0 0  0.2291666666666667 0 0  0.23375 0 0  0.2383333333333333 0 0  0.2429166666666667 0 0  0.2475 0 0  0.2520833333333333 0 0  0.2566666666666667 0 0  0.26125 0 0  0.2658333333333334 0 0  0.2704166666666666 0 0  0.275 0 0  0.2795833333333334 0 0  0.2841666666666667 0 0  0.28875 0 0  0.2933333333333333 0 0  0.2979166666666667 0 0  0.3025 0 0  0.3070833333333334 0 0  0.3116666666666666 0 0  0.31625 0 0  0.3208333333333333 0 0  0.3254166666666667 0 0  0.33 0 0  0.3345833333333333 0 0  0.3391666666666667 0 0  0.34375 0 0  0.3483333333333333 0 0  0.3529166666666667 0 0  0.3575 0 0  0.3620833333333333 0 0  0.3666666666666667 0 0  0.37125 0 0  0.3758333333333334 0 0  0.3804166666666667 0 0  0.3850000000000001 0 0  0.3895833333333333 0 0  0.3941666666666667 0 0  0.39875 0 0  0.4033333333333334 0 0  0.4079166666666666 0 0  0.4125 0 0  0.4170833333333334 0 0  0.4216666666666667 0 0  0.42625 0 0  0.4308333333333333 0 0  0.4354166666666667 0 0  0.44 0 0  0.4445833333333333 0 0  0.4491666666666667 0 0  0.45375 0 0  0.4583333333333333 0 0  0.4629166666666666 0 0  0.4675 0 0  0.4720833333333334 0 0  0.4766666666666667 0 0  0.4812500000000001 0 0  0.4858333333333333 0 0  0.4904166666666667 0 0  0.495 0 0  0.4995833333333334 0 0  0.5041666666666667 0 0  0.50875 0 0  0.5133333333333334 0 0  0.5179166666666667 0 0  0.5225 0 0  0.5270833333333333 0 0  0.5316666666666667 0 0  0.53625 0 0  0.5408333333333333 0 0  0.5454166666666667 0 0  0.55 0 0  0.5545833333333333 0 0  0.5591666666666667 0 0  0.5637500000000001 0 0  0.5683333333333334 0 0  0.5729166666666666 0 0  0.5775 0 0  0.5820833333333334 0 0  0.5866666666666667 0 0  0.5912499999999999 0 0  0.5958333333333334 0 0  0.6004166666666667 0 0  0.605 0 0  0.6095833333333334 0 0  0.6141666666666667 0 0  0.61875 0 0  0.6233333333333333 0 0  0.6279166666666667 0 0  0.6325000000000001 0 0  0.6370833333333333 0 0  0.6416666666666666 0 0  0.64625 0 0  0.6508333333333334 0 0  0.6554166666666666 0 0  0.6599999999999999 0 0  0.6645833333333334 0 0  0.6691666666666667 0 0  0.67375 0 0  0.6783333333333333 0 0  0.6829166666666667 0 0  0.6875 0 0  0.6920833333333333 0 0  0.6966666666666667 0 0  0.70125 0 0  0.7058333333333333 0 0  0.7104166666666667 0 0  0.7150000000000001 0 0  0.7195833333333334 0 0  0.7241666666666666 0 0  0.72875 0 0  0.7333333333333334 0 0  0.7379166666666667 0 0  0.7425 0 0  0.7470833333333333 0 0  0.7516666666666667 0 0  0.75625 0 0  0.7608333333333334 0 0  0.7654166666666666 0 0  0.7700000000000001 0 0  0 0.002380952380952381 0  0.004583333333333333 0.002380952380952381 0  0.009166666666666667 0.002380952380952381 0  0.01375 0.002380952380952381 0  0.01833333333333333 0.002380952380952381 0  0.02291666666666667 0.002380952380952381 0  0.0275 0.002380952380952381 0  0.03208333333333334 0.002380952380952381 0  0.03666666666666667 0.002380952380952381 0  0.04125 0.002380952380952381 0  0.04583333333333334 0.002380952380952381 0  0.05041666666666667 0.002380952380952381 0  0.055 0.002380952380952381 0  0.05958333333333334 0.002380952380952381 0  0.06416666666666668 0.002380952380952381 0  0.06875000000000001 0.002380952380952381 0  0.07333333333333333 0.002380952380952381 0  0.07791666666666666 0.002380952380952381 0  0.08249999999999999 0.002380952380952381 0  0.08708333333333333 0.002380952380952381 0  0.09166666666666667 0.002380952380952381 0  0.09625000000000002 0.002380952380952381 0  0.1008333333333333 0.002380952380952381 0  0.1054166666666667 0.002380952380952381 0  0.11 0.002380952380952381 0  0.1145833333333333 0.002380952380952381 0  0.1191666666666667 0.002380952380952381 0  0.12375 0.002380952380952381 0  0.1283333333333334 0.002380952380952381 0  0.1329166666666667 0.002380952380952381 0  0.1375 0.002380952380952381 0  0.1420833333333333 0.002380952380952381 0  0.1466666666666667 0.002380952380952381 0  0.15125 0.002380952380952381 0  0.1558333333333333 0.002380952380952381 0  0.1604166666666667 0.002380952380952381 0  0.165 0.002380952380952381 0  0.1695833333333333 0.002380952380952381 0  0.1741666666666667 0.002380952380952381 0  0.17875 0.002380952380952381 0  0.1833333333333333 0.002380952380952381 0  0.1879166666666667 0.002380952380952381 0  0.1925 0.002380952380952381 0  0.1970833333333333 0.002380952380952381 0  0.2016666666666667 0.002380952380952381 0  0.20625 0.002380952380952381 0  0.2108333333333333 0.002380952380952381 0  0.2154166666666666 0.002380952380952381 0  0.22 0.002380952380952381 0  0.2245833333333334 0.002380952380952381 0  0.2291666666666667 0.002380952380952381 0  0.23375 0.002380952380952381 0  0.2383333333333333 0.002380952380952381 0  0.2429166666666667 0.002380952380952381 0  0.2475 0.002380952380952381 0  0.2520833333333333 0.002380952380952381 0  0.2566666666666667 0.002380952380952381 0  0.26125 0.002380952380952381 0  0.2658333333333334 0.002380952380952381 0  0.2704166666666666 0.002380952380952381 0  0.275 0.002380952380952381 0  0.2795833333333334 0.002380952380952381 0  0.2841666666666667 0.002380952380952381 0  0.28875 0.002380952380952381 0  0.2933333333333333 0.002380952380952381 0  0.2979166666666667 0.002380952380952381 0  0.3025 0.002380952380952381 0  0.3070833333333334 0.002380952380952381 0  0.3116666666666666 0.002380952380952381 0  0.31625 0.002380952380952381 0  0.3208333333333333 0.002380952380952381 0  0.3254166666666667 0.002380952380952381 0  0.33 0.002380952380952381 0  0.3345833333333333 0.002380952380952381 0  0.3391666666666667 0.002380952380952381 0  0.34375 0.002380952380952381 0  0.3483333333333333 0.002380952380952381 0  0.3529166666666667 0.002380952380952381 0  0.3575 0.002380952380952381 0  0.3620833333333333 0.002380952380952381 0  0.3666666666666667 0.002380952380952381 0  0.37125 0.002380952380952381 0  0.3758333333333334 0.002380952380952381 0  0.3804166666666667 0.002380952380952381 0  0.3850000000000001 0.002380952380952381 0  0.3895833333333333 0.002380952380952381 0  0.3941666666666667 0.002380952380952381 0  0.39875 0.002380952380952381 0  0.4033333333333334 0.002380952380952381 0  0.4079166666666666 0.002380952380952381 0  0.4125 0.002380952380952381 0  0.4170833333333334 0.002380952380952381 0  0.4216666666666667 0.002380952380952381 0  0.42625 0.002380952380952381 0  0.4308333333333333 0.002380952380952381 0  0.4354166666666667 0.002380952380952381 0  0.44 0.002380952380952381 0  0.4445833333333333 0.002380952380952381 0  0.4491666666666667 0.002380952380952381 0  0.45375 0.002380952380952381 0  0.4583333333333333 0.002380952380952381 0  0.4629166666666666 0.002380952380952381 0  0.4675 0.002380952380952381 0  0.4720833333333334 0.002380952380952381 0  0.4766666666666667 0.002380952380952381 0  0.4812500000000001 0.002380952380952381 0  0.4858333333333333 0.002380952380952381 0  0.4904166666666667 0.002380952380952381 0  0.495 0.002380952380952381 0  0.4995833333333334 0.002380952380952381 0  0.5041666666666667 0.002380952380952381 0  0.50875 0.002380952380952381 0  0.5133333333333334 0.002380952380952381 0  0.5179166666666667 0.002380952380952381 0  0.5225 0.002380952380952381 0  0.5270833333333333 0.002380952380952381 0  0.5316666666666667 0.002380952380952381 0  0.53625 0.002380952380952381 0  0.5408333333333333 0.002380952380952381 0  0.5454166666666667 0.002380952380952381 0  0.55 0.002380952380952381 0  0.5545833333333333 0.002380952380952381 0  0.5591666666666667 0.002380952380952381 0  0.5637500000000001 0.002380952380952381 0  0.5683333333333334 0.002380952380952381 0  0.5729166666666666 0.002380952380952381 0  0.5775 0.002380952380952381 0  0.5820833333333334 0.002380952380952381 0  0.5866666666666667 0.002380952380952381 0  0.5912499999999999 0.002380952380952381 0  0.5958333333333334 0.002380952380952381 0  0.6004166666666667 0.002380952380952381 0  0.605 0.002380952380952381 0  0.6095833333333334 0.002380952380952381 0  0.6141666666666667 0.002380952380952381 0  0.61875 0.002380952380952381 0  0.6233333333333333 0.002380952380952381 0  0.6279166666666667 0.002380952380952381 0  0.6325000000000001 0.002380952380952381 0  0.6370833333333333 0.002380952380952381 0  0.6416666666666666 0.002380952380952381 0  0.64625 0.002380952380952381 0  0.6508333333333334 0.002380952380952381 0  0.6554166666666666 0.002380952380952381 0  0.6599999999999999 0.002380952380952381 0  0.6645833333333334 0.002380952380952381 0  0.6691666666666667 0.002380952380952381 0  0.67375 0.002380952380952381 0  0.6783333333333333 0.002380952380952381 0  0.6829166666666667 0.002380952380952381 0  0.6875 0.002380952380952381 0  0.6920833333333333 0.002380952380952381 0  0.6966666666666667 0.002380952380952381 0  0.70125 0.002380952380952381 0  0.7058333333333333 0.002380952380952381 0  0.7104166666666667 0.002380952380952381 0  0.7150000000000001 0.002380952380952381 
[...]
<PointData  Scalars="pressure"> 
<DataArray  type="Float64"  Name="pressure"  format="ascii">1.2176349491972293e+04  1.2013918659285697e+04  1.1860098967617705e+04  1.1707480899115928e+04  1.1555513114502975e+04  1.1403866111887186e+04  1.1252420216484357e+04  1.1101107787574720e+04  1.0949889234559010e+04  1.0798739161540403e+04  1.0647640425859308e+04  1.0496580968475439e+04  1.0345552039654491e+04  1.0194547135812394e+04  1.0043561331210300e+04  9.8925908403114590e+03  9.7416327213619661e+03  9.5906846698870468e+03  9.4397448714380553e+03  9.2888118945992683e+03  9.1378846121315582e+03  8.9869621423131848e+03  8.8360438051674737e+03  8.6851290899712967e+03  8.5342176315768265e+03  8.3833091938660273e+03  8.2324036592239390e+03  8.0815010233464309e+03  7.9306013950464730e+03  7.7797050010299154e+03  7.6288121959080081e+03  7.4779234780252373e+03  7.3270395120314506e+03  7.1761611595362292e+03  7.0252895196618965e+03  6.8744259818402998e+03  6.7235722936813390e+03  6.5727306468757442e+03  6.4219037830536399e+03  6.2710951171405768e+03  6.1203088625381561e+03  5.9695501042738933e+03  5.8188246453812135e+03  5.6681383405450542e+03  5.5174931582946683e+03  5.3668832392775475e+03  5.2162144892838478e+03  5.0657311152729972e+03  4.9082461388048741e+03  3.4694137577109714e+03  3.3699325597966990e+03  3.3136818406767170e+03  3.2757509749144101e+03  3.2487834831049436e+03  3.2212246669548986e+03  3.1932767934674807e+03  3.1652258105497422e+03  3.1371074755649474e+03  3.1089486403726969e+03  3.0807624940946562e+03  3.0525572335729962e+03  3.0243381310025670e+03  2.9961087574698067e+03  2.9678716137935221e+03  2.9396285002283798e+03  2.9113807419370341e+03  2.8831293326306118e+03  2.8548750291314468e+03  2.8266184154166353e+03  2.7983599470680742e+03  2.7700999827985243e+03  2.7418388072465114e+03  2.7135766477446518e+03  2.6853136868460906e+03  2.6570500718114072e+03  2.6287859218813660e+03  2.6005213339123275e+03  2.5722563867840322e+03  2.5439911448753651e+03  2.5157256608245143e+03  2.4874599777341055e+03  2.4591941309420085e+03  2.4309281494495763e+03  2.4026620570778491e+03  2.3743958734064418e+03  2.3461296145379670e+03  2.3178632937217362e+03  2.2895969218635996e+03  2.2613305079433321e+03  2.2330640593567518e+03  2.2047975821964465e+03  2.1765310814823292e+03  2.1482645613511036e+03  2.1199980252120804e+03  2.0917314758753614e+03  2.0634649156573519e+03  2.0351983464676298e+03  2.0069317698804887e+03  1.9786651871938675e+03  1.9503985994779109e+03  1.9221320076149821e+03  1.8938654123326369e+03  1.8655988142308047e+03  1.8373322138041999e+03  1.8090656114607866e+03  1.7807990075370121e+03  1.7525324023103649e+03  1.7242657960097263e+03  1.6959991888239156e+03  1.6677325809087333e+03  1.6394659723927762e+03  1.6111993633822267e+03  1.5829327539648245e+03  1.5546661442131340e+03  1.5263995341872492e+03  1.4981329239370384e+03  1.4698663135040049e+03  1.4415997029228324e+03  1.4133330922226794e+03  1.3850664814282666e+03  1.3567998705608013e+03  1.3285332596387661e+03  1.3002666486786070e+03  1.2720000376953506e+03  1.2437334267031645e+03  1.2154668157158833e+03  1.1872002047475269e+03  1.1589335938128290e+03  1.1306669829277837e+03  1.1024003721102456e+03  1.0741337613806018e+03  1.0458671507625447e+03  1.0176005402839568e+03  9.8933392997797250e+02  9.6106731988423849e+02  9.3280071005042544e+02  9.0453410053405673e+02  8.7626749140473191e+02  8.4800088274683890e+02  8.1973427466286421e+02  7.9146766727746422e+02  7.6320106074248383e+02  7.3493445524316235e+02  7.0666785100585139e+02  6.7840124830765194e+02  6.5013464748853767e+02  6.2186804896670208e+02  5.9360145325813096e+02  5.6533486100183370e+02  5.3706827299269207e+02  5.0880169022475803e+02  4.8053511394914023e+02  4.5226854575261808e+02  4.2400198766631979e+02  3.9573544231899092e+02  3.6746891315802799e+02  3.3920240477637225e+02  3.1093592340969644e+02  2.8266947771791996e+02  2.5440308005327583e+02  2.2613674865568996e+02  1.9787051121772549e+02  1.6960441452033893e+02  1.4133851893087024e+02  1.1307309740091380e+02  8.4807248966009624e+01  5.6551537994222258e+01  2.8205951008010057e+01  7.9925960190442846e-01  1.2168066926227963e+04  1.2013968027510366e+04  1.1859915232895211e+04  1.1707429036793803e+04  1.1555479097143620e+04  1.1403845402611552e+04  1.1252406167770652e+04  1.1101097855443259e+04  1.0949881955691231e+04  1.0798733690260633e+04  1.0647636232760729e+04  1.0496577706472479e+04  1.0345549471734337e+04  1.0194545094752277e+04  1.0043559695764046e+04  9.8925895205239685e+03  9.7416316491617945e+03  9.5906837928575151e+03  9.4397441485683703e+03  9.2888112933057582e+03  9.1378841061143848e+03  8.9869617099738207e+03  8.8360434284084022e+03  8.6851287532582719e+03  8.5342173211808004e+03  8.3833088972250989e+03  8.2324033643801486e+03  8.0815007184209708e+03  7.9306010677214263e+03  7.7797046380061838e+03  7.6288117823078010e+03  7.4779229967041310e+03  7.3270389427595219e+03  7.1761604780016196e+03  7.0252886962458524e+03  6.8744249801182768e+03  6.7235710686397906e+03  6.5727291429465331e+03  6.4219019323847542e+03  6.2710928394162102e+03  6.1203060696418815e+03  5.9695467177911141e+03  5.8188206841438532e+03  5.6681339034680823e+03  5.5174902634173532e+03  5.3668799054660094e+03  5.2162900334041215e+03  5.0652556180045467e+03  4.9142042196789453e+03  4.7676008846740979e+03  4.6296812455035797e+03  4.5435365257310505e+03  3.2749427394639602e+03  3.2490196578396803e+03  3.2212279661734801e+03  3.1932910762142001e+03  3.1652321666662647e+03  3.1371117638980304e+03  3.1089515057462822e+03  3.0807645182338074e+03  3.0525587048281732e+03  3.0243392268197586e+03  2.9961095893790075e+03  2.9678722553029838e+03  2.9396290013486291e+03  2.9113811376504054e+03  2.8831296479873877e+03  2.8548752824370713e+03  2.8266186202851677e+03  2.7983601137805617e+03  2.7701001192227504e+03  2.7418389194730144e+03  2.7135767405350643e+03  2.6853137639548208e+03  2.6570501362202090e+03  2.6287859759729645e+03  2.6005213796007001e+03  2.5722564256133828e+03  2.5439911780961611e+03  2.5157256894524930e+03  2.4874600025964633e+03  2.4591941527138470e+03  2.4309281686828513e+03  2.4026620742245059e+03  2.3743958888369930e+03  2.3461296285564722e+03  2.3178633065779341e+03  2.2895969337627535e+03  2.2613305190542483e+03  2.2330640698183224e+03  2.2047975921229954e+03  2.1765310909679843e+03  2.1482645704733914e+03  2.1199980340348629e+03  2.0917314844512580e+03  2.0634649240297217e+03  2.0351983546722097e+03  2.0069317779467317e+03  1.9786651951460517e+03  1.9503986073360506e+03  1.9221320153955778e+03  1.8938654200492897e+03  1.8655988218947305e+03  1.8373322214246439e+03  1.8090656190453717e+03  1.7807990150920218e+03  1.7525324098409790e+03  1.7242658035202153e+03  1.6959991963177988e+03  1.6677325883889112e+03  1.6394659798616356e+03  1.6111993708417338e+03  1.5829327614165970e+03  1.5546661516585002e+03  1.5263995416272992e+03  1.4981329313726637e+03  1.4698663209359318e+03  1.4415997103516495e+03  1.4133330996488592e+03  1.3850664888521828e+03  1.3567998779827437e+03  1.3285332670589503e+03  1.3002666560971836e+03  1.2720000451124106e+03  1.2437334341187413e+03  1.2154668231299552e+03  1.1872002121600165e+03  1.1589336012235988e+03  1.1306669903366319e+03  1.1024003795168981e+03  1.0741337687847026e+03  1.0458671581636411e+03  1.0176005476814817e+03  9.8933393737122378e+02  9.6106732727235055e+02  9.3280071743233543e+02  9.0453410790846294e+02  8.7626749877004079e+02  8.4800089010109878e+02  8.1973428200368619e+02  7.9146767460191938e+02  7.6320106804697411e+02  7.3493446252326100e+02  7.0666785825609429e+02  6.7840125552127324e+02  6.5013465465712386e+02  6.2186805607973929e+02  5.9360146030240185e+02  5.6533486796060629e+02  5.3706827984460563e+02  5.0880169694227646e+02  4.8053512049635577e+02  4.5226855208207672e+02  4.2400199371432882e+02  3.9573544799851180e+02  3.6746891834763284e+02  3.3920240930254602e+02  3.1093592701766937e+02  2.8266948002067238e+02  2.5440308044768290e+02  2.2613674610250774e+02  1.9787050432644062e+02  1.6960439735307060e+02  1.4133850851343487e+02  1.1307288684576031e+02  8.4808461689048571e+01  5.6540124276162203e+01  2.8309264635230559e+01  -4.3494475678294717e-02  1.2164397631335776e+04  1.2012467441000616e+04  1.1859535983076279e+04  1.1707228069305147e+04  1.1555367198859065e+04  1.1403774211961740e+04  1.1252357987033896e+04  1.1101063638508715e+04  1.0949856825678935e+04  1.0798714764119461e+04  1.0647621703858125e+04  1.0496566385710135e+04  1.0345540545247997e+04  1.0194537987237431e+04  1.0043553989476044e+04  9.8925849051546229e+03  9.7416278896515978e+03  9.5906807080379767e+03  9.4397415965669934e+03  9.2888091612974185e+03  9.1378823029354935e+03  8.9869601606603192e+03  8.8360420700455707e+03  8.6851275317313866e+03  8.5342161885414007e+03  8.3833078094667362e+03  8.2324022794669308e+03  8.0814995944415659e+03  7.9305998610563374e+03  7.7797033014000999e+03  7.6288102627333110e+03  7.4779212328889371e+03  7.3270368622274455e+03  7.1761579934510073e+03  7.0252857010662410e+03  6.8744213428518169e+03  6.7235666262907662e+03  6.5727236933919539e+03  6.4218952271572762e+03  6.2710845808350496e+03  6.1202959233657566e+03  5.9695343745633827e+03  5.8188060402417614e+03  5.6681177072925911e+03  5.5174755236830779e+03  5.3668827235158278e+03  5.2163154240724361e+03  5.0657273953382100e+03  4.9158900439760246e+03  4.7692507365532074e+03  4.6222298739713688e+03  3.3065401867987771e+03  3.2771476774486850e+03  3.2491158254878683e+03  3.2213199699448819e+03  3.1933283011418730e+03  3.1652550187675720e+03  3.1371262380048224e+03  3.1089613483858302e+03  3.0807714687253369e+03  3.0525637629835396e+03  3.0243429928878331e+03  2.9961124449434883e+03  2.9678744524763524e+03  2.9396307121984269e+03  2.9113824828217885e+03  2.8831307140463650e+03  2.8548761327487773e+03  2.8266193020433666e+03  2.7983606626689252e+03  2.7701005625777188e+03  2.7418392784750495e+03  2.7135770317559018e+03  2.6853140004692673e+03  2.6570503284179863e+03  2.6287861321603655e+03  2.6005215064525378e+03  2.5722565285166766e+03  2.5439912614144137e+03  2.5157257567309175e+03  2.4874600567227621e+03  2.4591941960451368e+03  2.4309282031465441e+03  2.4026621013989497e+03  2.3743959100162560e+03  2.3461296448026137e+03  2.3178633187633195e+03  2.2895969426044344e+03  2.2613305251419461e+03  2.2330640736372661e+03  2.2047975940725923e+03  2.1765310913771041e+03  2.1482645696128925e+03  2.1199980321278777e+03  2.0917314816816320e+03  2.0634649205489554e+03  2.0351983506051617e+03  2.0069317733963155e+03  1.9786651901970997e+03  1.9503986020584950e+03  1.9221320098470685e+03  1.8938654142773566e+03  1.8655988159385583e+03  1.8373322153165388e+03  1.8090656128119670e+03  1.7807990087552760e+03  1.7525324034189930e+03  1.7242657970279092e+03  1.6959991897674697e+03  1.6677325817906899e+03  1.6394659732238686e+03  1.6111993641712913e+03  1.5829327547191297e+03  1.5546661449386513e+03  1.5263995348888770e+03  1.4981329246187840e+03  1.4698663141691334e+03  1.4415997035739899e+03  1.4133330928619901e+03  1.3850664820574134e+03  1.3567998711810874e+03  1.3285332602511648e+03  1.3002666492837961e+03  1.2720000382937405e+03  1.2437334272949115e+03  1.2154668163008937e+03  1.1872002053254573e+03  1.1589335943830692e+03  1.1306669834894353e+03  1.1024003726620883e+03  1.0741337619210462e+03  1.0458671512895701e+03  1.0176005407950350e+03  9.8933393046997003e+02  9.6106732035329230e+02  9.3280071049179344e+02  9.0453410094192805e+02  8.7626749177199383e+02  8.4800088306478403e+02  8.1973427492083044e+02  7.9146766746238006e+02  7.6320106083829751e+02  7.3493445523012133e+02  7.0666785085957986e+02  6.7840124799796934e+02  6.5013464697792119e+02  6.2186804820826944e+02  5.9360145219296112e+02  5.6533485955535366e+02  5.3706827106973503e+02  5.0880168770269034e+02  4.8053511066812337e+02  4.5226854150153804e+02  4.2400198216201272e+02  3.9573543517482659e+02  3.6746890383514818e+02  3.3920239250575770e+02  3.1093590706354399e+02  2.8266945558897936e+02  2.5440304946376423e+02  2.2613670519965356e+02  1.9787044748128179e+02  1.6960431552294659e+02  1.4133836852428067e+02  1.1307274709535584e+02  8.4807457144250179e+01  5.6544055777227669e+01  2.8285121436904280e+01  5.6319887885783650e-03  1.2162226139484575e+04  1.2011039250218417e+04  1.1858926975604541e+04  1.1706919962991118e+04  1.1555184867578257e+04  1.1403656924770452e+04  1.1252277690056770e+04  1.1101006255107495e+04  1.0949814496075622e+04  1.0798682787622100e+04  1.0647597102434107e+04  1.0496547184827325e+04  1.0345525385877509e+04  1.0194525904621756e+04  1.0043544280760299e+04  9.8925770468834125e+03  9.7416214844776368e+03  9.5906754491928641e+03  9.4397372434855679e+03  9.2888055224436957e+03  9.1378792233902223e+03  8.9869575129184432e+03  8.8360397470081189e+03  8.6851254412073777e+03  8.5342142487829897e+03  8.3833059453920796e+03  8.2324004193071069e+03  8.0814976665966415e+03  7.9305977909706216e+03  7.7797010082726938e+03  7.6288076558700850e+03  7.4779182074770160e+03  7.3270332942743307e+03  7.1761537335812627e+03  7.0252805668218489e+03  6.8744151091332524e+03  6.7235590136977498e+03  6.5727143547157657e+03  6.4218837337425111e+03  6.2710704144722904e+03  6.1202784902163721e+03  5.9695130850283867e+03  5.8187805791510582e+03  5.6680888443053254e+03  5.5174477270571688e+03  5.3668698398481538e+03  5.2163747748078249e+03  5.0660981053664373e+03  4.9166946448794324e+03  4.7691165089240903e+03  4.6194799803983706e+03  3.3057766579202184e+03  3.2778177425542094e+03  3.2494291831649798e+03  3.2214302790089409e+03  3.1933903937079958e+03  3.1652917934660977e+03  3.1371502188161371e+03  3.1089777557899238e+03  3.0807831253157365e+03  3.0525722773769157e+03  3.0243493495255921e+03  2.9961172742334747e+03  2.9678781736290334e+03  2.9396336126605643e+03  2.9113847648865362e+03  2.8831325232998529e+03  2.8548775760215676e+03  2.8266204590656548e+03  2.7983615938295056e+03  2.7701013142061634e+03  2.7418398865116455e+03  2.7135775243494604e+03  2.6853143998478708e+03  2.6570506522576834e+03  2.6287863946012353e+03  2.6005217188630932e+03  2.5722567000759518e+03  2.5439913995600746e+03  2.5157258675076091e+03  2.4874601450552591e+03  2.4591942659541533e+03  2.4309282579203614e+03  2.4026621437306958e+03  2.3743959421142499e+03  2.3461296684794179e+03  2.3178633355078814e+03  2.2895969536406860e+03  2.2613305314765335e+03  2.2330640760985057e+03  2.2047975933423227e+03  2.1765310880167631e+03  2.1482645640848973e+03  2.1199980248131701e+03  2.0917314728940887e+03  2.0634649105472336e+03  2.0351983396024361e+03  2.0069317615682949e+03  1.9786651776886226e+03  1.9503985889889605e+03  1.9221319963149092e+03  1.8938654003637228e+03  1.8655988017103534e+03  1.8373322008289217e+03  1.8090655981104137e+03  1.7807989938772762e+03  1.7525323883954522e+03  1.7242657818843036e+03  1.6959991745247944e+03  1.6677325664662449e+03  1.6394659578319015e+03  1.6111993487235336e+03  1.5829327392252299e+03  1.5546661294065375e+03  1.5263995193250516e+03  1.4981329090285674e+03  1.4698662985568610e+03  1.4415996879431736e+03  1.4133330772154522e+03  1.3850664663973880e+03  1.3567998555093068e+03  1.3285332445689207e+03  1.3002666335919921e+03  1.2720000225929227e+03  1.2437334115852884e+03  1.2154668005823462e+03  1.1872001895975316e+03  1.1589335786449608e+03  1.1306669677399577e+03  1.1024003568996282e+03  1.0741337461435007e+03  1.0458671354942687e+03  1.0176005249786341e+03  9.8933391462832435e+02  9.6106730448129485e+02  9.3280069458317257e+02  9.0453408498900035e+02  8.7626747576535399e+02  8.4800086699292194e+02  8.1973425876965234e+02  7.9146765121461124e+02  7.6320104447273047e+02  7.3493443872066507e+02  7.0666783417404974e+02  6.7840123109653234e+02  6.5013462981107898e+02  6.2186803071421616e+02  5.9360143429407617e+02  5.6533484115348529e+02  5.3706825203976052e+02  5.0880166788358014e+02  4.8053508985031698e+02  4.5226851940876037e+02  4.2400195842452064e+02  3.9573540928912496e+02  3.6746887510176947e+02  3.3920235993040768e+02  3.1093586919507464e+02  2.8266941024395004e+02  2.5440299324182789e+02  2.2613663257032792e+02  1.9787034914010047e+02  1.6960417398901674e+02  1.4133815603372830e+02  1.1307236827123455e+02  8.4806939091372115e+01  5.6542509718123490e+01  2.8277085991399634e+01  -4.2735393690509821e-04  1.2160712964630462e+04  1.2009838054117807e+04  1.1858243576011406e+04  1.1706535278477089e+04  1.1554947603122448e+04  1.1403500252382610e+04  1.1252168852419327e+04  1.1100927731791815e+04  1.0949756206883405e+04  1.0798638563439534e+04  1.0647562974125529e+04  1.0496520490589242e+04  1.0345504278062175e+04  1.0194509063088643e+04  1.0043530738898318e+04  9.8925660819429377e+03  9.7416125460910789e+03  9.5906681113675440e+03  9.4397311714656134e+03  9.2888004492419950e+03  9.1378749327523474e+03  8.9869538266441232e+03  8.8360365152639897e+03  8.6851225349049291e+03  8.5342115533733158e+03  8.3833033556051523e+03  8.2323978344737061e+03  8.0814949862567046e+03  7.9305949105051404e+03  7.7796978143039041e+03  7.6288040211600019e+03  7.4779139850181673e+03  7.3270283102096791e+03  7.1761477785158950e+03  7.0252733850097320e+03  6.8744063849764780e+03  6.7235483550866502e+03  6.5727012732303729e+03  6.4218676232890230e+03  6.2710505342275510e+03  6.1202539690737894e+03  5.9694829942990627e+03  5.8187442000870960e+03  5.6680464811786978e+03  5.5174029333752442e+03  5.3668357796992932e+03  5.2163980793735127e+03  5.0662720654305558e+03  4.9168943491381542e+03  4.7686170658375158e+03  4.6176381773992234e+03  3.3051487487558788e+03  3.2780657974531528e+03  3.2496844607313560e+03  3.2215643348841290e+03  3.1934674314415865e+03  3.1653402089397050e+03  3.1371823619737597e+03  3.1090000509990277e+03  3.0807990983595696e+03  3.0525840171210293e+03  3.0243581559660920e+03  2.9961239908674847e+03  2.9678833665030975e+03  2.9396376726345025e+03  2.9113879685515521e+03  2.8831350706029812e+03  2.8548796142227679e+03  2.8266220984045963e+03  2.7983629180168973e+03  2.7701023876017825e+03  2.7418407591328546e+03  2.7135782354297794e+03  2.6853149804080003e+03  2.6570511269919784e+03  2.6287867832817437e+03  2.6005220373982343e+03  2.5722569613182977e+03  2.5439916139292982e+03  2.5157260434754967e+03  2.4874602895265211e+03  2.4591943845676374e+03  2.4309283552888455e+03  2.4026622236328512e+03  2.3743960076490366e+03  2.3461297221907835e+03  2.3178633794858097e+03  2.2895969896033348e+03  2.2613305608371438e+03  2.2330641000200358e+03  2.2047976127821221e+03  2.1765311037631668e+03  2.1482645767872268e+03  2.1199980350063533e+03  2.0917314810188927e+03  2.0634649169668874e+03  2.0351983446163049e+03  2.0069317654231331e+03  1.9786651805878341e+03  1.9503985911002242e+03  1.9221319977764610e+03  1.8938654012895290e+03  1.8655988021943735e+03  1.8373322009486203e+03  1.8090655979296562e+03  1.7807989934487148e+03  1.7525323877624921e+03  1.7242657810827213e+03  1.6959991735840765e+03  1.6677325654106874e+03  1.6394659566815158e+03  1.6111993474947935e+03  1.5829327379316874e+03  1.5546661280593266e+03  1.5263995179333060e+03  1.4981329075997571e+03  1.4698662970970745e+03  1.4415996864573460e+03  1.4133330757075450e+03  1.3850664648705406e+03  1.3567998539659502e+03  1.3285332430108722e+03  1.3002666320205199e+03  1.2720000210087937e+03  1.2437334099887969e+03  1.2154667989733250e+03  1.1872001879753448e+03  1.1589335770084799e+03  1.1306669660875179e+03  1.1024003552289653e+03  1.0741337444516653e+03  1.0458671337775120e+03  1.0176005232322657e+03  9.8933391284652862e+02  9.6106730265690646e+02  9.3280069270739455e+02  9.0453408305105529e+02  8.7626747375205252e+02  8.4800086488812508e+02  8.1973425655360404e+02  7.9146764886310245e+02  7.6320104195605074e+02  7.3493443600227761e+02  7.0666783120890636e+02  6.7840122782891171e+02  6.5013462617179005e+02  6.2186802661693753e+02  5.9360142963051055e+02  5.6533483578686025e+02  5.3706824579598003e+02  5.0880166053898756e+02  4.8053508111447519e+02  4.5226850889975589e+02  4.2400194