<?xml version="1.0"?>
<VTKFile type="UnstructuredGrid"  version="0.1"  >
<UnstructuredGrid>
<Piece  NumberOfPoints="21400" NumberOfCells="42336">
<Points>
<DataArray  type="Float64"  NumberOfComponents="3"  format="ascii">0 0 0  0.004583333333333333 0 0  0.009166666666666667 0 0  0.01375 0 0  0.01833333333333333 0 0  0.02291666666666667 0 0  0.0275 0 0  0.03208333333333334 0 0  0.03666666666666667 0 0  0.04125 0 0  0.04583333333333334 0 0  0.05041666666666667 0 0  0.055 0 0  0.05958333333333334 0 0  0.06416666666666668 0 0  0.06875000000000001 0 0  0.07333333333333333 0 0  0.07791666666666666 0 0  0.08249999999999999 0 0  0.08708333333333333 0 0  0.09166666666666667 0 0  0.09625000000000002 0 0  0.1008333333333333 0 0  0.1054166666666667 0 0  0.11 0 0  0.1145833333333333 0 0  0.1191666666666667 0 0  0.12375 0 0  0.1283333333333334 0 0  0.1329166666666667 0 0  0.1375 0 0  0.1420833333333333 0 0  0.1466666666666667 0 0  0.15125 0 0  0.1558333333333333 0 0  0.1604166666666667 0 0  0.165 0 0  0.1695833333333333 0 0  0.1741666666666667 0 0  0.17875 0 0  0.1833333333333333 0 0  0.1879166666666667 0 0  0.1925 0 0  0.1970833333333333 0 0  0.2016666666666667 0 0  0.20625 0 0  0.2108333333333333 0 0  0.2154166666666666 0 0  0.22 0 0  0.2245833333333334 0 0  0.2291666666666667 0 0  0.23375 0 0  0.2383333333333333 0 0  0.2429166666666667 0 0  0.2475 0 0  0.2520833333333333 0 0  0.2566666666666667 0 0  0.26125 0 0  0.2658333333333334 0 0  0.2704166666666666 0 0  0.275 0 0  0.2795833333333334 0 0  0.2841666666666667 0 0  0.28875 0 0  0.2933333333333333 0 0  0.2979166666666667 0 0  0.3025 0 0  0.3070833333333334 0 0  0.3116666666666666 0 0  0.31625 0 0  0.3208333333333333 0 0  0.3254166666666667 0 0  0.33 0 0  0.3345833333333333 0 0  0.3391666666666667 0 0  0.34375 0 0  0.3483333333333333 0 0  0.3529166666666667 0 0  0.3575 0 0  0.3620833333333333 0 0  0.3666666666666667 0 0  0.37125 0 0  0.3758333333333334 0 0  0.3804166666666667 0 0  0.3850000000000001 0 0  0.3895833333333333 0 0  0.3941666666666667 0 0  0.39875 0 0  0.4033333333333334 0 0  0.4079166666666666 0 0  0.4125 0 0  0.4170833333333334 0 0  0.4216666666666667 0 0  0.42625 0 0  0.4308333333333333 0 0  0.4354166666666667 0 0  0.44 0 0  0.4445833333333333 0 0  0.4491666666666667 0 0  0.45375 0 0  0.4583333333333333 0 0  0.4629166666666666 0 0  0.4675 0 0  0.4720833333333334 0 0  0.4766666666666667 0 0  0.4812500000000001 0 0  0.4858333333333333 0 0  0.4904166666666667 0 0  0.495 0 0  0.4995833333333334 0 0  0.5041666666666667 0 0  0.50875 0 0  0.5133333333333334 0 0  0.5179166666666667 0 0  0.5225 0 0  0.5270833333333333 0 0  0.5316666666666667 0 0  0.53625 0 0  0.5408333333333333 0 0  0.5454166666666667 0 0  0.55 0 0  0.5545833333333333 0 0  0.5591666666666667 0 0  0.5637500000000001 0 0  0.5683333333333334 0 0  0.5729166666666666 0 0  0.5775 0 0  0.5820833333333334 0 0  0.5866666666666667 0 0  0.5912499999999999 0 0  0.5958333333333334 0 0  0.6004166666666667 0 0  0.605 0 0  0.6095833333333334 0 0  0.6141666666666667 0 0  0.61875 0 0  0.6233333333333333 0 0  0.6279166666666667 0 0  0.6325000000000001 0 0  0.6370833333333333 0 0  0.6416666666666666 0 0  0.64625 0 0  0.6508333333333334 0 0  0.6554166666666666 0 0  0.6599999999999999 0 0  0.6645833333333334 0 0  0.6691666666666667 0 0  0.67375 0 0  0.6783333333333333 0 0  0.6829166666666667 0 0  0.6875 0 0  0.6920833333333333 0 0  0.6966666666666667 0 0  0.70125 0 0  0.7058333333333333 0 0  0.7104166666666667 0 0  0.7150000000000001 0 0  0.7195833333333334 0 0  0.7241666666666666 0 0  0.72875 0 0  0.7333333333333334 0 0  0.7379166666666667 0 0  0.7425 0 0  0.7470833333333333 0 0  0.7516666666666667 0 0  0.75625 0 0  0.7608333333333334 0 0  0.7654166666666666 0 0  0.7700000000000001 0 0  0 0.002380952380952381 0  0.004583333333333333 0.002380952380952381 0  0.009166666666666667 0.002380952380952381 0  0.01375 0.002380952380952381 0  0.01833333333333333 0.002380952380952381 0  0.02291666666666667 0.002380952380952381 0  0.0275 0.002380952380952381 0  0.03208333333333334 0.002380952380952381 0  0.03666666666666667 0.002380952380952381 0  0.04125 0.002380952380952381 0  0.04583333333333334 0.002380952380952381 0  0.05041666666666667 0.002380952380952381 0  0.055 0.002380952380952381 0  0.05958333333333334 0.002380952380952381 0  0.06416666666666668 0.002380952380952381 0  0.06875000000000001 0.002380952380952381 0  0.07333333333333333 0.002380952380952381 0  0.07791666666666666 0.002380952380952381 0  0.08249999999999999 0.002380952380952381 0  0.08708333333333333 0.002380952380952381 0  0.09166666666666667 0.002380952380952381 0  0.09625000000000002 0.002380952380952381 0  0.1008333333333333 0.002380952380952381 0  0.1054166666666667 0.002380952380952381 0  0.11 0.002380952380952381 0  0.1145833333333333 0.002380952380952381 0  0.1191666666666667 0.002380952380952381 0  0.12375 0.002380952380952381 0  0.1283333333333334 0.002380952380952381 0  0.1329166666666667 0.002380952380952381 0  0.1375 0.002380952380952381 0  0.1420833333333333 0.002380952380952381 0  0.1466666666666667 0.002380952380952381 0  0.15125 0.002380952380952381 0  0.1558333333333333 0.002380952380952381 0  0.1604166666666667 0.002380952380952381 0  0.165 0.002380952380952381 0  0.1695833333333333 0.002380952380952381 0  0.1741666666666667 0.002380952380952381 0  0.17875 0.002380952380952381 0  0.1833333333333333 0.002380952380952381 0  0.1879166666666667 0.002380952380952381 0  0.1925 0.002380952380952381 0  0.1970833333333333 0.002380952380952381 0  0.2016666666666667 0.002380952380952381 0  0.20625 0.002380952380952381 0  0.2108333333333333 0.002380952380952381 0  0.2154166666666666 0.002380952380952381 0  0.22 0.002380952380952381 0  0.2245833333333334 0.002380952380952381 0  0.2291666666666667 0.002380952380952381 0  0.23375 0.002380952380952381 0  0.2383333333333333 0.002380952380952381 0  0.2429166666666667 0.002380952380952381 0  0.2475 0.002380952380952381 0  0.2520833333333333 0.002380952380952381 0  0.2566666666666667 0.002380952380952381 0  0.26125 0.002380952380952381 0  0.2658333333333334 0.002380952380952381 0  0.2704166666666666 0.002380952380952381 0  0.275 0.002380952380952381 0  0.2795833333333334 0.002380952380952381 0  0.2841666666666667 0.002380952380952381 0  0.28875 0.002380952380952381 0  0.2933333333333333 0.002380952380952381 0  0.2979166666666667 0.002380952380952381 0  0.3025 0.002380952380952381 0  0.3070833333333334 0.002380952380952381 0  0.3116666666666666 0.002380952380952381 0  0.31625 0.002380952380952381 0  0.3208333333333333 0.002380952380952381 0  0.3254166666666667 0.002380952380952381 0  0.33 0.002380952380952381 0  0.3345833333333333 0.002380952380952381 0  0.3391666666666667 0.002380952380952381 0  0.34375 0.002380952380952381 0  0.3483333333333333 0.002380952380952381 0  0.3529166666666667 0.002380952380952381 0  0.3575 0.002380952380952381 0  0.3620833333333333 0.002380952380952381 0  0.3666666666666667 0.002380952380952381 0  0.37125 0.002380952380952381 0  0.3758333333333334 0.002380952380952381 0  0.3804166666666667 0.002380952380952381 0  0.3850000000000001 0.002380952380952381 0  0.3895833333333333 0.002380952380952381 0  0.3941666666666667 0.002380952380952381 0  0.39875 0.002380952380952381 0  0.4033333333333334 0.002380952380952381 0  0.4079166666666666 0.002380952380952381 0  0.4125 0.002380952380952381 0  0.4170833333333334 0.002380952380952381 0  0.4216666666666667 0.002380952380952381 0  0.42625 0.002380952380952381 0  0.4308333333333333 0.002380952380952381 0  0.4354166666666667 0.002380952380952381 0  0.44 0.002380952380952381 0  0.4445833333333333 0.002380952380952381 0  0.4491666666666667 0.002380952380952381 0  0.45375 0.002380952380952381 0  0.4583333333333333 0.002380952380952381 0  0.4629166666666666 0.002380952380952381 0  0.4675 0.002380952380952381 0  0.4720833333333334 0.002380952380952381 0  0.4766666666666667 0.002380952380952381 0  0.4812500000000001 0.002380952380952381 0  0.4858333333333333 0.002380952380952381 0  0.4904166666666667 0.002380952380952381 0  0.495 0.002380952380952381 0  0.4995833333333334 0.002380952380952381 0  0.5041666666666667 0.002380952380952381 0  0.50875 0.002380952380952381 0  0.5133333333333334 0.002380952380952381 0  0.5179166666666667 0.002380952380952381 0  0.5225 0.002380952380952381 0  0.5270833333333333 0.002380952380952381 0  0.5316666666666667 0.002380952380952381 0  0.53625 0.002380952380952381 0  0.5408333333333333 0.002380952380952381 0  0.5454166666666667 0.002380952380952381 0  0.55 0.002380952380952381 0  0.5545833333333333 0.002380952380952381 0  0.5591666666666667 0.002380952380952381 0  0.5637500000000001 0.002380952380952381 0  0.5683333333333334 0.002380952380952381 0  0.5729166666666666 0.002380952380952381 0  0.5775 0.002380952380952381 0  0.5820833333333334 0.002380952380952381 0  0.5866666666666667 0.002380952380952381 0  0.5912499999999999 0.002380952380952381 0  0.5958333333333334 0.002380952380952381 0  0.6004166666666667 0.002380952380952381 0  0.605 0.002380952380952381 0  0.6095833333333334 0.002380952380952381 0  0.6141666666666667 0.002380952380952381 0  0.61875 0.002380952380952381 0  0.6233333333333333 0.002380952380952381 0  0.6279166666666667 0.002380952380952381 0  0.6325000000000001 0.002380952380952381 0  0.6370833333333333 0.002380952380952381 0  0.6416666666666666 0.002380952380952381 0  0.64625 0.002380952380952381 0  0.6508333333333334 0.002380952380952381 0  0.6554166666666666 0.002380952380952381 0  0.6599999999999999 0.002380952380952381 0  0.6645833333333334 0.002380952380952381 0  0.6691666666666667 0.002380952380952381 0  0.67375 0.002380952380952381 0  0.6783333333333333 0.002380952380952381 0  0.6829166666666667 0.002380952380952381 0  0.6875 0.002380952380952381 0  0.6920833333333333 0.002380952380952381 0  0.6966666666666667 0.002380952380952381 0  0.70125 0.002380952380952381 0  0.7058333333333333 0.002380952380952381 0  0.7104166666666667 0.002380952380952381 0  0.7150000000000001 0.002380952380952381 
[...]
<PointData  Scalars="pressure"> 
<DataArray  type="Float64"  Name="pressure"  format="ascii">1.8566183096201668e+04  1.8403752254843654e+04  1.8249932533266088e+04  1.8097314412436514e+04  1.7945346551115261e+04  1.7793699444546513e+04  1.7642253414065050e+04  1.7490940813907459e+04  1.7339722047079747e+04  1.7188571709699943e+04  1.7037472649234020e+04  1.6886412794508171e+04  1.6735383380940631e+04  1.6584377886829017e+04  1.6433391364364801e+04  1.6282420001160299e+04  1.6131460822818111e+04  1.5980511485195506e+04  1.5829570125650976e+04  1.5678635254222912e+04  1.5527705672544995e+04  1.5376780412468586e+04  1.5225858688971053e+04  1.5074939863605901e+04  1.4924023415855154e+04  1.4773108920487744e+04  1.4622196029538602e+04  1.4471284457880120e+04  1.4320373971612325e+04  1.4169464378682111e+04  1.4018555521277138e+04  1.3867647269640836e+04  1.3716739517030866e+04  1.3565832175601325e+04  1.3414925173034087e+04  1.3264018449779142e+04  1.3113111956791319e+04  1.2962205653672590e+04  1.2811299507146005e+04  1.2660393489801581e+04  1.2509487579065242e+04  1.2358581756350895e+04  1.2207676006363325e+04  1.2056770316525011e+04  1.1905864676505249e+04  1.1754959077833651e+04  1.1604053513583456e+04  1.1453147978112644e+04  1.1302242466853164e+04  1.1151336976140354e+04  1.1000431503076108e+04  1.0849526045420716e+04  1.0698620601509279e+04  1.0547715170189600e+04  1.0396809750779204e+04  1.0245904343039902e+04  1.0094998947168946e+04  9.9440935638064311e+03  9.7931881940592029e+03  9.6422828395422675e+03  9.4913775024390870e+03  9.3404721855831995e+03  9.1895668925641130e+03  9.0386616278614292e+03  8.8877563970123283e+03  8.7368512068186446e+03  8.5859460656013143e+03  8.4350409835118207e+03  8.2841359729123906e+03  8.1332310488392959e+03  7.9823262295669283e+03  7.8314215372940362e+03  7.6805169989784945e+03  7.5296126473525846e+03  7.3787085221582211e+03  7.2278046716501558e+03  7.0769011544263576e+03  6.9259980416583239e+03  6.7750954198110667e+03  6.6241933939639302e+03  6.4732920918701411e+03  6.3223916689273683e+03  6.1714923142747648e+03  6.0205942582882035e+03  5.8696977818174910e+03  5.7188032276034664e+03  5.5679110144355900e+03  5.4170216547716682e+03  5.2661357767519967e+03  5.1152541518145035e+03  4.9643777294685488e+03  4.8135076812186444e+03  4.6626454561232849e+03  4.5117928509295571e+03  4.3609520978370965e+03  4.2101259718867559e+03  4.0593179155757689e+03  3.9085321650754445e+03  3.7577738242362334e+03  3.6070487116739250e+03  3.4563626949994878e+03  3.3057177534987313e+03  3.1551080368113721e+03  3.0044394583417657e+03  2.8539562312479593e+03  2.6964713880237659e+03  1.8582167145763426e+03  1.7587355848195132e+03  1.7024849014247882e+03  1.6645540570770563e+03  1.6375865773181424e+03  1.6100277712338693e+03  1.5820799061721391e+03  1.5540289302214762e+03  1.5259106009989719e+03  1.4977517705722239e+03  1.4695656282383370e+03  1.4413603709853180e+03  1.4131412711292248e+03  1.3849118998573008e+03  1.3566747580724102e+03  1.3284316460995890e+03  1.3001838891607617e+03  1.2719324810174253e+03  1.2436781785352430e+03  1.2154215657292063e+03  1.1871630982150891e+03  1.1589031347367668e+03  1.1306419599622850e+03  1.1023798012532736e+03  1.0741168411924884e+03  1.0458532270718156e+03  1.0175890781662063e+03  9.8932449137037315e+02  9.6105954560803298e+02  9.3279430530934633e+02  9.0452882317303590e+02  8.7626314237386021e+02  8.4799729833621961e+02  8.1973132016579359e+02  7.9146523180987992e+02  7.6319905300136566e+02  7.3493280002940060e+02  7.0666648637086996e+02  6.7840012320992139e+02  6.5013371986750826e+02  6.2186728415890821e+02  5.9360082269406996e+02  5.6533434113344379e+02  5.3706784441035995e+02  5.0880133693020423e+02  4.8053482275656705e+02  4.5226830579545623e+02  4.2400178999094965e+02  3.9573527955013014e+02  3.6746877922320732e+02  3.3920229467914589e+02  3.1093583304308657e+02  2.8266940371110178e+02  2.5440301964576500e+02  2.2613669959432204e+02  1.9787047167257936e+02  1.6960438301645669e+02  1.4133849429322655e+02  1.1307307871055011e+02  8.4807235525916681e+01  5.6551529301689364e+01  2.8205946751846600e+01  7.9925948578423134e-01  1.8557900532636839e+04  1.8403801625272576e+04  1.8249748800857789e+04  1.8097262552630134e+04  1.7945312536567020e+04  1.7793678738482457e+04  1.7642239369083334e+04  1.7490930886167822e+04  1.7339714773427713e+04  1.7188566244654776e+04  1.7037468463621990e+04  1.6886409541523699e+04  1.6735380823908374e+04  1.6584375858933829e+04  1.6433389744853754e+04  1.6282418700675815e+04  1.6131459774013274e+04  1.5980510636532863e+04  1.5829569437187323e+04  1.5678634694671811e+04  1.5527705217183804e+04  1.5376780041617742e+04  1.5225858386869653e+04  1.5074939617567425e+04  1.4924023215624813e+04  1.4773108757747523e+04  1.4622195897522010e+04  1.4471284351069658e+04  1.4320373885500059e+04  1.4169464309578927e+04  1.4018555466159944e+04  1.3867647226029561e+04  1.3716739482888981e+04  1.3565832149255270e+04  1.3414925153107668e+04  1.3264018435140051e+04  1.3113111946507483e+04  1.2962205646976387e+04  1.2811299503405016e+04  1.2660393488494536e+04  1.2509487579762257e+04  1.2358581758697279e+04  1.2207676010066158e+04  1.2056770321342172e+04  1.1905864682236293e+04  1.1754959084312311e+04  1.1604053520671396e+04  1.1453147985694297e+04  1.1302242474831390e+04  1.1151336984432823e+04  1.1000431511612218e+04  1.0849526054138960e+04  1.0698620610354939e+04  1.0547715179112714e+04  1.0396809759732694e+04  1.0245904351977826e+04  1.0094998956044768e+04  9.9440935725712952e+03  9.7931882026601143e+03  9.6422828479200944e+03  9.4913775105263594e+03  9.3404721933016081e+03  9.1895668998215424e+03  9.0386616345485381e+03  8.8877564029984514e+03  8.7368512119468905e+03  8.5859460696826900e+03  8.4350409863181321e+03  8.2841359741676588e+03  8.1332310482093799e+03  7.9823262266469146e+03  7.8314215315929287e+03  7.6805169899006050e+03  7.5296126341748777e+03  7.3787085040027077e+03  7.2278046474502044e+03  7.0769011228855370e+03  6.9259980012000506e+03  6.7750953685168515e+03  6.6241933294975061e+03  6.4732920113840255e+03  6.3223915689474234e+03  6.1714921905571318e+03  6.0205941056413458e+03  5.8696975938799278e+03  5.7188029965649375e+03  5.5679107306856986e+03  5.4170213064551845e+03  5.2661353492038934e+03  5.1152536268404983e+03  4.9643770844292712e+03  4.8135068878702077e+03  4.6626444791718195e+03  4.5117916462916055e+03  4.3609506107097095e+03  4.2101241350473892e+03  4.0593156492263029e+03  3.9085293815249597e+03  3.7577704454195241e+03  3.6070447567092838e+03  3.4563582630361116e+03  3.3057148627653282e+03  3.1551047063291185e+03  3.0045150050452589e+03  2.8534807364021349e+03  2.7024294659378534e+03  2.5558262411303076e+03  2.4179066965728493e+03  2.3317620314937753e+03  1.6637458223975586e+03  1.6378227521676827e+03  1.6100310706504035e+03  1.5820941890741180e+03  1.5540352864683082e+03  1.5259148894395091e+03  1.4977546360343704e+03  1.4695676524503151e+03  1.4413618423002536e+03  1.4131423669953044e+03  1.3849127318063288e+03  1.3566753996141128e+03  1.3284321472456884e+03  1.3001842848945537e+03  1.2719327963899502e+03  1.2436784318525301e+03  1.2154217706057493e+03  1.1871632649322323e+03  1.1589032711624666e+03  1.1306420721871316e+03  1.1023798940388381e+03  1.0741169182929946e+03  1.0458532914687075e+03  1.0175891322417589e+03  9.8932453703795795e+02  9.6105958441106702e+02  9.3279433849729912e+02  9.0452885176039410e+02  8.7626316718626754e+02  8.4799732004685984e+02  8.1973133932425969e+02  7.9146524886520785e+02  7.6319906832048298e+02  7.3493281391194819e+02  7.0666649906112616e+02  6.7840013490638228e+02  6.5013373073056141e+02  6.2186729431691981e+02  5.9360083224812922e+02  5.6533435016092540e+02  5.3706785296739861e+02  5.0880134505308905e+02  4.8053483046196152e+02  4.5226831307920821e+02  4.2400179682502909e+02  3.9573528587686491e+02  3.6746878494534047e+02  3.3920229964304610e+02  3.1093583701032458e+02  2.8266940630806749e+02  2.5440302028031289e+02  2.2613669723616951e+02  1.9787046493849010e+02  1.6960436597441560e+02  1.4133848397371958e+02  1.1307286822970801e+02  8.4808448302192701e+01  5.6540115619799600e+01  2.8309260380983293e+01  -4.3494467595929752e-02  1.8554231245487172e+04  1.8402301046635021e+04  1.8249369559320836e+04  1.8097061594144096e+04  1.7945200648342365e+04  1.7793607559325577e+04  1.7642191201701804e+04  1.7490896684949694e+04  1.7339689662080247e+04  1.7188547340824400e+04  1.7037453961510277e+04  1.6886398253034342e+04  1.6735371936384756e+04  1.6584368798530264e+04  1.6433384095590729e+04  1.6282414154383585e+04  1.6131456098225421e+04  1.5980507653227654e+04  1.5829567008313579e+04  1.5678632712047771e+04  1.5527703595291905e+04  1.5376778712364008e+04  1.5225857295705608e+04  1.5074938720576021e+04  1.4924022477301058e+04  1.4773108149288109e+04  1.4622195395493543e+04  1.4471283936362410e+04  1.4320373542499716e+04  1.4169464025506571e+04  1.4018555230543185e+04  1.3867647030276645e+04  1.3716739319944609e+04  1.3565832013321338e+04  1.3414925039416175e+04  1.3264018339767914e+04  1.3113111866225239e+04  1.2962205579124387e+04  1.2811299445791943e+04  1.2660393439314154e+04  1.2509487537524992e+04  1.2358581722173942e+04  1.2207675978241668e+04  1.2056770293377316e+04  1.1905864657436265e+04  1.1754959062100632e+04  1.1604053500568303e+04  1.1453147967298795e+04  1.1302242457806258e+04  1.1151336968491993e+04  1.1000431496510100e+04  1.0849526039661250e+04  1.0698620596310637e+04  1.0547715165326979e+04  1.0396809746040324e+04  1.0245904338217088e+04  1.0094998942051368e+04  9.9440935581722351e+03  9.7931881876672342e+03  9.6422828321230463e+03  9.4913774936847549e+03  9.3404721751360175e+03  9.1895668800030562e+03  9.0386616126864592e+03  8.8877563786256596e+03  8.7368511845023459e+03  8.5859460384903996e+03  8.4350409505617481e+03  8.2841359328598101e+03  8.1332310001544747e+03  7.9823261703960416e+03  7.8314214653890631e+03  7.6805169116119769e+03  7.5296125412138626e+03  7.3787083932269534e+03  7.2278045150419994e+03  7.0769009642043802e+03  6.9259978106021781e+03  6.7750951391339195e+03  6.6241930529645497e+03  6.4732916775042377e+03  6.3223911652778206e+03  6.1714917018947071e+03  6.0205935133833855e+03  5.8696968752242328e+03  5.7188021235053538e+03  5.5679096687444335e+03  5.4170200130753647e+03  5.2661337717025481e+03  5.1152516997937237e+03  4.9643747263297219e+03  4.8135039968707524e+03  4.6626409277319708e+03  4.5117872746381136e+03  4.3609452193707020e+03  4.2101174777364704e+03  4.0593074300563203e+03  3.9085192676288866e+03  3.7577581287512417e+03  3.6070301345383455e+03  3.4563420845744899e+03  3.3057001373867506e+03  3.1551075359010820e+03  3.0045404048331643e+03  2.8539525204836746e+03  2.7041152943031479e+03  2.5574760957508870e+03  2.4104553326523014e+03  1.6953432543823524e+03  1.6659507602495039e+03  1.6379189206156823e+03  1.6101230750615932e+03  1.5821314145466447e+03  1.5540581390205989e+03  1.5259293639188286e+03  1.4977644789808267e+03  1.4695746031942258e+03  1.4413669006627065e+03  1.4131461332327976e+03  1.3849155875088250e+03  1.3566775968992063e+03  1.3284338581850675e+03  1.3001856301367018e+03  1.2719338625035064e+03  1.2436792822046582e+03  1.2154224523917142e+03  1.1871638138367368e+03  1.1589037145225509e+03  1.1306424311834421e+03  1.1023801852428908e+03  1.0741171547789604e+03  1.0458534836252345e+03  1.0175892883735831e+03  9.8932466381779136e+02  9.6105968722320517e+02  9.3279442170178640e+02  9.0452891889811508e+02  8.7626322113954825e+02  8.4799736316617611e+02  8.1973137352883987e+02  7.9146527572332320e+02  7.6319908911379525e+02  7.3493282968721724e+02  7.0666651067182056e+02  6.7840014304613237e+02  6.5013373595995711e+02  6.2186729708478310e+02  5.9360083290810394e+02  5.6533434898396047e+02  5.3706785015044352e+02  5.0880134072404564e+02  4.8053482468057979e+02  4.5226830583312329e+02  4.2400178801937778e+02  3.9573527531466186e+02  3.6746877229361223e+02  3.3920228437576321e+02  3.1093581831154933e+02  2.8266938290442351e+02  2.5440299013550779e+02  2.2613665701480494e+02  1.9787040864262485e+02  1.6960428458188366e+02  1.4133834432678555e+02  1.1307272873891044e+02  8.4807443944195612e+01  5.6544047240997720e+01  2.8285117245490991e+01  5.6319894668131060e-03  1.8552059766914790e+04  1.8400872869339342e+04  1.8248760566042420e+04  1.8096753503259075e+04  1.7945018334302633e+04  1.7793490291831353e+04  1.7642110927613387e+04  1.7490839328483831e+04  1.7339647364465291e+04  1.7188515402563906e+04  1.7037429406001098e+04  1.6886379107461573e+04  1.6735356843789072e+04  1.6584356796654163e+04  1.6433374484604297e+04  1.6282406414496007e+04  1.6131449836533015e+04  1.5980502568354383e+04  1.5829562866242290e+04  1.5678629329198922e+04  1.5527700826420383e+04  1.5376776441735699e+04  1.5225855430555179e+04  1.5074937186182751e+04  1.4924021213233205e+04  1.4773107106505051e+04  1.4622194534087086e+04  1.4471283223780822e+04  1.4320372952140717e+04  1.4169463535595436e+04  1.4018554823233231e+04  1.3867646690924736e+04  1.3716739036525205e+04  1.3565831775951121e+04  1.3414924839967251e+04  1.3264018171552394e+04  1.3113111723737484e+04  1.2962205457830034e+04  1.2811299341954986e+04  1.2660393349855021e+04  1.2509487459903954e+04  1.2358581654295216e+04  1.2207675918374436e+04  1.2056770240090658e+04  1.1905864609545417e+04  1.1754959018622549e+04  1.1604053460684843e+04  1.1453147930326084e+04  1.1302242423169126e+04  1.1151336935702448e+04  1.1000431465149119e+04  1.0849526009363113e+04  1.0698620566749272e+04  1.0547715136203798e+04  1.0396809717073065e+04  1.0245904309129286e+04  1.0094998912562040e+04  9.9440935279853766e+03  9.7931881564607756e+03  9.6422827995368243e+03  9.4913774593070466e+03  9.3404721384881650e+03  9.1895668405215529e+03  9.0386615697018733e+03  8.8877563313375740e+03  8.7368511319493646e+03  8.5859459795140865e+03  8.4350408837631512e+03  8.2841358565468672e+03  8.1332309122782999e+03  7.9823260684736342e+03  7.8314213464094419e+03  7.6805167719220071e+03  7.5296123763792875e+03  7.3787081978630513e+03  7.2278042826069068e+03  7.0769006867465823e+03  6.9259974784514343e+03  6.7750947405222769e+03  6.6241925735605719e+03  6.4732910998391535e+03  6.3223904680363821e+03  6.1714908590359319e+03  6.0205924930461515e+03  5.8696956383593460e+03  5.7188006221577516e+03  5.5679078438855677e+03  5.4170177918545869e+03  5.2661310639460153e+03  5.1152483935292821e+03  4.9643706820587895e+03  4.8134990402552221e+03  4.6626348403504171e+03  4.5117797825839434e+03  4.3609359799549911e+03  4.2101060660220992e+03  4.0592933308918969e+03  3.9085018896893353e+03  3.7577368845015267e+03  3.6070047105003196e+03  3.4563132517903641e+03  3.3056723652389087e+03  3.1550946718910764e+03  3.0045997711010205e+03  2.8543232423299437e+03  2.7049199036972818e+03  2.5573418747284786e+03  2.4077054443729739e+03  1.6945797275350635e+03  1.6666208268101946e+03  1.6382322795580083e+03  1.6102333852419902e+03  1.5821935080417038e+03  1.5540949144889896e+03  1.5259533453655424e+03  1.4977808869083422e+03  1.4695862602150171e+03  1.4413754154092176e+03  1.4131524901594544e+03  1.3849204170341545e+03  1.3566813182424012e+03  1.3284367587999589e+03  1.3001879123221174e+03  1.2719356718500619e+03  1.2436807255463741e+03  1.2154236094613500e+03  1.1871647450248456e+03  1.1589044661597222e+03  1.1306430392102820e+03  1.1023806778078342e+03  1.0741175541090092e+03  1.0458538073946049e+03  1.0175895507197002e+03  9.8932487610559042e+02  9.6105985862707587e+02  9.3279455965349996e+02  9.0452902943493916e+02  8.7626330917709970e+02  8.4799743271385228e+02  8.1973142786097935e+02  7.9146531751589453e+02  7.6319912055398754e+02  7.3493285256155264e+02  7.0666652643707960e+02  6.7840015288640495e+02  6.5013374083235442e+02  6.2186729775574918e+02  5.9360082998175619e+02  5.6533434292344793e+02  5.3706784129288314e+02  5.0880132928912406e+02  4.8053481077233158e+02  4.5226828943358032e+02  4.2400176897154358e+02  3.9573525329022505e+02  3.6746874673730343e+02  3.3920225441190689e+02  3.1093578258648165e+02  2.8266933931470174e+02  2.5440293534628989e+02  2.2613658554906988e+02  1.9787031123932195e+02  1.6960414379511312e+02  1.4133813242055075e+02  1.1307235035807638e+02  8.4806926210107648e+01  5.6542501388214021e+01  2.8277081902323609e+01  -4.2735239822343441e-04  1.8550546610740595e+04  1.8399671692207448e+04  1.8248077186412451e+04  1.8096368840446838e+04  1.7944781094097529e+04  1.7793333647148716e+04  1.7642002122170368e+04  1.7490760843054355e+04  1.7339589120266533e+04  1.7188471232163505e+04  1.7037395342273947e+04  1.6886352491019337e+04  1.6735335829894750e+04  1.6584340068683261e+04  1.6433361080199928e+04  1.6282395616062175e+04  1.6131441099951087e+04  1.5980495475214480e+04  1.5829557090995995e+04  1.5678624616046312e+04  1.5527696972708329e+04  1.5376773285811729e+04  1.5225852842734195e+04  1.5074935061930377e+04  1.4924019467955268e+04  1.4773105671519645e+04  1.4622193353480081e+04  1.4471282251930035e+04  1.4320372151752224e+04  1.4169462876136329e+04  1.4018554279674036e+04  1.3867646242725756e+04  1.3716738666816313e+04  1.3565831470866015e+04  1.3414924588101541e+04  1.3264017963521530e+04  1.3113111551815427e+04  1.2962205315653426e+04  1.2811299224280658e+04  1.2660393252360902e+04  1.2509487379025526e+04  1.2358581587090956e+04  1.2207675862415032e+04  1.2056770193367673e+04  1.1905864570395877e+04  1.1754958985666593e+04  1.1604053432774046e+04  1.1453147906500471e+04  1.1302242402621250e+04  1.1151336917747234e+04  1.1000431449198246e+04  1.0849525994903055e+04  1.0698620553322124e+04  1.0547715123390162e+04  1.0396809704476424e+04  1.0245904296361181e+04  1.0094998899227578e+04  9.9440935136684893e+03  9.7931881407086803e+03  9.6422827818431160e+03  9.4913774390927792e+03  9.3404721150802015e+03  9.1895668131274106e+03  9.0386615373800614e+03  8.8877562929623582e+03  8.7368510861685882e+03  8.5859459246984679e+03  8.4350408179451333e+03  8.2841357773466552e+03  8.1332308168142981e+03  7.9823259532537631e+03  7.8314212071991551e+03  7.6805166035838101e+03  7.5296121726774045e+03  7.3787079512253968e+03  7.2278039838347067e+03  7.0769003246595930e+03  6.9259970394538313e+03  6.7750942080704726e+03  6.6241919275093987e+03  6.4732903156365974e+03  6.3223895157289026e+03  6.1714897020357339e+03  6.0205910865976202e+03  5.8696939276232106e+03  5.7187985398065903e+03  5.5679053070711898e+03  5.4170146983640052e+03  5.2661272873056841e+03  5.1152437767449810e+03  4.9643650295928273e+03  4.8134921077547460e+03  4.6626263215883118e+03  4.5117692931597885e+03  4.3609230377917065e+03  4.2100900702441540e+03  4.0592735449679508e+03  3.9084774460405556e+03  3.7577068573358647e+03  3.6069683834447619e+03  3.4562709310586092e+03  3.3056276059184652e+03  3.1550606393441726e+03  3.0046230975084245e+03  2.8544972192308260e+03  2.7051196205477413e+03  2.5568424409174313e+03  2.4058636489507212e+03  1.6939518220911957e+03  1.6668688839558131e+03  1.6384875590072936e+03  1.6103674426906632e+03  1.5822705470835999e+03  1.5541433310442303e+03  1.5259854894154992e+03  1.4978031828523447e+03  1.4696022338630730e+03  1.4413871556490676e+03  1.4131612970054996e+03  1.3849271339985278e+03  1.3566865113838942e+03  1.3284408189883195e+03  1.3001911161565160e+03  1.2719382192838277e+03  1.2436827638443265e+03  1.2154252488667548e+03  1.1871660692508801e+03  1.1589055395675935e+03  1.1306439118178002e+03  1.1023813888479945e+03  1.0741181346009923e+03  1.0458542820301971e+03  1.0175899392672259e+03  9.8932519446844913e+02  9.6106011965132302e+02  9.3279477375054159e+02  9.0452920506621444e+02  8.7626345323447390e+02  8.4799755082030799e+02  8.1973152460975200e+02  7.9146539666160413e+02  7.6319918516599557e+02  7.3493290514733724e+02  7.0666656904160584e+02  6.7840018717209512e+02  6.5013376814320600e+02  6.2186731916830365e+02  5.9360084634492705e+02  5.6533435488860619e+02  5.3706784933500296e+02  5.0880133371916168e+02  4.8053481174021942e+02  4.5226828692014351e+02  4.2400176