<?xml version="1.0"?>
<VTKFile type="UnstructuredGrid"  version="0.1"  >
<UnstructuredGrid>
<Piece  NumberOfPoints="21400" NumberOfCells="42336">
<Points>
<DataArray  type="Float64"  NumberOfComponents="3"  format="ascii">0 0 0  0.004583333333333333 0 0  0.009166666666666667 0 0  0.01375 0 0  0.01833333333333333 0 0  0.02291666666666667 0 0  0.0275 0 0  0.03208333333333334 0 0  0.03666666666666667 0 0  0.04125 0 0  0.04583333333333334 0 0  0.05041666666666667 0 0  0.055 0 0  0.05958333333333334 0 0  0.06416666666666668 0 0  0.06875000000000001 0 0  0.07333333333333333 0 0  0.07791666666666666 0 0  0.08249999999999999 0 0  0.08708333333333333 0 0  0.09166666666666667 0 0  0.09625000000000002 0 0  0.1008333333333333 0 0  0.1054166666666667 0 0  0.11 0 0  0.1145833333333333 0 0  0.1191666666666667 0 0  0.12375 0 0  0.1283333333333334 0 0  0.1329166666666667 0 0  0.1375 0 0  0.1420833333333333 0 0  0.1466666666666667 0 0  0.15125 0 0  0.1558333333333333 0 0  0.1604166666666667 0 0  0.165 0 0  0.1695833333333333 0 0  0.1741666666666667 0 0  0.17875 0 0  0.1833333333333333 0 0  0.1879166666666667 0 0  0.1925 0 0  0.1970833333333333 0 0  0.2016666666666667 0 0  0.20625 0 0  0.2108333333333333 0 0  0.2154166666666666 0 0  0.22 0 0  0.2245833333333334 0 0  0.2291666666666667 0 0  0.23375 0 0  0.2383333333333333 0 0  0.2429166666666667 0 0  0.2475 0 0  0.2520833333333333 0 0  0.2566666666666667 0 0  0.26125 0 0  0.2658333333333334 0 0  0.2704166666666666 0 0  0.275 0 0  0.2795833333333334 0 0  0.2841666666666667 0 0  0.28875 0 0  0.2933333333333333 0 0  0.2979166666666667 0 0  0.3025 0 0  0.3070833333333334 0 0  0.3116666666666666 0 0  0.31625 0 0  0.3208333333333333 0 0  0.3254166666666667 0 0  0.33 0 0  0.3345833333333333 0 0  0.3391666666666667 0 0  0.34375 0 0  0.3483333333333333 0 0  0.3529166666666667 0 0  0.3575 0 0  0.3620833333333333 0 0  0.3666666666666667 0 0  0.37125 0 0  0.3758333333333334 0 0  0.3804166666666667 0 0  0.3850000000000001 0 0  0.3895833333333333 0 0  0.3941666666666667 0 0  0.39875 0 0  0.4033333333333334 0 0  0.4079166666666666 0 0  0.4125 0 0  0.4170833333333334 0 0  0.4216666666666667 0 0  0.42625 0 0  0.4308333333333333 0 0  0.4354166666666667 0 0  0.44 0 0  0.4445833333333333 0 0  0.4491666666666667 0 0  0.45375 0 0  0.4583333333333333 0 0  0.4629166666666666 0 0  0.4675 0 0  0.4720833333333334 0 0  0.4766666666666667 0 0  0.4812500000000001 0 0  0.4858333333333333 0 0  0.4904166666666667 0 0  0.495 0 0  0.4995833333333334 0 0  0.5041666666666667 0 0  0.50875 0 0  0.5133333333333334 0 0  0.5179166666666667 0 0  0.5225 0 0  0.5270833333333333 0 0  0.5316666666666667 0 0  0.53625 0 0  0.5408333333333333 0 0  0.5454166666666667 0 0  0.55 0 0  0.5545833333333333 0 0  0.5591666666666667 0 0  0.5637500000000001 0 0  0.5683333333333334 0 0  0.5729166666666666 0 0  0.5775 0 0  0.5820833333333334 0 0  0.5866666666666667 0 0  0.5912499999999999 0 0  0.5958333333333334 0 0  0.6004166666666667 0 0  0.605 0 0  0.6095833333333334 0 0  0.6141666666666667 0 0  0.61875 0 0  0.6233333333333333 0 0  0.6279166666666667 0 0  0.6325000000000001 0 0  0.6370833333333333 0 0  0.6416666666666666 0 0  0.64625 0 0  0.6508333333333334 0 0  0.6554166666666666 0 0  0.6599999999999999 0 0  0.6645833333333334 0 0  0.6691666666666667 0 0  0.67375 0 0  0.6783333333333333 0 0  0.6829166666666667 0 0  0.6875 0 0  0.6920833333333333 0 0  0.6966666666666667 0 0  0.70125 0 0  0.7058333333333333 0 0  0.7104166666666667 0 0  0.7150000000000001 0 0  0.7195833333333334 0 0  0.7241666666666666 0 0  0.72875 0 0  0.7333333333333334 0 0  0.7379166666666667 0 0  0.7425 0 0  0.7470833333333333 0 0  0.7516666666666667 0 0  0.75625 0 0  0.7608333333333334 0 0  0.7654166666666666 0 0  0.7700000000000001 0 0  0 0.002380952380952381 0  0.004583333333333333 0.002380952380952381 0  0.009166666666666667 0.002380952380952381 0  0.01375 0.002380952380952381 0  0.01833333333333333 0.002380952380952381 0  0.02291666666666667 0.002380952380952381 0  0.0275 0.002380952380952381 0  0.03208333333333334 0.002380952380952381 0  0.03666666666666667 0.002380952380952381 0  0.04125 0.002380952380952381 0  0.04583333333333334 0.002380952380952381 0  0.05041666666666667 0.002380952380952381 0  0.055 0.002380952380952381 0  0.05958333333333334 0.002380952380952381 0  0.06416666666666668 0.002380952380952381 0  0.06875000000000001 0.002380952380952381 0  0.07333333333333333 0.002380952380952381 0  0.07791666666666666 0.002380952380952381 0  0.08249999999999999 0.002380952380952381 0  0.08708333333333333 0.002380952380952381 0  0.09166666666666667 0.002380952380952381 0  0.09625000000000002 0.002380952380952381 0  0.1008333333333333 0.002380952380952381 0  0.1054166666666667 0.002380952380952381 0  0.11 0.002380952380952381 0  0.1145833333333333 0.002380952380952381 0  0.1191666666666667 0.002380952380952381 0  0.12375 0.002380952380952381 0  0.1283333333333334 0.002380952380952381 0  0.1329166666666667 0.002380952380952381 0  0.1375 0.002380952380952381 0  0.1420833333333333 0.002380952380952381 0  0.1466666666666667 0.002380952380952381 0  0.15125 0.002380952380952381 0  0.1558333333333333 0.002380952380952381 0  0.1604166666666667 0.002380952380952381 0  0.165 0.002380952380952381 0  0.1695833333333333 0.002380952380952381 0  0.1741666666666667 0.002380952380952381 0  0.17875 0.002380952380952381 0  0.1833333333333333 0.002380952380952381 0  0.1879166666666667 0.002380952380952381 0  0.1925 0.002380952380952381 0  0.1970833333333333 0.002380952380952381 0  0.2016666666666667 0.002380952380952381 0  0.20625 0.002380952380952381 0  0.2108333333333333 0.002380952380952381 0  0.2154166666666666 0.002380952380952381 0  0.22 0.002380952380952381 0  0.2245833333333334 0.002380952380952381 0  0.2291666666666667 0.002380952380952381 0  0.23375 0.002380952380952381 0  0.2383333333333333 0.002380952380952381 0  0.2429166666666667 0.002380952380952381 0  0.2475 0.002380952380952381 0  0.2520833333333333 0.002380952380952381 0  0.2566666666666667 0.002380952380952381 0  0.26125 0.002380952380952381 0  0.2658333333333334 0.002380952380952381 0  0.2704166666666666 0.002380952380952381 0  0.275 0.002380952380952381 0  0.2795833333333334 0.002380952380952381 0  0.2841666666666667 0.002380952380952381 0  0.28875 0.002380952380952381 0  0.2933333333333333 0.002380952380952381 0  0.2979166666666667 0.002380952380952381 0  0.3025 0.002380952380952381 0  0.3070833333333334 0.002380952380952381 0  0.3116666666666666 0.002380952380952381 0  0.31625 0.002380952380952381 0  0.3208333333333333 0.002380952380952381 0  0.3254166666666667 0.002380952380952381 0  0.33 0.002380952380952381 0  0.3345833333333333 0.002380952380952381 0  0.3391666666666667 0.002380952380952381 0  0.34375 0.002380952380952381 0  0.3483333333333333 0.002380952380952381 0  0.3529166666666667 0.002380952380952381 0  0.3575 0.002380952380952381 0  0.3620833333333333 0.002380952380952381 0  0.3666666666666667 0.002380952380952381 0  0.37125 0.002380952380952381 0  0.3758333333333334 0.002380952380952381 0  0.3804166666666667 0.002380952380952381 0  0.3850000000000001 0.002380952380952381 0  0.3895833333333333 0.002380952380952381 0  0.3941666666666667 0.002380952380952381 0  0.39875 0.002380952380952381 0  0.4033333333333334 0.002380952380952381 0  0.4079166666666666 0.002380952380952381 0  0.4125 0.002380952380952381 0  0.4170833333333334 0.002380952380952381 0  0.4216666666666667 0.002380952380952381 0  0.42625 0.002380952380952381 0  0.4308333333333333 0.002380952380952381 0  0.4354166666666667 0.002380952380952381 0  0.44 0.002380952380952381 0  0.4445833333333333 0.002380952380952381 0  0.4491666666666667 0.002380952380952381 0  0.45375 0.002380952380952381 0  0.4583333333333333 0.002380952380952381 0  0.4629166666666666 0.002380952380952381 0  0.4675 0.002380952380952381 0  0.4720833333333334 0.002380952380952381 0  0.4766666666666667 0.002380952380952381 0  0.4812500000000001 0.002380952380952381 0  0.4858333333333333 0.002380952380952381 0  0.4904166666666667 0.002380952380952381 0  0.495 0.002380952380952381 0  0.4995833333333334 0.002380952380952381 0  0.5041666666666667 0.002380952380952381 0  0.50875 0.002380952380952381 0  0.5133333333333334 0.002380952380952381 0  0.5179166666666667 0.002380952380952381 0  0.5225 0.002380952380952381 0  0.5270833333333333 0.002380952380952381 0  0.5316666666666667 0.002380952380952381 0  0.53625 0.002380952380952381 0  0.5408333333333333 0.002380952380952381 0  0.5454166666666667 0.002380952380952381 0  0.55 0.002380952380952381 0  0.5545833333333333 0.002380952380952381 0  0.5591666666666667 0.002380952380952381 0  0.5637500000000001 0.002380952380952381 0  0.5683333333333334 0.002380952380952381 0  0.5729166666666666 0.002380952380952381 0  0.5775 0.002380952380952381 0  0.5820833333333334 0.002380952380952381 0  0.5866666666666667 0.002380952380952381 0  0.5912499999999999 0.002380952380952381 0  0.5958333333333334 0.002380952380952381 0  0.6004166666666667 0.002380952380952381 0  0.605 0.002380952380952381 0  0.6095833333333334 0.002380952380952381 0  0.6141666666666667 0.002380952380952381 0  0.61875 0.002380952380952381 0  0.6233333333333333 0.002380952380952381 0  0.6279166666666667 0.002380952380952381 0  0.6325000000000001 0.002380952380952381 0  0.6370833333333333 0.002380952380952381 0  0.6416666666666666 0.002380952380952381 0  0.64625 0.002380952380952381 0  0.6508333333333334 0.002380952380952381 0  0.6554166666666666 0.002380952380952381 0  0.6599999999999999 0.002380952380952381 0  0.6645833333333334 0.002380952380952381 0  0.6691666666666667 0.002380952380952381 0  0.67375 0.002380952380952381 0  0.6783333333333333 0.002380952380952381 0  0.6829166666666667 0.002380952380952381 0  0.6875 0.002380952380952381 0  0.6920833333333333 0.002380952380952381 0  0.6966666666666667 0.002380952380952381 0  0.70125 0.002380952380952381 0  0.7058333333333333 0.002380952380952381 0  0.7104166666666667 0.002380952380952381 0  0.7150000000000001 0.002380952380952381 
[...]
<PointData  Scalars="pressure"> 
<DataArray  type="Float64"  Name="pressure"  format="ascii">1.4866805425232220e+04  1.4704374583958717e+04  1.4550554862672640e+04  1.4397936742353033e+04  1.4245968881779338e+04  1.4094321776223645e+04  1.3942875747058553e+04  1.3791563148569760e+04  1.3640344383825546e+04  1.3489194049021689e+04  1.3338094991720314e+04  1.3187035140865682e+04  1.3036005732020527e+04  1.2885000243658686e+04  1.2734013728186213e+04  1.2583042373476361e+04  1.2432083205448738e+04  1.2281133880345533e+04  1.2130192535992473e+04  1.1979257682994914e+04  1.1828328123674355e+04  1.1677402890716572e+04  1.1526481200111040e+04  1.1375562414638876e+04  1.1224646015271022e+04  1.1073731578582274e+04  1.0922818758797757e+04  1.0771907273446221e+04  1.0620996891849401e+04  1.0470087425861637e+04  1.0319178722409784e+04  1.0168270657485367e+04  1.0017363131317925e+04  9.8664560645180845e+03  9.7155493950253767e+03  9.5646430757326834e+03  9.4137370726893660e+03  9.2628313638096879e+03  9.1119259380345211e+03  8.9610207949126361e+03  8.8101159445849789e+03  8.6592114081713498e+03  8.5083072185751025e+03  8.3574034217383014e+03  8.2065000783981868e+03  8.0555972664168439e+03  7.9046950837803024e+03  7.7537936523930848e+03  7.6028931228301826e+03  7.4519936802540951e+03  7.3010955517615412e+03  7.1501990154983096e+03  6.9993044119754350e+03  6.8484121581435829e+03  6.6975227649442058e+03  6.5466368592670678e+03  6.3957552115187809e+03  6.2448787703581393e+03  6.0940087065880880e+03  5.9431464686884210e+03  5.7922938529287840e+03  5.6414530911148495e+03  5.4906269579622767e+03  5.3398188956997519e+03  5.1890331402766788e+03  5.0382747953599610e+03  4.8875496794133569e+03  4.7368636599216416e+03  4.5862187160655558e+03  4.4356089973968865e+03  4.2849404172454597e+03  4.1344571887085722e+03  3.9769723441723804e+03  2.7910148914129159e+03  2.6915337609803269e+03  2.6352830772294524e+03  2.5973522326655079e+03  2.5703847527806570e+03  2.5428259465864667e+03  2.5148780814271499e+03  2.4868271053889566e+03  2.4587087760857880e+03  2.4305499455823101e+03  2.4023638031727901e+03  2.3741585458424292e+03  2.3459394459044111e+03  2.3177100745429279e+03  2.2894729326575034e+03  2.2612298205694278e+03  2.2329820634963298e+03  2.2047306551946917e+03  2.1764763525242738e+03  2.1482197394930408e+03  2.1199612717083605e+03  2.0917013079040062e+03  2.0634401327358405e+03  2.0351779735507841e+03  2.0069150129137938e+03  1.9786513980951961e+03  1.9503872483438142e+03  1.9221226605226682e+03  1.8938577135170083e+03  1.8655924717102939e+03  1.8373269877445143e+03  1.8090613047254692e+03  1.7807954579936857e+03  1.7525294765527672e+03  1.7242633842256707e+03  1.6959972005936820e+03  1.6677309417608792e+03  1.6394646209779037e+03  1.6111982491518472e+03  1.5829318352636787e+03  1.5546653867104142e+03  1.5263989095858863e+03  1.4981324089113377e+03  1.4698658888249513e+03  1.4415993527377075e+03  1.4133328034616418e+03  1.3850662433154193e+03  1.3567996742112978e+03  1.3285330977267615e+03  1.3002665151635772e+03  1.2719999275964972e+03  1.2437333359134404e+03  1.2154667408486753e+03  1.1872001430102562e+03  1.1589335429027321e+03  1.1306669409459896e+03  1.1024003374909269e+03  1.0741337328325533e+03  1.0458671272210177e+03  1.0176005208709386e+03  9.8933391396943557e+02  9.6106730668313196e+02  9.3280069916440777e+02  9.0453409155713030e+02  8.7626748400210079e+02  8.4800087664242130e+02  8.1973426962899657e+02  7.9146766312640909e+02  7.6320105731942840e+02  7.3493445242044470e+02  7.0666784867819945e+02  6.7840124638825660e+02  6.5013464590581600e+02  6.2186804766162675e+02  5.9360145218202990e+02  5.6533486011457433e+02  5.3706827226118423e+02  5.0880168962172047e+02  4.8053511345208307e+02  4.5226854534300367e+02  4.2400198732887208e+02  3.9573544204112454e+02  3.6746891292938062e+02  3.3920240458841613e+02  3.1093592325542210e+02  2.8266947759157370e+02  2.5440307995014575e+02  2.2613674857192987e+02  1.9787051115021154e+02  1.6960441446655335e+02  1.4133851888880696e+02  1.1307309736900409e+02  8.4807248943063556e+01  5.6551537979381585e+01  2.8205951000743561e+01  7.9925960170619070e-01  1.4858522861646157e+04  1.4704423954366155e+04  1.4550371130241785e+04  1.4397884882522136e+04  1.4245934867203705e+04  1.4094301070128302e+04  1.3942861702040478e+04  1.3791553220787340e+04  1.3640337110122706e+04  1.3489188583915797e+04  1.3338090806035369e+04  1.3187031887793393e+04  1.3036003174882275e+04  1.2884998215635367e+04  1.2734012108520114e+04  1.2583041072804112e+04  1.2432082156416409e+04  1.2281133031407191e+04  1.2130191847194630e+04  1.1979257123038649e+04  1.1828327667821910e+04  1.1677402519270043e+04  1.1526480897287292e+04  1.1375562167724416e+04  1.1224645813978368e+04  1.1073731414553749e+04  1.0922818625218775e+04  1.0771907164740940e+04  1.0620996803439131e+04  1.0470087353971447e+04  1.0319178663912486e+04  1.0168270609774600e+04  1.0017363092203994e+04  9.8664560321415884e+03  9.7155493677846480e+03  9.5646430522218507e+03  9.4137370516443571e+03  9.2628313440599868e+03  9.1119259184586299e+03  8.9610207743955016e+03  8.8101159219756646e+03  8.6592113822392603e+03  8.5083071879630115e+03  8.3574033849102707e+03  8.2065000335802033e+03  8.0555972115276536e+03  7.9046950163494703e+03  7.7537935694624957e+03  7.6028930208345027e+03  7.4519935548742578e+03  7.3010953977440067e+03  7.1501988264304719e+03  6.9993041800048723e+03  6.8484118736251467e+03  6.6975224159939962e+03  6.5466364311964262e+03  6.3957546861139417e+03  6.2448781249636640e+03  6.0940079129468459e+03  5.9431454914956239e+03  5.7922926480919759e+03  5.6414516038236634e+03  5.4906251209880620e+03  5.3398166292393616e+03  5.1890303566350558e+03  5.0382714164685012e+03  4.8875457243875699e+03  4.7368592279084451e+03  4.5862158252918107e+03  4.4356056668822639e+03  4.2850159639239027e+03  4.1339816938392551e+03  3.9829304221161051e+03  3.8363271962202766e+03  3.6984076507249820e+03  3.6122629851008587e+03  2.5965439979786634e+03  2.5706209276294703e+03  2.5428292460014577e+03  2.5148923643280650e+03  2.4868334616350448e+03  2.4587130645259017e+03  2.4305528110443379e+03  2.4023658273849533e+03  2.3741600171578602e+03  2.3459405417713137e+03  2.3177109064931383e+03  2.2894735742007942e+03  2.2612303217175795e+03  2.2329824592327122e+03  2.2047309705704452e+03  2.1764766058455471e+03  2.1482199443744762e+03  2.1199614384314864e+03  2.0917014443370017e+03  2.0634402449695699e+03  2.0351780663471502e+03  2.0069150900274269e+03  1.9786514625080333e+03  1.9503873024387299e+03  1.9221227062137625e+03  1.8938577523485885e+03  1.8655925049329105e+03  1.8373270163739721e+03  1.8090613295890184e+03  1.7807954797664722e+03  1.7525294957867832e+03  1.7242634013728905e+03  1.6959972160246375e+03  1.6677309557796445e+03  1.6394646338342279e+03  1.6111982610509981e+03  1.5829318463744632e+03  1.5546653971717201e+03  1.5263989195120248e+03  1.4981324183964250e+03  1.4698658979464899e+03  1.4415993615595337e+03  1.4133328120363371e+03  1.3850662516863003e+03  1.3567996824140425e+03  1.3285331057907561e+03  1.3002665231130177e+03  1.2719999354512947e+03  1.2437333436899687e+03  1.2154667485603857e+03  1.1872001506681779e+03  1.1589335505158870e+03  1.1306669485217267e+03  1.1024003450351977e+03  1.0741337403501363e+03  1.0458671347156935e+03  1.0176005283456312e+03  9.8933392142632044e+02  9.6106731412371812e+02  9.3280070658958937e+02  9.0453409896721917e+02  8.7626749139683432e+02  8.4800088402094593e+02  8.1973427698982766e+02  7.9146767046736431e+02  7.6320106463752506e+02  7.3493445971176345e+02  7.0666785593769441e+02  6.7840125360950708e+02  6.5013465308069306e+02  6.2186805477985115e+02  5.9360145923057837e+02  5.6533486707687359e+02  5.3706827911600544e+02  5.0880169634163582e+02  4.8053512000127432e+02  4.5226855167409047e+02  4.2400199337822232e+02  3.9573544772175006e+02  3.6746891811989411e+02  3.3920240911533705e+02  3.1093592686400820e+02  2.8266947989482844e+02  2.5440308034496272e+02  2.2613674601908056e+02  1.9787050425919503e+02  1.6960439729949874e+02  1.4133850847153883e+02  1.1307288681397748e+02  8.4808461666193395e+01  5.6540124261383305e+01  2.8309264627967330e+01  -4.3494475664495415e-02  1.4854853574421028e+04  1.4702923375651877e+04  1.4549991888624119e+04  1.4397683923948365e+04  1.4245822978881019e+04  1.4094229890859437e+04  1.3942813534528821e+04  1.3791519019416086e+04  1.3640311998593403e+04  1.3489169679868093e+04  1.3338076303662718e+04  1.3187020598989766e+04  1.3035994286979309e+04  1.2884991154773221e+04  1.2734006458702166e+04  1.2583036525839903e+04  1.2432078479814440e+04  1.2281130047115355e+04  1.2130189417124915e+04  1.1979255138964658e+04  1.1828326044171963e+04  1.1677401187884550e+04  1.1526479803538201e+04  1.1375561267598188e+04  1.1224645071852998e+04  1.1073730801484005e+04  1.0922818117599136e+04  1.0771906743252925e+04  1.0620996452215226e+04  1.0470087059925632e+04  1.0319178416199837e+04  1.0168270399351502e+04  1.0017362911466971e+04  9.8664558746275234e+03  9.7155492279186983e+03  9.5646429251019254e+03  9.4137369328529603e+03  9.2628312294955831e+03  9.1119258041796329e+03  8.9610206564706350e+03  8.8101157963346850e+03  8.6592112445180974e+03  8.5083070333370906e+03  8.3574032079091940e+03  8.2064998278761232e+03  8.0555969696882958e+03  7.9046947295449581e+03  7.7537932271127220e+03  7.6028926101804509e+03  7.4519930604523624e+03  7.3010948007367078e+03  7.1501981038584181e+03  6.9993033037158384e+03  6.8484108090208965e+03  6.6975211204183415e+03  6.5466348518845143e+03  6.3957527575743461e+03  6.2448757656333719e+03  6.0940050209328347e+03  5.9431419392195749e+03  5.7922882757494572e+03  5.6414462119171103e+03  5.4906184632099175e+03  5.3398084096850489e+03  5.1890202424232157e+03  5.0382590995412447e+03  4.8875311020047930e+03  4.7368430492742309e+03  4.5862010997734769e+03  4.4356084963422063e+03  4.2850413636233361e+03  4.1344534778556363e+03  3.9846162504426566e+03  3.8379770508152806e+03  3.6909562867307400e+03  2.6281414301211894e+03  2.5987489358334838e+03  2.5707170960708731e+03  2.5429212504077659e+03  2.5149295897968336e+03  2.4868563141847612e+03  2.4587275390037503e+03  2.4305626539903838e+03  2.4023727781295015e+03  2.3741650755220248e+03  2.3459443080116603e+03  2.3177137621997340e+03  2.2894757714913876e+03  2.2612320326640634e+03  2.2329838044838375e+03  2.2047320366951853e+03  2.1764774562114826e+03  2.1482206261773908e+03  2.1199619873567149e+03  2.0917018877223591e+03  2.0634406039966493e+03  2.0351783575886216e+03  2.0069153265588648e+03  1.9786516547197921e+03  1.9503874586376253e+03  1.9221228330750337e+03  1.8938578552596082e+03  1.8655925882574695e+03  1.8373270836575189e+03  1.8090613837194444e+03  1.7807955231010496e+03  1.7525295302530458e+03  1.7242634285492832e+03  1.6959972372053005e+03  1.6677309720266878e+03  1.6394646460200527e+03  1.6111982698926715e+03  1.5829318524617065e+03  1.5546654009897450e+03  1.5263989214602047e+03  1.4981324188035758e+03  1.4698658970833981e+03  1.4415993596492340e+03  1.4133328092625516e+03  1.3850662482003731e+03  1.3567996783406411e+03  1.3285331012325566e+03  1.3002665181545615e+03  1.2719999301621588e+03  1.2437333381273718e+03  1.2154667427713300e+03  1.1872001446912084e+03  1.1589335443825312e+03  1.1306669422576733e+03  1.1024003386612560e+03  1.0741337338830115e+03  1.0458671281686106e+03  1.0176005217288259e+03  9.8933391474741904e+02  9.6106730738801741e+02  9.3280069980024825e+02  9.0453409212536883e+02  8.7626748450160528e+02  8.4800087706941724e+02  8.1973426997688864e+02  7.9146766338548002e+02  7.6320105747639218e+02  7.3493445245782914e+02  7.0666784857350910e+02  6.7840124611286217e+02  6.5013464542347299e+02  6.2186804692650787e+02  5.9360145113608348e+02  5.6533485868394405e+02  5.3706827035129459e+02  5.0880168711042535e+02  4.8053511017994555e+02  4.5226854109924102e+02  4.2400198183059297e+02  3.9573543490192412e+02  3.6746890361058502e+02  3.3920239232115921e+02  3.1093590691202547e+02  2.8266945546489006e+02  2.5440304936247651e+02  2.2613670511738974e+02  1.9787044741497400e+02  1.6960431547012178e+02  1.4133836848296886e+02  1.1307274706401621e+02  8.4807457121713895e+01  5.6544055762653841e+01  2.8285121429748322e+01  5.6319887897375203e-03  1.4852682095719232e+04  1.4701495198224766e+04  1.4549382895207387e+04  1.4397375832912983e+04  1.4245640664673276e+04  1.4094112623173272e+04  1.3942733260217379e+04  1.3791461662687785e+04  1.3640269700666813e+04  1.3489137741235130e+04  1.3338051747706344e+04  1.3187001452878369e+04  1.3035979193733470e+04  1.2884979152111180e+04  1.2733996846764669e+04  1.2583028784800646e+04  1.2432072216726765e+04  1.2281124960551135e+04  1.2130185273003901e+04  1.1979251753630801e+04  1.1828323272287404e+04  1.1677398913602712e+04  1.1526477933957383e+04  1.1375559727832304e+04  1.1224643801269744e+04  1.1073729750799534e+04  1.0922817246610277e+04  1.0771906019050171e+04  1.0620995847762360e+04  1.0470086552921588e+04  1.0319177988159527e+04  1.0168270034857354e+04  1.0017362597554000e+04  9.8664556002727186e+03  9.7155489836114139e+03  9.5646427024765035e+03  9.4137367243677782e+03  9.2628310281452741e+03  9.1119256032287467e+03  8.9610204491979785e+03  8.8101155757781944e+03  8.6592110032100209e+03  8.5083067630188398e+03  8.3574028992142612e+03  8.2064994699678809e+03  8.0555965498372507e+03  7.9046942326269664e+03  7.7537926350054604e+03  7.6028919010298268e+03  7.4519922077731017e+03  7.3010937723013603e+03  7.1501968603157329e+03  6.9993017968616887e+03  6.8484089796213639e+03  6.6975188954534406e+03  6.5466321410407763e+03  6.3957494487644890e+03  6.2448717192638996e+03  6.0940000625873854e+03  5.9431358504122136e+03  5.7922807825204272e+03  5.6414369715336798e+03  5.4906070506988772e+03  5.3397943098653059e+03  5.1890028639452566e+03  5.0382378548499573e+03  4.8875056776055726e+03  4.7368142161958258e+03  4.5861733273873333e+03  4.4355956321410831e+03  4.2851007297405140e+03  4.1348241995877179e+03  3.9854208597553761e+03  3.8378428297301234e+03  3.6882063984011584e+03  2.6273779032552789e+03  2.5994190023819897e+03  2.5710304550029364e+03  2.5430315605795777e+03  2.5149916832854860e+03  2.4868930896487532e+03  2.4587515204479537e+03  2.4305790619171962e+03  2.4023844351513799e+03  2.3741735902714559e+03  2.3459506649431796e+03  2.3177185917320530e+03  2.2894794928439601e+03  2.2612349332910699e+03  2.2329860866845584e+03  2.2047338460608089e+03  2.1764788995767417e+03  2.1482217832759238e+03  2.1199629185801568e+03  2.0917026394026216e+03  2.0634412120759507e+03  2.0351788502173627e+03  2.0069157259664400e+03  1.9786519785833309e+03  1.9503877210980925e+03  1.9221230455016755e+03  1.8938580268320579e+03  1.8655927264138827e+03  1.8373271944429428e+03  1.8090614720589799e+03  1.7807955930156718e+03  1.7525295850312455e+03  1.7242634708843516e+03  1.6959972693056800e+03  1.6677309957050313e+03  1.6394646627653635e+03  1.6111982809289095e+03  1.5829318587955181e+03  1.5546654034494181e+03  1.5263989207275192e+03  1.4981324154398787e+03  1.4698658915509811e+03  1.4415993523288739e+03  1.4133328004679156e+03  1.3850662381898519e+03  1.3567996673270827e+03  1.3285330893912655e+03  1.3002665056298802e+03  1.2719999170728809e+03  1.2437333245711927e+03  1.2154667288285023e+03  1.1872001304275441e+03  1.1589335298518620e+03  1.1306669275038639e+03  1.1024003237198378e+03  1.0741337187825127e+03  1.0458671129316147e+03  1.0176005063728154e+03  9.8933389928542238e+02  9.6106729182908737e+02  9.3280068414979098e+02  9.0453407638532940e+02  8.7626746867051872e+02  8.4800086114232090e+02  8.1973425394508808e+02  7.9146764723615252e+02  7.6320104119200198e+02  7.3493443601531294e+02  7.0666783194317884e+02  6.7840122925694300e+02  6.5013462829416449e+02  6.2186802946340401e+02  5.9360143326271771e+02  5.6533484030311672e+02  5.3706825133866755e+02  5.0880166730561592e+02  4.8053508937392655e+02  4.5226851901617721e+02  4.2400195810110330e+02  3.9573540902281184e+02  3.6746887488262865e+02  3.3920235975026640e+02  3.1093586904721468e+02  2.8266941012285707e+02  2.5440299314298579e+02  2.2613663249005049e+02  1.9787034907539365e+02  1.6960417393746744e+02  1.4133815599341401e+02  1.1307236824065167e+02  8.4806939069380064e+01  5.6542509703901914e+01  2.8277085984418395e+01  -4.2735393427874307e-04  1.4851168939362995e+04  1.4700294020908012e+04  1.4548699515382865e+04  1.4396991169889256e+04  1.4245403424231848e+04  1.4093955978220665e+04  1.3942624454460665e+04  1.3791383176889181e+04  1.3640211456029714e+04  1.3489093570310819e+04  1.3338017683350157e+04  1.3186974835678511e+04  1.3035958178924659e+04  1.2884962423034780e+04  1.2733983441022556e+04  1.2583017984746884e+04  1.2432063478182270e+04  1.2281117865032784e+04  1.2130179494874505e+04  1.1979247036982837e+04  1.1828319414337280e+04  1.1677395752539776e+04  1.1526475339904728e+04  1.1375557596022940e+04  1.1224642046827410e+04  1.1073728304700220e+04  1.0922816052524939e+04  1.0771905030853393e+04  1.0620995027549880e+04  1.0470085869420192e+04  1.0319177415441771e+04  1.0168269551294292e+04  1.0017362184954183e+04  9.8664552431668581e+03  9.7155486686503227e+03  9.5646424179159021e+03  9.4137364596181505e+03  9.2628307733680376e+03  9.1119253489623916e+03  8.9610201859991284e+03  8.8101152938632931e+03  8.6592106920834121e+03  8.5083064110722353e+03  8.3574024932813754e+03  8.2064989948157636e+03  8.0555959875727012e+03  7.9046935619921614e+03  7.7537918305310432e+03  7.6028909320059183e+03  7.4519910369882837e+03  7.3010923544858242e+03  7.1501951402062223e+03  6.9992997067811893e+03  6.8484064364334163e+03  6.6975157967073692e+03  6.5466283600670449e+03  6.3957448284072825e+03  6.2448660638522933e+03  6.0939931276586804e+03  5.9431273296487534e+03  5.7922702914471638e+03  5.6414240280120375e+03  5.4905910538026801e+03  5.3397745230215105e+03  5.1889784195407365e+03  5.0382078270644824e+03  4.8874693500430185e+03  4.7367718950509961e+03  4.5861285677323631e+03  4.4355615993258170e+03  4.2851240559360222e+03  4.1349981763258647e+03  3.9856205764849069e+03  3.8373433958308201e+03  3.6863646029081356e+03  2.6267499977776706e+03  2.5996670595082437e+03  2.5712857344367344e+03  2.5431656180161290e+03  2.5150687223183413e+03  2.4869415061978079e+03  2.4587836644943809e+03  2.4306013578602110e+03  2.4024004088009597e+03  2.3741853305154041e+03  2.3459594717960508e+03  2.3177253087062368e+03  2.2894846859986137e+03  2.2612389934964353e+03  2.2329892905404399e+03  2.2047363935213389e+03  2.1764809379077396e+03  2.1482234227218896e+03  2.1199642428557850e+03  2.0917037128709744e+03  2.0634420847571027e+03  2.0351795613470670e+03  2.0069163065672358e+03  1.9786524533510899e+03  1.9503881098061106e+03  1.9221233640593975e+03  1.8938582880928964e+03  1.8655929407982010e+03  1.8373273704230887e+03  1.8090616165401213e+03  1.7807957116370239e+03  1.7525296824058814e+03  1.7242635507911709e+03  1.6959973348438161e+03  1.6677310494185563e+03  1.6394647067443443e+03  1.6111983168915408e+03  1.5829318881550403e+03  1.5546654273687484e+03  1.5263989401639265e+03  1.4981324311815717e+03  1.4698659042471043e+03  1.4415993625141250e+03  1.4133328085827643e+03  1.3850662445971561e+03  1.3567996723257468e+03  1.3285330932274765e+03  1.3002665085063461e+03  1.2719999191564320e+03  1.2437333259990296e+03  1.2154667297133317e+03  1.1872001308617928e+03  1.1589335299111333e+03  1.1306669272497609e+03  1.1024003232022649e+03  1.0741337180415358e+03  1.0458671119989554e+03  1.0176005052730309e+03  9.8933389803681496e+02  9.6106729044437918e+02  9.3280068263658427e+02  9.0453407474637015e+02  8.7626746690376888e+02  8.4800085924083680e+02  8.1973425189669661e+02  7.9146764502289784e+02  7.6320103878932935e+02  7.3493443339093801e+02  7.0666782905555920e+02  6.7840122605324893e+02  6.5013462470758873e+02  6.2186802540959150e+02  5.9360142863499243e+02  5.6533483496604219e+02  5.3706824511925026e+02  5.0880165998110772e+02  4.8053508065463944e+02  4.5226850852081498e+02  4.2400194