<?xml version="1.0"?>
<VTKFile type="UnstructuredGrid"  version="0.1"  >
<UnstructuredGrid>
<Piece  NumberOfPoints="21400" NumberOfCells="42336">
<Points>
<DataArray  type="Float64"  NumberOfComponents="3"  format="ascii">0 0 0  0.004583333333333333 0 0  0.009166666666666667 0 0  0.01375 0 0  0.01833333333333333 0 0  0.02291666666666667 0 0  0.0275 0 0  0.03208333333333334 0 0  0.03666666666666667 0 0  0.04125 0 0  0.04583333333333334 0 0  0.05041666666666667 0 0  0.055 0 0  0.05958333333333334 0 0  0.06416666666666668 0 0  0.06875000000000001 0 0  0.07333333333333333 0 0  0.07791666666666666 0 0  0.08249999999999999 0 0  0.08708333333333333 0 0  0.09166666666666667 0 0  0.09625000000000002 0 0  0.1008333333333333 0 0  0.1054166666666667 0 0  0.11 0 0  0.1145833333333333 0 0  0.1191666666666667 0 0  0.12375 0 0  0.1283333333333334 0 0  0.1329166666666667 0 0  0.1375 0 0  0.1420833333333333 0 0  0.1466666666666667 0 0  0.15125 0 0  0.1558333333333333 0 0  0.1604166666666667 0 0  0.165 0 0  0.1695833333333333 0 0  0.1741666666666667 0 0  0.17875 0 0  0.1833333333333333 0 0  0.1879166666666667 0 0  0.1925 0 0  0.1970833333333333 0 0  0.2016666666666667 0 0  0.20625 0 0  0.2108333333333333 0 0  0.2154166666666666 0 0  0.22 0 0  0.2245833333333334 0 0  0.2291666666666667 0 0  0.23375 0 0  0.2383333333333333 0 0  0.2429166666666667 0 0  0.2475 0 0  0.2520833333333333 0 0  0.2566666666666667 0 0  0.26125 0 0  0.2658333333333334 0 0  0.2704166666666666 0 0  0.275 0 0  0.2795833333333334 0 0  0.2841666666666667 0 0  0.28875 0 0  0.2933333333333333 0 0  0.2979166666666667 0 0  0.3025 0 0  0.3070833333333334 0 0  0.3116666666666666 0 0  0.31625 0 0  0.3208333333333333 0 0  0.3254166666666667 0 0  0.33 0 0  0.3345833333333333 0 0  0.3391666666666667 0 0  0.34375 0 0  0.3483333333333333 0 0  0.3529166666666667 0 0  0.3575 0 0  0.3620833333333333 0 0  0.3666666666666667 0 0  0.37125 0 0  0.3758333333333334 0 0  0.3804166666666667 0 0  0.3850000000000001 0 0  0.3895833333333333 0 0  0.3941666666666667 0 0  0.39875 0 0  0.4033333333333334 0 0  0.4079166666666666 0 0  0.4125 0 0  0.4170833333333334 0 0  0.4216666666666667 0 0  0.42625 0 0  0.4308333333333333 0 0  0.4354166666666667 0 0  0.44 0 0  0.4445833333333333 0 0  0.4491666666666667 0 0  0.45375 0 0  0.4583333333333333 0 0  0.4629166666666666 0 0  0.4675 0 0  0.4720833333333334 0 0  0.4766666666666667 0 0  0.4812500000000001 0 0  0.4858333333333333 0 0  0.4904166666666667 0 0  0.495 0 0  0.4995833333333334 0 0  0.5041666666666667 0 0  0.50875 0 0  0.5133333333333334 0 0  0.5179166666666667 0 0  0.5225 0 0  0.5270833333333333 0 0  0.5316666666666667 0 0  0.53625 0 0  0.5408333333333333 0 0  0.5454166666666667 0 0  0.55 0 0  0.5545833333333333 0 0  0.5591666666666667 0 0  0.5637500000000001 0 0  0.5683333333333334 0 0  0.5729166666666666 0 0  0.5775 0 0  0.5820833333333334 0 0  0.5866666666666667 0 0  0.5912499999999999 0 0  0.5958333333333334 0 0  0.6004166666666667 0 0  0.605 0 0  0.6095833333333334 0 0  0.6141666666666667 0 0  0.61875 0 0  0.6233333333333333 0 0  0.6279166666666667 0 0  0.6325000000000001 0 0  0.6370833333333333 0 0  0.6416666666666666 0 0  0.64625 0 0  0.6508333333333334 0 0  0.6554166666666666 0 0  0.6599999999999999 0 0  0.6645833333333334 0 0  0.6691666666666667 0 0  0.67375 0 0  0.6783333333333333 0 0  0.6829166666666667 0 0  0.6875 0 0  0.6920833333333333 0 0  0.6966666666666667 0 0  0.70125 0 0  0.7058333333333333 0 0  0.7104166666666667 0 0  0.7150000000000001 0 0  0.7195833333333334 0 0  0.7241666666666666 0 0  0.72875 0 0  0.7333333333333334 0 0  0.7379166666666667 0 0  0.7425 0 0  0.7470833333333333 0 0  0.7516666666666667 0 0  0.75625 0 0  0.7608333333333334 0 0  0.7654166666666666 0 0  0.7700000000000001 0 0  0 0.002380952380952381 0  0.004583333333333333 0.002380952380952381 0  0.009166666666666667 0.002380952380952381 0  0.01375 0.002380952380952381 0  0.01833333333333333 0.002380952380952381 0  0.02291666666666667 0.002380952380952381 0  0.0275 0.002380952380952381 0  0.03208333333333334 0.002380952380952381 0  0.03666666666666667 0.002380952380952381 0  0.04125 0.002380952380952381 0  0.04583333333333334 0.002380952380952381 0  0.05041666666666667 0.002380952380952381 0  0.055 0.002380952380952381 0  0.05958333333333334 0.002380952380952381 0  0.06416666666666668 0.002380952380952381 0  0.06875000000000001 0.002380952380952381 0  0.07333333333333333 0.002380952380952381 0  0.07791666666666666 0.002380952380952381 0  0.08249999999999999 0.002380952380952381 0  0.08708333333333333 0.002380952380952381 0  0.09166666666666667 0.002380952380952381 0  0.09625000000000002 0.002380952380952381 0  0.1008333333333333 0.002380952380952381 0  0.1054166666666667 0.002380952380952381 0  0.11 0.002380952380952381 0  0.1145833333333333 0.002380952380952381 0  0.1191666666666667 0.002380952380952381 0  0.12375 0.002380952380952381 0  0.1283333333333334 0.002380952380952381 0  0.1329166666666667 0.002380952380952381 0  0.1375 0.002380952380952381 0  0.1420833333333333 0.002380952380952381 0  0.1466666666666667 0.002380952380952381 0  0.15125 0.002380952380952381 0  0.1558333333333333 0.002380952380952381 0  0.1604166666666667 0.002380952380952381 0  0.165 0.002380952380952381 0  0.1695833333333333 0.002380952380952381 0  0.1741666666666667 0.002380952380952381 0  0.17875 0.002380952380952381 0  0.1833333333333333 0.002380952380952381 0  0.1879166666666667 0.002380952380952381 0  0.1925 0.002380952380952381 0  0.1970833333333333 0.002380952380952381 0  0.2016666666666667 0.002380952380952381 0  0.20625 0.002380952380952381 0  0.2108333333333333 0.002380952380952381 0  0.2154166666666666 0.002380952380952381 0  0.22 0.002380952380952381 0  0.2245833333333334 0.002380952380952381 0  0.2291666666666667 0.002380952380952381 0  0.23375 0.002380952380952381 0  0.2383333333333333 0.002380952380952381 0  0.2429166666666667 0.002380952380952381 0  0.2475 0.002380952380952381 0  0.2520833333333333 0.002380952380952381 0  0.2566666666666667 0.002380952380952381 0  0.26125 0.002380952380952381 0  0.2658333333333334 0.002380952380952381 0  0.2704166666666666 0.002380952380952381 0  0.275 0.002380952380952381 0  0.2795833333333334 0.002380952380952381 0  0.2841666666666667 0.002380952380952381 0  0.28875 0.002380952380952381 0  0.2933333333333333 0.002380952380952381 0  0.2979166666666667 0.002380952380952381 0  0.3025 0.002380952380952381 0  0.3070833333333334 0.002380952380952381 0  0.3116666666666666 0.002380952380952381 0  0.31625 0.002380952380952381 0  0.3208333333333333 0.002380952380952381 0  0.3254166666666667 0.002380952380952381 0  0.33 0.002380952380952381 0  0.3345833333333333 0.002380952380952381 0  0.3391666666666667 0.002380952380952381 0  0.34375 0.002380952380952381 0  0.3483333333333333 0.002380952380952381 0  0.3529166666666667 0.002380952380952381 0  0.3575 0.002380952380952381 0  0.3620833333333333 0.002380952380952381 0  0.3666666666666667 0.002380952380952381 0  0.37125 0.002380952380952381 0  0.3758333333333334 0.002380952380952381 0  0.3804166666666667 0.002380952380952381 0  0.3850000000000001 0.002380952380952381 0  0.3895833333333333 0.002380952380952381 0  0.3941666666666667 0.002380952380952381 0  0.39875 0.002380952380952381 0  0.4033333333333334 0.002380952380952381 0  0.4079166666666666 0.002380952380952381 0  0.4125 0.002380952380952381 0  0.4170833333333334 0.002380952380952381 0  0.4216666666666667 0.002380952380952381 0  0.42625 0.002380952380952381 0  0.4308333333333333 0.002380952380952381 0  0.4354166666666667 0.002380952380952381 0  0.44 0.002380952380952381 0  0.4445833333333333 0.002380952380952381 0  0.4491666666666667 0.002380952380952381 0  0.45375 0.002380952380952381 0  0.4583333333333333 0.002380952380952381 0  0.4629166666666666 0.002380952380952381 0  0.4675 0.002380952380952381 0  0.4720833333333334 0.002380952380952381 0  0.4766666666666667 0.002380952380952381 0  0.4812500000000001 0.002380952380952381 0  0.4858333333333333 0.002380952380952381 0  0.4904166666666667 0.002380952380952381 0  0.495 0.002380952380952381 0  0.4995833333333334 0.002380952380952381 0  0.5041666666666667 0.002380952380952381 0  0.50875 0.002380952380952381 0  0.5133333333333334 0.002380952380952381 0  0.5179166666666667 0.002380952380952381 0  0.5225 0.002380952380952381 0  0.5270833333333333 0.002380952380952381 0  0.5316666666666667 0.002380952380952381 0  0.53625 0.002380952380952381 0  0.5408333333333333 0.002380952380952381 0  0.5454166666666667 0.002380952380952381 0  0.55 0.002380952380952381 0  0.5545833333333333 0.002380952380952381 0  0.5591666666666667 0.002380952380952381 0  0.5637500000000001 0.002380952380952381 0  0.5683333333333334 0.002380952380952381 0  0.5729166666666666 0.002380952380952381 0  0.5775 0.002380952380952381 0  0.5820833333333334 0.002380952380952381 0  0.5866666666666667 0.002380952380952381 0  0.5912499999999999 0.002380952380952381 0  0.5958333333333334 0.002380952380952381 0  0.6004166666666667 0.002380952380952381 0  0.605 0.002380952380952381 0  0.6095833333333334 0.002380952380952381 0  0.6141666666666667 0.002380952380952381 0  0.61875 0.002380952380952381 0  0.6233333333333333 0.002380952380952381 0  0.6279166666666667 0.002380952380952381 0  0.6325000000000001 0.002380952380952381 0  0.6370833333333333 0.002380952380952381 0  0.6416666666666666 0.002380952380952381 0  0.64625 0.002380952380952381 0  0.6508333333333334 0.002380952380952381 0  0.6554166666666666 0.002380952380952381 0  0.6599999999999999 0.002380952380952381 0  0.6645833333333334 0.002380952380952381 0  0.6691666666666667 0.002380952380952381 0  0.67375 0.002380952380952381 0  0.6783333333333333 0.002380952380952381 0  0.6829166666666667 0.002380952380952381 0  0.6875 0.002380952380952381 0  0.6920833333333333 0.002380952380952381 0  0.6966666666666667 0.002380952380952381 0  0.70125 0.002380952380952381 0  0.7058333333333333 0.002380952380952381 0  0.7104166666666667 0.002380952380952381 0  0.7150000000000001 0.002380952380952381 
[...]
<PointData  Scalars="pressure"> 
<DataArray  type="Float64"  Name="pressure"  format="ascii">1.9911411342173753e+04  1.9748980500815607e+04  1.9595160779237594e+04  1.9442542658407227e+04  1.9290574797084810e+04  1.9138927690514480e+04  1.8987481660030975e+04  1.8836169059870797e+04  1.8684950293039845e+04  1.8533799955656043e+04  1.8382700895185204e+04  1.8231641040453327e+04  1.8080611626878457e+04  1.7929606132757905e+04  1.7778619610282825e+04  1.7627648247065143e+04  1.7476689068706928e+04  1.7325739731064874e+04  1.7174798371496749e+04  1.7023863500040061e+04  1.6872933918327413e+04  1.6722008658208881e+04  1.6571086934660259e+04  1.6420168109233156e+04  1.6269251661407259e+04  1.6118337165948706e+04  1.5967424274889036e+04  1.5816512703096509e+04  1.5665602216666150e+04  1.5514692623538784e+04  1.5363783765894708e+04  1.5212875513968453e+04  1.5061967761006837e+04  1.4911060419150837e+04  1.4760153416066416e+04  1.4609246692184266e+04  1.4458340198435812e+04  1.4307433894394633e+04  1.4156527746749342e+04  1.4005621728048238e+04  1.3854715815666583e+04  1.3703809990956921e+04  1.3552904238549532e+04  1.3401998545776607e+04  1.3251092902197935e+04  1.3100187299210309e+04  1.2949281729725893e+04  1.2798376187907334e+04  1.2647470668949680e+04  1.2496565168900985e+04  1.2345659684514721e+04  1.2194754213128637e+04  1.2043848752565415e+04  1.1892943301051382e+04  1.1742037857150386e+04  1.1591132419710206e+04  1.1440226987819575e+04  1.1289321560774200e+04  1.1138416138050477e+04  1.0987510719286014e+04  1.0836605304266062e+04  1.0685699892915572e+04  1.0534794485296374e+04  1.0383889081609488e+04  1.0232983682202674e+04  1.0082078287583379e+04  9.9311728984377187e+03  9.7802675156560708e+03  9.6293621403663383e+03  9.4784567739760423e+03  9.3275514182249208e+03  9.1766460752498224e+03  9.0257407476646076e+03  8.8748354386577066e+03  8.7239301521112739e+03  8.5730248927462635e+03  8.4221196662988859e+03  8.2712144797350848e+03  8.1203093415111553e+03  7.9694042618901885e+03  7.8184992533264431e+03  7.6675943309321128e+03  7.5166895130441699e+03  7.3657848219129946e+03  7.2148802845390092e+03  7.0639759336896268e+03  6.9130718091357085e+03  6.7621679591558759e+03  6.6112644423678003e+03  6.4603613299592271e+03  6.3094587084085733e+03  6.1585566828062256e+03  6.0076553809145598e+03  5.8567549581387730e+03  5.7058556036242444e+03  5.5549575477519866e+03  5.4040610713760798e+03  5.2531665172408893e+03  5.1022743041388185e+03  4.9513849445301330e+03  4.8004990665571868e+03  4.6496174416596368e+03  4.4987410193483465e+03  4.3478709711291176e+03  4.1970087460615832e+03  4.0461561408938705e+03  3.8953153878265884e+03  3.7444892619015282e+03  3.5936812056168619e+03  3.4428954551448815e+03  3.2921371143371002e+03  3.1414120018104754e+03  2.9907259851773110e+03  2.8400810437249816e+03  2.6894713270950292e+03  2.5388027486940568e+03  2.3883195216825488e+03  2.2308346785631488e+03  1.5190173787013564e+03  1.4195362490416458e+03  1.3632855657161590e+03  1.3253547214355965e+03  1.2983872417547132e+03  1.2708284357801169e+03  1.2428805708627974e+03  1.2148295950959853e+03  1.1867112661035137e+03  1.1585524359614958e+03  1.1303662939776384e+03  1.1021610371530110e+03  1.0739419378196794e+03  1.0457125671844490e+03  1.0174754261740222e+03  9.8923231514246584e+02  9.6098455934703065e+02  9.3273315259218612e+02  9.0447885179586706e+02  8.7622224103666167e+02  8.4796377600775463e+02  8.1970381554729363e+02  7.9144264443821896e+02  7.6318049018233182e+02  7.3491753553360172e+02  7.0665392799335211e+02  6.7838978709319861e+02  6.5012521004308735e+02  6.2186027615493526e+02  5.9359505033849155e+02  5.6532958588727945e+02  5.3706392671718925e+02  5.0879810918126634e+02  4.8053216355662596e+02  4.5226611528019038e+02  4.2399998599734528e+02  3.9573379448090924e+02  3.6746755747742947e+02  3.3920129054576694e+02  3.1093500897390800e+02  2.8266872890530590e+02  2.5440246889094686e+02  2.2613625231923365e+02  1.9787011117519606e+02  1.6960409583785466e+02  1.4133826971344959e+02  1.1307290834707730e+02  8.4807113021553192e+01  5.6551450071787031e+01  2.8205907958500017e+01  7.9925842736929498e-01  1.9903128778608960e+04  1.9749029871244566e+04  1.9594977046829332e+04  1.9442490798600891e+04  1.9290540782536609e+04  1.9138906984450477e+04  1.8987467615049314e+04  1.8836159132131223e+04  1.8684943019387898e+04  1.8533794490610966e+04  1.8382696709573280e+04  1.8231637787468997e+04  1.8080609069846363e+04  1.7929604104862919e+04  1.7778617990772025e+04  1.7627646946580942e+04  1.7476688019902449e+04  1.7325738882402657e+04  1.7174797683033616e+04  1.7023862940489587e+04  1.6872933462966990e+04  1.6722008287358964e+04  1.6571086632559985e+04  1.6420167863196039e+04  1.6269251461178570e+04  1.6118337003210487e+04  1.5967424142874866e+04  1.5816512596288987e+04  1.5665602130557447e+04  1.5514692554439916e+04  1.5363783710782765e+04  1.5212875470363533e+04  1.5061967726872668e+04  1.4911060392814145e+04  1.4760153396151351e+04  1.4609246677558942e+04  1.4458340188168666e+04  1.4307433887718675e+04  1.4156527743032915e+04  1.4005621726770965e+04  1.3854715816399717e+04  1.3703809993347089e+04  1.3552904242305473e+04  1.3401998550658182e+04  1.3251092908007096e+04  1.3100187305783702e+04  1.2949281736928724e+04  1.2798376195628312e+04  1.2647470677096882e+04  1.2496565177398372e+04  1.2345659693299351e+04  1.2194754222148278e+04  1.2043848761776590e+04  1.1892943310417773e+04  1.1742037866641467e+04  1.1591132429300098e+04  1.1440226997486085e+04  1.1289321570497987e+04  1.1138416147814343e+04  1.0987510729074249e+04  1.0836605314063867e+04  1.0685699902708504e+04  1.0534794495069802e+04  1.0383889091348063e+04  1.0232983691889731e+04  1.0082078297200340e+04  9.9311729079633860e+03  9.7802675250658303e+03  9.6293621496312553e+03  9.4784567830617780e+03  9.3275514270904296e+03  9.1766460838458515e+03  9.0257407559318235e+03  8.8748354465244975e+03  8.7239301594910685e+03  8.5730248995342808e+03  8.4221196723682187e+03  8.2712144849319557e+03  8.1203093456491179e+03  7.9694042647431634e+03  7.8184992546201956e+03  7.6675943303339309e+03  7.5166895101503251e+03  7.3657848162334631e+03  7.2148802754789158e+03  7.0639759205265937e+03  6.9130717909922896e+03  6.7621679349658971e+03  6.6112644108352033e+03  6.4603612895077322e+03  6.3094586571199407e+03  6.1585566183444034e+03  6.0076553004322341e+03  5.8567548581619440e+03  5.7058554799091726e+03  5.5549573951072316e+03  5.4040608834402365e+03  5.2531662862037647e+03  5.1022740203900685e+03  4.9513845962145679e+03  4.8004986390098120e+03  4.6496169166862028e+03  4.4987403743094992e+03  4.3478701777809865e+03  4.1970077691103143e+03  4.0461549362560113e+03  3.8953139006991914e+03  3.7444874250620505e+03  3.5936789392671799e+03  3.4428926715940634e+03  3.2921337355199321e+03  3.1414080468452307e+03  2.9907215532131659e+03  2.8400781529906103e+03  2.6894679966115737e+03  2.5388782953960053e+03  2.3878440268352642e+03  2.2367927564702786e+03  2.0901895317794492e+03  1.9522699873547399e+03  1.8661253223798064e+03  1.3245464867544022e+03  1.2986234166005468e+03  1.2708317351929827e+03  1.2428948537605163e+03  1.2148359513378377e+03  1.1867155545381520e+03  1.1585553014166001e+03  1.1303683181811668e+03  1.1021625084577702e+03  1.0739430336734745e+03  1.0457133991186217e+03  1.0174760676977405e+03  9.8923281626677237e+02  9.6098495505439735e+02  9.3273346793265102e+02  9.0447910507423819e+02  8.7622244586594536e+02  8.4796394266747802e+02  8.1970395190319095e+02  7.9144275657815865e+02  7.6318058286454175e+02  7.3491761250819116e+02  7.0665399223668214e+02  6.7838984098124411e+02  6.5012525548137387e+02  6.2186031467705891e+02  5.9359508318154985e+02  5.6532961405005801e+02  5.3706395100523173e+02  5.0879813024176167e+02  4.8053218190514929e+02  4.5226613132064352e+02  4.2400000003581874e+02  3.9573380673353267e+02  3.6746756807142128e+02  3.3920129951154644e+02  3.1093501622389374e+02  2.8266873418940287e+02  2.5440247171796310e+02  2.2613625174115495e+02  1.9787010587551441e+02  1.6960407993828778e+02  1.4133826028722626e+02  1.1307269854400941e+02  8.4808326283348705e+01  5.6540036719740407e+01  2.8309221605175328e+01  -4.3494393922632428e-02  1.9899459491459413e+04  1.9747529292607123e+04  1.9594597805292502e+04  1.9442289840114980e+04  1.9290428894312106e+04  1.9138835805293769e+04  1.8987419447667988e+04  1.8836124930913331e+04  1.8684917908040705e+04  1.8533775586780921e+04  1.8382682207461967e+04  1.8231626498980131e+04  1.8080600182323338e+04  1.7929597044460064e+04  1.7778612341509863e+04  1.7627642400289762e+04  1.7476684344115856e+04  1.7325735899098989e+04  1.7174795254161731e+04  1.7023860957867797e+04  1.6872931841077818e+04  1.6722006958108544e+04  1.6571085541399956e+04  1.6420166966209501e+04  1.6269250722860716e+04  1.6118336394758238e+04  1.5967423640855086e+04  1.5816512181592268e+04  1.5665601787569869e+04  1.5514692270383057e+04  1.5363783475184784e+04  1.5212875274633399e+04  1.5061967563955915e+04  1.4911060256913714e+04  1.4760153282500483e+04  1.4609246582236070e+04  1.4458340107946169e+04  1.4307433819939130e+04  1.4156527685507715e+04  1.4005621677697152e+04  1.3854715774291688e+04  1.3703809956980487e+04  1.3552904210671055e+04  1.3401998522923841e+04  1.3251092883486628e+04  1.3100187283911049e+04  1.2949281717236785e+04  1.2798376177731443e+04  1.2647470660676456e+04  1.2496565162190904e+04  1.2345659679086606e+04  1.2194754208749155e+04  1.2043848749040342e+04  1.1892943298218384e+04  1.1742037854872944e+04  1.1591132417872523e+04  1.1440226986322248e+04  1.1289321559530521e+04  1.1138416136983202e+04  1.0987510718324462e+04  1.0836605303343502e+04  1.0685699891966718e+04  1.0534794484254940e+04  1.0383889080405756e+04  1.0232983680760839e+04  1.0082078285818758e+04  9.9311728962535690e+03  9.7802675129399904e+03  9.6293621369860593e+03  9.4784567697745060e+03  9.3275514130143783e+03  9.1766460688048664e+03  9.0257407397137013e+03  8.8748354288730570e+03  8.7239301400965724e+03  8.5730248780218426e+03  8.4221196482837549e+03  8.2712144577251820e+03  8.1203093146529018e+03  7.9694042291484720e+03  7.8184992134456834e+03  7.6675942823889773e+03  7.5166894539901205e+03  7.3657847501043652e+03  7.2148801972519386e+03  7.0639758276164139e+03  6.9130716802584539e+03  6.7621678025922520e+03  6.6112642521825364e+03  6.4603610989333438e+03  6.3094584277563599e+03  6.1585563418273887e+03  6.0076549665655757e+03  5.8567544545031406e+03  5.7058549912556246e+03  5.5549568028565564e+03  5.4040601647905087e+03  5.2531654131490495e+03  5.1022729584527533e+03  4.9513833028379286e+03  4.8004970615109969e+03  4.6496149896413999e+03  4.4987380162114396e+03  4.3478672867825962e+03  4.1970042176711413e+03  4.0461505646028331e+03  3.8953085093601476e+03  3.7444807677507438e+03  3.5936707200964402e+03  3.4428825576968393e+03  3.2921214188500608e+03  3.1413934246722029e+03  2.9907053747488762e+03  2.8400634276086812e+03  2.6894708261793589e+03  2.5389036951787366e+03  2.3883158109100955e+03  2.2384785848264410e+03  2.0918393863888446e+03  1.9448186234283596e+03  1.3561439186651082e+03  1.3267514245914788e+03  1.2987195850371099e+03  1.2709237395913153e+03  1.2429320792183153e+03  1.2148588038728822e+03  1.1867300289970394e+03  1.1585651443386639e+03  1.1303752688958039e+03  1.1021675667849688e+03  1.0739467998684090e+03  1.0457162547696532e+03  1.0174782649205259e+03  9.8923452713064989e+02  9.6098630020499525e+02  9.3273453393513557e+02  9.0447995529154491e+02  8.7622312748818501e+02  8.4796449137306047e+02  8.1970439502146075e+02  7.9144311528033563e+02  7.6318087371056788e+02  7.3491784855798960e+02  7.0665418386130705e+02  6.7838999646362618e+02  6.5012538146707823e+02  6.2186041651640596e+02  5.9359516519179988e+02  5.6532967971781795e+02  5.3706400314337611e+02  5.0879817111099624e+02  4.8053221330729804e+02  4.5226615466833306e+02  4.2400001640110412e+02  3.9573381687576108e+02  3.6746757244171977e+02  3.3920129822681594e+02  3.1093500899516908e+02  2.8266872017481194e+02  2.5440244923390966e+02  2.2613621773966801e+02  1.9787005459179366e+02  1.6960400253789425e+02  1.4133812376188524e+02  1.1307256142096485e+02  8.4807323628931798e+01  5.6543969436455242e+01  2.8285079042644490e+01  5.6319956539611585e-03  1.9897288012887224e+04  1.9746101115311660e+04  1.9593988812014293e+04  1.9441981749230188e+04  1.9290246580272636e+04  1.9138718537799843e+04  1.8987339173579916e+04  1.8836067574447872e+04  1.8684875610426232e+04  1.8533743648521002e+04  1.8382657651953494e+04  1.8231607353408195e+04  1.8080585089728665e+04  1.7929585042585190e+04  1.7778602730524908e+04  1.7627634660403972e+04  1.7476678082425620e+04  1.7325730814228336e+04  1.7174791112093622e+04  1.7023857575022808e+04  1.6872929072210973e+04  1.6722004687485907e+04  1.6571083676256403e+04  1.6420165431824575e+04  1.6269249458802980e+04  1.6118335351987445e+04  1.5967422779463508e+04  1.5816511469028728e+04  1.5665601197232761e+04  1.5514691780498461e+04  1.5363783067907019e+04  1.5212874935320528e+04  1.5061967280583853e+04  1.4911060019600902e+04  1.4760153083121184e+04  1.4609246414104988e+04  1.4458339965560810e+04  1.4307433698768955e+04  1.4156527581821358e+04  1.4005621588420665e+04  1.3854715696892146e+04  1.3703809889370381e+04  1.3552904151129593e+04  1.3401998470032257e+04  1.3251092836074891e+04  1.3100187241014015e+04  1.2949281678057985e+04  1.2798376141613307e+04  1.2647470627075701e+04  1.2496565130658224e+04  1.2345659649249885e+04  1.2194754180299558e+04  1.2043848721720797e+04  1.1892943271813967e+04  1.1742037829202874e+04  1.1591132392783406e+04  1.1440226961682363e+04  1.1289321535224892e+04  1.1138416112909315e+04  1.0987510694388446e+04  1.0836605279456622e+04  1.0685699868042058e+04  1.0534794460204179e+04  1.0383889056135840e+04  1.0232983656170552e+04  1.0082078260794908e+04  9.9311728706667800e+03  9.7802674866398629e+03  9.6293621097955620e+03  9.4784567414833618e+03  9.3275513833712121e+03  9.1766460375078041e+03  9.0257407063990959e+03  8.8748353931018864e+03  8.7239301013380209e+03  8.5730248356334359e+03  8.4221196014873076e+03  8.2712144055776243e+03  8.1203092560109208e+03  7.9694041626255803e+03  7.8184991373600960e+03  7.6675941947002866e+03  7.5166893522223190e+03  7.3657846312522288e+03  7.2148800576670947e+03  7.0639756628685245e+03  6.9130714849660226e+03  6.7621675702160865e+03  6.6112639747733156e+03  6.4603607668226414e+03  6.3094580291777129e+03  6.1585558624505929e+03  6.0076543889228706e+03  5.8567537572801202e+03  5.7058541484119860e+03  5.5549557825317443e+03  5.4040589279357910e+03  5.2531639118097455e+03  5.1022711336006241e+03  4.9513810816225723e+03  4.8004943537587778e+03  4.6496116833803253e+03  4.4987339719430474e+03  4.3478623301688785e+03  4.1969981302907408e+03  4.0461430725491978e+03  3.8952992699443748e+03  3.7444693560357068e+03  3.5936566209307271e+03  3.4428651797553243e+03  3.2921001745976346e+03  3.1413680006306167e+03  2.9906765419602038e+03  2.8400356554551281e+03  2.6894579621622465e+03  2.5389630614377661e+03  2.3886865327452724e+03  2.2392831942067160e+03  2.0917051653499666e+03  1.9420687351355473e+03  1.3553803918064211e+03  1.3274214911331017e+03  1.2990329439597392e+03  1.2710340497498905e+03  1.2429941726882746e+03  1.2148955793118753e+03  1.1867540104089210e+03  1.1585815522245910e+03  1.1303869258666857e+03  1.1021760814713730e+03  1.0739531567225040e+03  1.0457210842072388e+03  1.0174819861574905e+03  9.8923742761681717e+02  9.6098858223432751e+02  9.3273634309233000e+02  9.0448139840341662e+02  8.7622428427871012e+02  8.4796542222207029e+02  8.1970514624643693e+02  7.9144372280582763e+02  7.6318136566530313e+02  7.3491824714471579e+02  7.0665450672430222e+02  6.7839025770322257e+02  6.5012559240205678e+02  6.2186058626342810e+02  5.9359530110998935e+02  5.6532978775236188e+02  5.3706408809218408e+02  5.0879823683150670e+02  4.8053226287540275e+02  4.5226619049736689e+02  4.2400004032530057e+02  3.9573383019886489e+02  3.6746757594670322e+02  3.3920129213538576e+02  3.1093499285317324e+02  2.8266869261539591e+02  2.5440240752431652e+02  2.2613615689355819e+02  1.9786996574613244e+02  1.6960386856727840e+02  1.4133791718545174e+02  1.1307218708307494e+02  8.4806808802081619e+01  5.6542425465121454e+01  2.8277044632661440e+01  -4.2733836923496713e-04  1.9895774856713320e+04  1.9744899938180046e+04  1.9593305432384630e+04  1.9441597086418278e+04  1.9290009340067896e+04  1.9138561893117629e+04  1.8987230368137385e+04  1.8835989089018971e+04  1.8684817366228155e+04  1.8533699478121423e+04  1.8382623588227314e+04  1.8231580736967142e+04  1.8080564075835762e+04  1.7929568314616001e+04  1.7778589326122623e+04  1.7627623861972654e+04  1.7476669345846738e+04  1.7325723721092134e+04  1.7174785336851812e+04  1.7023852861875635e+04  1.6872925218505508e+04  1.6722001531569920e+04  1.6571081088445102e+04  1.6420163307583931e+04  1.6269247713539269e+04  1.6118333917019298e+04  1.5967421598877436e+04  1.5816510497203322e+04  1.5665600396875050e+04  1.5514691121076688e+04  1.5363782524393104e+04  1.5212874487176448e+04  1.5061966910941552e+04  1.4911059714596546e+04  1.4760152831353409e+04  1.4609246206192893e+04  1.4458339793782787e+04  1.4307433556767031e+04  1.4156527464358864e+04  1.4005621491183449e+04  1.3854715616325278e+04  1.3703809822543961e+04  1.3552904095628412e+04  1.3401998423864969e+04  1.3251092797599276e+04  1.3100187208875359e+04  1.2949281651138361e+04  1.2798376118989723e+04  1.2647470607985582e+04  1.2496565114470890e+04  1.2345659635443000e+04  1.2194754168439618e+04  1.2043848711446932e+04  1.1892943262824479e+04  1.1742037821243981e+04  1.1591132385639752e+04  1.1440226955169002e+04  1.1289321529180383e+04  1.1138416107189696e+04  1.0987510688861870e+04  1.0836605273998421e+04  1.0685699862530118e+04  1.0534794454514364e+04  1.0383889050137372e+04  1.0232983649721116e+04  1.0082078253735352e+04  9.9311728628151759e+03  9.7802674777847096e+03  9.6293620996878890e+03  9.4784567298274251e+03  9.3275513698134546e+03  9.1766460216236464e+03  9.0257406876770656e+03  8.8748353709244911e+03  8.7239300749586600e+03  8.5730248041484610e+03  8.4221195638021873e+03  8.2712143603659279e+03  8.1203092016645905e+03  7.9694040971945551e+03  7.8184990584790148e+03  7.6675940994994489e+03  7.5166892372194579e+03  7.3657844922208942e+03  7.2148798894764586e+03  7.0639754592883164e+03  6.9130712384286926e+03  6.7621672715265977e+03  6.6112636127545138e+03  6.4603603278812425e+03  6.3094574967722256e+03  6.1585552164375758e+03  6.0076536047517320e+03  5.8567528049984930e+03  5.7058529914330366e+03  5.5549543761006480e+03  5.4040572172139327e+03  5.2531618294702321e+03  5.1022685967956986e+03  4.9513779881396031e+03  4.8004905771245021e+03  4.6496070666007472e+03  4.4987283194806550e+03  4.3478553976709463e+03  4.1969896115302508e+03  4.0461325831257932e+03  3.8952863277809993e+03  3.7444533602568290e+03  3.5936368350049684e+03  3.4428407361037898e+03  3.2920701474281677e+03  3.1413316735700628e+03  2.9906342212220675e+03  2.8399908961266729e+03  2.6894239296053820e+03  2.5389863878328342e+03  2.3888605096308897e+03  2.2394829110384044e+03  2.0912057315172824e+03  1.9402269396831095e+03  1.3547524863382057e+03  1.3276695482544885e+03  1.2992882233817213e+03  1.2711681071680134e+03  1.2430712116949696e+03  1.2149439958258652e+03  1.1867861544099917e+03  1.1586038481102232e+03  1.1304028994446899e+03  1.1021878216268597e+03  1.0739619634667044e+03  1.0457278010484588e+03  1.0174871791498869e+03  9.8924148762451637e+02  9.6099178584967206e+02  9.3273889026034794e+02  9.0448343637882147e+02  8.7622592329244969e+02  8.4796674597229014e+02  8.1970621907596933e+02  7.9144459470998459e+02  7.6318207584947288e+02  7.3491882659412079e+02  7.0665498008883048e+02  6.7839064469932316e+02  6.5012590886862745e+02  6.2186084496592150e+02  5.9359551235848971e+02  5.6532995988004677e+02  5.3706422782721847e+02  5.0879834958592983e+02  4.8053235296758334e+02  4.5226626131911848e+02  4.2400009