<?xml version="1.0"?>
<VTKFile type="UnstructuredGrid"  version="0.1"  >
<UnstructuredGrid>
<Piece  NumberOfPoints="21400" NumberOfCells="42336">
<Points>
<DataArray  type="Float64"  NumberOfComponents="3"  format="ascii">0 0 0  0.004583333333333333 0 0  0.009166666666666667 0 0  0.01375 0 0  0.01833333333333333 0 0  0.02291666666666667 0 0  0.0275 0 0  0.03208333333333334 0 0  0.03666666666666667 0 0  0.04125 0 0  0.04583333333333334 0 0  0.05041666666666667 0 0  0.055 0 0  0.05958333333333334 0 0  0.06416666666666668 0 0  0.06875000000000001 0 0  0.07333333333333333 0 0  0.07791666666666666 0 0  0.08249999999999999 0 0  0.08708333333333333 0 0  0.09166666666666667 0 0  0.09625000000000002 0 0  0.1008333333333333 0 0  0.1054166666666667 0 0  0.11 0 0  0.1145833333333333 0 0  0.1191666666666667 0 0  0.12375 0 0  0.1283333333333334 0 0  0.1329166666666667 0 0  0.1375 0 0  0.1420833333333333 0 0  0.1466666666666667 0 0  0.15125 0 0  0.1558333333333333 0 0  0.1604166666666667 0 0  0.165 0 0  0.1695833333333333 0 0  0.1741666666666667 0 0  0.17875 0 0  0.1833333333333333 0 0  0.1879166666666667 0 0  0.1925 0 0  0.1970833333333333 0 0  0.2016666666666667 0 0  0.20625 0 0  0.2108333333333333 0 0  0.2154166666666666 0 0  0.22 0 0  0.2245833333333334 0 0  0.2291666666666667 0 0  0.23375 0 0  0.2383333333333333 0 0  0.2429166666666667 0 0  0.2475 0 0  0.2520833333333333 0 0  0.2566666666666667 0 0  0.26125 0 0  0.2658333333333334 0 0  0.2704166666666666 0 0  0.275 0 0  0.2795833333333334 0 0  0.2841666666666667 0 0  0.28875 0 0  0.2933333333333333 0 0  0.2979166666666667 0 0  0.3025 0 0  0.3070833333333334 0 0  0.3116666666666666 0 0  0.31625 0 0  0.3208333333333333 0 0  0.3254166666666667 0 0  0.33 0 0  0.3345833333333333 0 0  0.3391666666666667 0 0  0.34375 0 0  0.3483333333333333 0 0  0.3529166666666667 0 0  0.3575 0 0  0.3620833333333333 0 0  0.3666666666666667 0 0  0.37125 0 0  0.3758333333333334 0 0  0.3804166666666667 0 0  0.3850000000000001 0 0  0.3895833333333333 0 0  0.3941666666666667 0 0  0.39875 0 0  0.4033333333333334 0 0  0.4079166666666666 0 0  0.4125 0 0  0.4170833333333334 0 0  0.4216666666666667 0 0  0.42625 0 0  0.4308333333333333 0 0  0.4354166666666667 0 0  0.44 0 0  0.4445833333333333 0 0  0.4491666666666667 0 0  0.45375 0 0  0.4583333333333333 0 0  0.4629166666666666 0 0  0.4675 0 0  0.4720833333333334 0 0  0.4766666666666667 0 0  0.4812500000000001 0 0  0.4858333333333333 0 0  0.4904166666666667 0 0  0.495 0 0  0.4995833333333334 0 0  0.5041666666666667 0 0  0.50875 0 0  0.5133333333333334 0 0  0.5179166666666667 0 0  0.5225 0 0  0.5270833333333333 0 0  0.5316666666666667 0 0  0.53625 0 0  0.5408333333333333 0 0  0.5454166666666667 0 0  0.55 0 0  0.5545833333333333 0 0  0.5591666666666667 0 0  0.5637500000000001 0 0  0.5683333333333334 0 0  0.5729166666666666 0 0  0.5775 0 0  0.5820833333333334 0 0  0.5866666666666667 0 0  0.5912499999999999 0 0  0.5958333333333334 0 0  0.6004166666666667 0 0  0.605 0 0  0.6095833333333334 0 0  0.6141666666666667 0 0  0.61875 0 0  0.6233333333333333 0 0  0.6279166666666667 0 0  0.6325000000000001 0 0  0.6370833333333333 0 0  0.6416666666666666 0 0  0.64625 0 0  0.6508333333333334 0 0  0.6554166666666666 0 0  0.6599999999999999 0 0  0.6645833333333334 0 0  0.6691666666666667 0 0  0.67375 0 0  0.6783333333333333 0 0  0.6829166666666667 0 0  0.6875 0 0  0.6920833333333333 0 0  0.6966666666666667 0 0  0.70125 0 0  0.7058333333333333 0 0  0.7104166666666667 0 0  0.7150000000000001 0 0  0.7195833333333334 0 0  0.7241666666666666 0 0  0.72875 0 0  0.7333333333333334 0 0  0.7379166666666667 0 0  0.7425 0 0  0.7470833333333333 0 0  0.7516666666666667 0 0  0.75625 0 0  0.7608333333333334 0 0  0.7654166666666666 0 0  0.7700000000000001 0 0  0 0.002380952380952381 0  0.004583333333333333 0.002380952380952381 0  0.009166666666666667 0.002380952380952381 0  0.01375 0.002380952380952381 0  0.01833333333333333 0.002380952380952381 0  0.02291666666666667 0.002380952380952381 0  0.0275 0.002380952380952381 0  0.03208333333333334 0.002380952380952381 0  0.03666666666666667 0.002380952380952381 0  0.04125 0.002380952380952381 0  0.04583333333333334 0.002380952380952381 0  0.05041666666666667 0.002380952380952381 0  0.055 0.002380952380952381 0  0.05958333333333334 0.002380952380952381 0  0.06416666666666668 0.002380952380952381 0  0.06875000000000001 0.002380952380952381 0  0.07333333333333333 0.002380952380952381 0  0.07791666666666666 0.002380952380952381 0  0.08249999999999999 0.002380952380952381 0  0.08708333333333333 0.002380952380952381 0  0.09166666666666667 0.002380952380952381 0  0.09625000000000002 0.002380952380952381 0  0.1008333333333333 0.002380952380952381 0  0.1054166666666667 0.002380952380952381 0  0.11 0.002380952380952381 0  0.1145833333333333 0.002380952380952381 0  0.1191666666666667 0.002380952380952381 0  0.12375 0.002380952380952381 0  0.1283333333333334 0.002380952380952381 0  0.1329166666666667 0.002380952380952381 0  0.1375 0.002380952380952381 0  0.1420833333333333 0.002380952380952381 0  0.1466666666666667 0.002380952380952381 0  0.15125 0.002380952380952381 0  0.1558333333333333 0.002380952380952381 0  0.1604166666666667 0.002380952380952381 0  0.165 0.002380952380952381 0  0.1695833333333333 0.002380952380952381 0  0.1741666666666667 0.002380952380952381 0  0.17875 0.002380952380952381 0  0.1833333333333333 0.002380952380952381 0  0.1879166666666667 0.002380952380952381 0  0.1925 0.002380952380952381 0  0.1970833333333333 0.002380952380952381 0  0.2016666666666667 0.002380952380952381 0  0.20625 0.002380952380952381 0  0.2108333333333333 0.002380952380952381 0  0.2154166666666666 0.002380952380952381 0  0.22 0.002380952380952381 0  0.2245833333333334 0.002380952380952381 0  0.2291666666666667 0.002380952380952381 0  0.23375 0.002380952380952381 0  0.2383333333333333 0.002380952380952381 0  0.2429166666666667 0.002380952380952381 0  0.2475 0.002380952380952381 0  0.2520833333333333 0.002380952380952381 0  0.2566666666666667 0.002380952380952381 0  0.26125 0.002380952380952381 0  0.2658333333333334 0.002380952380952381 0  0.2704166666666666 0.002380952380952381 0  0.275 0.002380952380952381 0  0.2795833333333334 0.002380952380952381 0  0.2841666666666667 0.002380952380952381 0  0.28875 0.002380952380952381 0  0.2933333333333333 0.002380952380952381 0  0.2979166666666667 0.002380952380952381 0  0.3025 0.002380952380952381 0  0.3070833333333334 0.002380952380952381 0  0.3116666666666666 0.002380952380952381 0  0.31625 0.002380952380952381 0  0.3208333333333333 0.002380952380952381 0  0.3254166666666667 0.002380952380952381 0  0.33 0.002380952380952381 0  0.3345833333333333 0.002380952380952381 0  0.3391666666666667 0.002380952380952381 0  0.34375 0.002380952380952381 0  0.3483333333333333 0.002380952380952381 0  0.3529166666666667 0.002380952380952381 0  0.3575 0.002380952380952381 0  0.3620833333333333 0.002380952380952381 0  0.3666666666666667 0.002380952380952381 0  0.37125 0.002380952380952381 0  0.3758333333333334 0.002380952380952381 0  0.3804166666666667 0.002380952380952381 0  0.3850000000000001 0.002380952380952381 0  0.3895833333333333 0.002380952380952381 0  0.3941666666666667 0.002380952380952381 0  0.39875 0.002380952380952381 0  0.4033333333333334 0.002380952380952381 0  0.4079166666666666 0.002380952380952381 0  0.4125 0.002380952380952381 0  0.4170833333333334 0.002380952380952381 0  0.4216666666666667 0.002380952380952381 0  0.42625 0.002380952380952381 0  0.4308333333333333 0.002380952380952381 0  0.4354166666666667 0.002380952380952381 0  0.44 0.002380952380952381 0  0.4445833333333333 0.002380952380952381 0  0.4491666666666667 0.002380952380952381 0  0.45375 0.002380952380952381 0  0.4583333333333333 0.002380952380952381 0  0.4629166666666666 0.002380952380952381 0  0.4675 0.002380952380952381 0  0.4720833333333334 0.002380952380952381 0  0.4766666666666667 0.002380952380952381 0  0.4812500000000001 0.002380952380952381 0  0.4858333333333333 0.002380952380952381 0  0.4904166666666667 0.002380952380952381 0  0.495 0.002380952380952381 0  0.4995833333333334 0.002380952380952381 0  0.5041666666666667 0.002380952380952381 0  0.50875 0.002380952380952381 0  0.5133333333333334 0.002380952380952381 0  0.5179166666666667 0.002380952380952381 0  0.5225 0.002380952380952381 0  0.5270833333333333 0.002380952380952381 0  0.5316666666666667 0.002380952380952381 0  0.53625 0.002380952380952381 0  0.5408333333333333 0.002380952380952381 0  0.5454166666666667 0.002380952380952381 0  0.55 0.002380952380952381 0  0.5545833333333333 0.002380952380952381 0  0.5591666666666667 0.002380952380952381 0  0.5637500000000001 0.002380952380952381 0  0.5683333333333334 0.002380952380952381 0  0.5729166666666666 0.002380952380952381 0  0.5775 0.002380952380952381 0  0.5820833333333334 0.002380952380952381 0  0.5866666666666667 0.002380952380952381 0  0.5912499999999999 0.002380952380952381 0  0.5958333333333334 0.002380952380952381 0  0.6004166666666667 0.002380952380952381 0  0.605 0.002380952380952381 0  0.6095833333333334 0.002380952380952381 0  0.6141666666666667 0.002380952380952381 0  0.61875 0.002380952380952381 0  0.6233333333333333 0.002380952380952381 0  0.6279166666666667 0.002380952380952381 0  0.6325000000000001 0.002380952380952381 0  0.6370833333333333 0.002380952380952381 0  0.6416666666666666 0.002380952380952381 0  0.64625 0.002380952380952381 0  0.6508333333333334 0.002380952380952381 0  0.6554166666666666 0.002380952380952381 0  0.6599999999999999 0.002380952380952381 0  0.6645833333333334 0.002380952380952381 0  0.6691666666666667 0.002380952380952381 0  0.67375 0.002380952380952381 0  0.6783333333333333 0.002380952380952381 0  0.6829166666666667 0.002380952380952381 0  0.6875 0.002380952380952381 0  0.6920833333333333 0.002380952380952381 0  0.6966666666666667 0.002380952380952381 0  0.70125 0.002380952380952381 0  0.7058333333333333 0.002380952380952381 0  0.7104166666666667 0.002380952380952381 0  0.7150000000000001 0.002380952380952381 
[...]
<PointData  Scalars="pressure"> 
<DataArray  type="Float64"  Name="pressure"  format="ascii">1.7043011612797935e+04  1.6880580771446108e+04  1.6726761049889472e+04  1.6574142929096390e+04  1.6422175067828586e+04  1.6270527961332231e+04  1.6119081930944803e+04  1.5967769330906407e+04  1.5816550564227471e+04  1.5665400227031563e+04  1.5514301166791556e+04  1.5363241312342028e+04  1.5212211899111524e+04  1.5061206405410217e+04  1.4910219883444883e+04  1.4759248520846451e+04  1.4608289343240096e+04  1.4457340006510514e+04  1.4306398648049491e+04  1.4155463777935822e+04  1.4004534197852170e+04  1.3853608939709338e+04  1.3702687218556777e+04  1.3551768396035406e+04  1.3400851951733257e+04  1.3249937460547832e+04  1.3099024574669944e+04  1.2948113009161058e+04  1.2797202530350442e+04  1.2646292946462971e+04  1.2495384100023435e+04  1.2344475861684035e+04  1.2193568125198131e+04  1.2042660803320914e+04  1.1891753824463167e+04  1.1740847129958756e+04  1.1589940671834353e+04  1.1439034410991630e+04  1.1288128315729728e+04  1.1137222360549880e+04  1.0986316525195600e+04  1.0835410793891249e+04  1.0684505154749670e+04  1.0533599599326160e+04  1.0382694122301746e+04  1.0231788721283656e+04  1.0080883396715399e+04  9.9299781518929412e+03  9.7790729930875641e+03  9.6281679297800656e+03  9.4772629750148972e+03  9.3263581458877779e+03  9.1754534641850260e+03  9.0245489571987764e+03  8.8736446587489609e+03  8.7227406104508082e+03  8.5718368632761449e+03  8.4209334794682545e+03  8.2700305348837646e+03  8.1191281218523154e+03  7.9682263526652241e+03  7.8173253638305105e+03  7.6664253212631475e+03  7.5155264266195782e+03  7.3646289250352593e+03  7.2137331145871995e+03  7.0628393578836185e+03  6.9119480962856378e+03  6.7610598673988152e+03  6.6101753266455344e+03  6.4592952739575285e+03  6.3084206869313166e+03  6.1575527621976016e+03  6.0066929673101986e+03  5.8558431062216314e+03  5.7050054024685078e+03  5.5541826056682658e+03  5.4033781290146399e+03  5.2525962284201760e+03  5.1018422381679175e+03  4.9511228839129571e+03  4.8004467022478166e+03  4.6498246073274649e+03  4.4992706595016125e+03  4.3488031029966824e+03  4.1984457505982637e+03  4.0482296585858821e+03  3.8981955884447207e+03  3.7483905295207687e+03  3.5988894903676696e+03  3.4496776562635519e+03  3.3009433639923554e+03  3.1458244824947819e+03  2.1885969294484944e+03  2.0978515321202281e+03  2.0602428226938041e+03  2.0320940054569785e+03  2.0045093024933235e+03  1.9767356470977259e+03  1.9488778360436479e+03  1.9209281349717453e+03  1.8929078767537635e+03  1.8648331776027669e+03  1.8367170252421313e+03  1.8085691774927352e+03  1.7803969268451374e+03  1.7522057300117556e+03  1.7239997009286162e+03  1.6957819705043530e+03  1.6675549451452669e+03  1.6393204920420424e+03  1.6110800726990517e+03  1.5828348400517896e+03  1.5545857098797871e+03  1.5263334139298283e+03  1.4980785398917337e+03  1.4698215618150739e+03  1.4415628634932459e+03  1.4133027566122307e+03  1.3850414949572689e+03  1.3567792856187596e+03  1.3285162978907244e+03  1.3002526703783869e+03  1.2719885167040413e+03  1.2437239301075392e+03  1.2154589871692503e+03  1.1871937508323558e+03  1.1589282728628352e+03  1.1306625958562483e+03  1.1023967548778958e+03  1.0741307788054653e+03  1.0458646914296355e+03  1.0175985123572992e+03  9.8933225775359585e+02  9.6106594095208595e+02  9.3279957295695431e+02  9.0453316285675987e+02  8.7626671816568251e+02  8.4800024510536139e+02  8.1973374883808367e+02  7.9146723366021911e+02  7.6320070316325393e+02  7.3493416036856763e+02  7.0666760784110750e+02  6.7840104778636385e+02  6.5013448213448874e+02  6.2186791261499548e+02  5.9360134082526554e+02  5.6533476829612573e+02  5.3706819655796551e+02  5.0880162721146900e+02  4.8053506200812853e+02  4.5226850294751682e+02  4.2400195240136060e+02  3.9573541327950727e+02  3.6746888926144260e+02  3.3920238513183529e+02  3.1093590728487442e+02  2.8266946451169326e+02  2.5440306927332870e+02  2.2613673990015658e+02  1.9787050416020847e+02  1.6960440889774023e+02  1.4133851453358307e+02  1.1307309406500322e+02  8.4807246567129226e+01  5.6551536442686341e+01  2.8205950248325401e+01  7.9925958035368649e-01  1.7034729049231519e+04  1.6880630141873415e+04  1.6726577317479474e+04  1.6574091069288170e+04  1.6422141053278287e+04  1.6270507255265822e+04  1.6119067885960352e+04  1.5967759403163549e+04  1.5816543290571613e+04  1.5665394761981837e+04  1.5514296981174040e+04  1.5363238059350946e+04  1.5212209342071286e+04  1.5061204377505393e+04  1.4910218263922177e+04  1.4759247220347846e+04  1.4608288294418149e+04  1.4457339157827129e+04  1.4306397959560705e+04  1.4155463218354256e+04  1.4004533742454050e+04  1.3853608568813719e+04  1.3702686916401093e+04  1.3551768149931104e+04  1.3400851751423101e+04  1.3249937297710825e+04  1.3099024442535994e+04  1.2948112902208282e+04  1.2797202444065602e+04  1.2646292877150530e+04  1.2495384044652494e+04  1.2344475817765058e+04  1.2193568090683129e+04  1.2042660776522416e+04  1.1891753803988107e+04  1.1740847114654376e+04  1.1589940660743770e+04  1.1439034403317150e+04  1.1288128310802456e+04  1.1137222357804312e+04  1.0986316524148231e+04  1.0835410794122332e+04  1.0684505155887417e+04  1.0533599601032789e+04  1.0382694124260815e+04  1.0231788723188216e+04  1.0080883398256496e+04  9.9299781527480736e+03  9.7790729929086301e+03  9.6281679281803226e+03  9.4772629715544917e+03  9.3263581400572912e+03  9.1754534553863541e+03  9.0245489447226810e+03  8.8736446417483912e+03  8.7227405879089856e+03  8.5718368339681620e+03  8.4209334419146635e+03  8.2700304872943470e+03  8.1191280620577272e+03  7.9682262780337878e+03  7.8173252711666164e+03  7.6664252066830177e+03  7.5155262853989425e+03  7.3646287514221203e+03  7.2137329015710302e+03  7.0628390969098500e+03  6.9119477769011010e+03  6.7610594768094597e+03  6.6101748491617682e+03  6.4592946902945396e+03  6.3084199733203614e+03  6.1575518892487089e+03  6.0066918985443890e+03  5.8558417961592522e+03  5.7050037941149903e+03  5.5541806271732648e+03  5.4033756891863686e+03  5.2525932106410382e+03  5.1018384920646504e+03  4.9511182138685872e+03  4.8004408514889510e+03  4.6498172360155795e+03  4.4992613147263064e+03  4.3487911809527222e+03  4.1984304437194869e+03  4.0482100095822307e+03  3.8981697735952789e+03  3.7483609829178558e+03  3.5988395099884515e+03  3.4496578466901524e+03  3.3004481575592667e+03  3.1514220876938280e+03  3.0089731197981500e+03  2.8784607456387398e+03  2.0589168095993296e+03  2.0322716751980390e+03  2.0044937990945580e+03  1.9767506829964395e+03  1.9488872337585153e+03  1.9209358979531673e+03  1.8929137604204520e+03  1.8648376645479755e+03  1.8367204567997603e+03  1.8085718230428008e+03  1.7803989840820152e+03  1.7522073434354952e+03  1.7240009762747957e+03  1.6957829857525401e+03  1.6675557583889927e+03  1.6393211470372087e+03  1.6110806027635622e+03  1.5828352708192997e+03  1.5545860612607755e+03  1.5263337015228942e+03  1.4980787760109779e+03  1.4698217562469190e+03  1.4415630240605194e+03  1.4133028895994237e+03  1.3850416054345865e+03  1.3567793776915587e+03  1.3285163748932819e+03  1.3002527350256794e+03  1.2719885712115281e+03  1.2437239762863064e+03  1.2154590265020254e+03  1.1871937845345356e+03  1.1589283019316931e+03  1.1306626211107575e+03  1.1023967769910489e+03  1.0741307983305796e+03  1.0458647088218038e+03  1.0175985279909153e+03  9.8933227193669052e+02  9.6106595393806629e+02  9.3279958495422466e+02  9.0453317403660617e+02  8.7626672866873525e+02  8.4800025504688665e+02  8.1973375831230987e+02  7.9146724274386065e+02  7.6320071191837110e+02  7.3493416884486328e+02  7.0666761607774583e+02  6.7840105581337457e+02  6.5013448997379714e+02  6.2186792028110278e+02  5.9360134832557992e+02  5.6533477563092083e+02  5.3706820371990136e+02  5.0880163418456982e+02  4.8053506876601557e+02  4.5226850945059095e+02  4.2400195859240176e+02  3.9573541907680976e+02  3.6746889454796906e+02  3.3920238973768460e+02  3.1093591095824706e+02  2.8266946686800782e+02  2.5440306971145708e+02  2.2613673738248480e+02  1.9787049729754682e+02  1.6960439175327534e+02  1.4133850413398108e+02  1.1307288352338283e+02  8.4808459299865007e+01  5.6540122731210595e+01  2.8309263875891499e+01  -4.3494474251441373e-02  1.7031059762076398e+04  1.6879129563230308e+04  1.6726198075936674e+04  1.6573890110795779e+04  1.6422029165046537e+04  1.6270436076100837e+04  1.6119019718569409e+04  1.5967725201934341e+04  1.5816518179210982e+04  1.5665375858135734e+04  1.5514282479043442e+04  1.5363226770838852e+04  1.5212200454520233e+04  1.5061197317068651e+04  1.4910212614619015e+04  1.4759242674007015e+04  1.4608284618571417e+04  1.4457336174450586e+04  1.4306395530600494e+04  1.4155461235625393e+04  1.4004532120435069e+04  1.3853607239405912e+04  1.3702685825050226e+04  1.3551767252713176e+04  1.3400851012824678e+04  1.3249936688918358e+04  1.3099023940103667e+04  1.2948112487011318e+04  1.2797202100471419e+04  1.2646292592358090e+04  1.2495383808162544e+04  1.2344475620953306e+04  1.2193567926454796e+04  1.2042660639031534e+04  1.1891753688408629e+04  1.1740847016992837e+04  1.1589940577685345e+04  1.1439034332098694e+04  1.1288128249107142e+04  1.1137222303673696e+04  1.0986316475908163e+04  1.0835410750319810e+04  1.0684505115235906e+04  1.0533599562363934e+04  1.0382694086480607e+04  1.0231788685236057e+04  1.0080883359065496e+04  9.9299781112051587e+03  9.7790729478129215e+03  9.6281678781982118e+03  9.4772629151697474e+03  9.3263580755142521e+03  9.1754533806241179e+03  9.0245488572977247e+03  8.8736445387426847e+03  8.7227404658200430e+03  8.5718366885767591e+03  8.4209332681250162e+03  8.2700302789404341e+03  8.1191278116679714e+03  7.9682259765444469e+03  7.8173249075720505e+03  7.6664247676079212e+03  7.5155257545739869e+03  7.3646281090394987e+03  7.2137321234900846e+03  7.0628381536746456e+03  6.9119466325206295e+03  6.7610580872363143e+03  6.6101731603848866e+03  6.4592926359338426e+03  6.3084174715727877e+03  6.1575488389813700e+03  6.0066881742547985e+03  5.8558372414147580e+03  5.7049982129289610e+03  5.5541737725532275e+03  5.4033672477683212e+03  5.2525827818628995e+03  5.1018255596764111e+03  4.9511021066714175e+03  4.8004206890356727e+03  4.6497918537267096e+03  4.4992291623391893e+03  4.3487501904953679e+03  4.1983778846101013e+03  4.0481423356722853e+03  3.8980829954441892e+03  3.7482512389017675e+03  3.5987080370203248e+03  3.4495064042073650e+03  3.3006521212402754e+03  3.1534339164109433e+03  3.0039792986780712e+03  2.0944578353072393e+03  2.0604393546992442e+03  2.0320489818180454e+03  2.0045556836359199e+03  1.9767886084385277e+03  1.9489215619213583e+03  1.9209623422069321e+03  1.8929339651923017e+03  1.8648530302200450e+03  1.8367322037638460e+03  1.8085808734700729e+03  1.7804060168586443e+03  1.7522128537563242e+03  1.7240053264709677e+03  1.6957864430780592e+03  1.6675585220136802e+03  1.6393233670377622e+03  1.6110823934650487e+03  1.5828367202159468e+03  1.5545872377266166e+03  1.5263346586430398e+03  1.4980795561002863e+03  1.4698223929432640e+03  1.4415635442586313e+03  1.4133033149094449e+03  1.3850419532940452e+03  1.3567796622216263e+03  1.3285166075641889e+03  1.3002529251781259e+03  1.2719887264682773e+03  1.2437241028792148e+03  1.2154591295333719e+03  1.1871938681868719e+03  1.1589283696370778e+03  1.1306626756877226e+03  1.1023968207557903e+03  1.0741308331874525e+03  1.0458647363371299e+03  1.0175985494532842e+03  9.8933228840629124e+02  9.6106596628708576e+02  9.3279959389995440e+02  9.0453318016857963e+02  8.7626673247096642e+02  8.4800025691608130e+02  8.1973375857275209e+02  7.9146724165954561e+02  7.6320070970283973e+02  7.3493416566910719e+02  7.0666761207646584e+02  6.7840105108980936e+02  6.5013448460326424e+02  6.2186791431333643e+02  5.9360134178586975e+02  5.6533476851996102e+02  5.3706819601214818e+02  5.0880162582471434e+02  4.8053505966292806e+02  4.5226849946764770e+02  4.2400194753241158e+02  3.9573540665853614e+02  3.6746888036909627e+02  3.3920237321514588e+02  3.1093589122923322e+02  2.8266944262068040e+02  2.5440303887803159e+02  2.2613669660186164e+02  1.9787044055091386e+02  1.6960431000164522e+02  1.4133836420621586e+02  1.1307274381954974e+02  8.4807454788579165e+01  5.6544054253826488e+01  2.8285120688862360e+01  5.6319888947137034e-03  1.7028888283494711e+04  1.6877701385925193e+04  1.6725589082648319e+04  1.6573582019899943e+04  1.6421846850994716e+04  1.6270318808592805e+04  1.6118939444464946e+04  1.5967667845449596e+04  1.5816475881573611e+04  1.5665343919848454e+04  1.5514257923502115e+04  1.5363207625227353e+04  1.5212185361877800e+04  1.5061185315136056e+04  1.4910203003564220e+04  1.4759234934036662e+04  1.4608278356778741e+04  1.4457331089455807e+04  1.4306391388381928e+04  1.4155457852598016e+04  1.4004529351347104e+04  1.3853604968515176e+04  1.3702683959581611e+04  1.3551765717934099e+04  1.3400849748289003e+04  1.3249935645568030e+04  1.3099023078009355e+04  1.2948111773595640e+04  1.2797201509101007e+04  1.2646292101220493e+04  1.2495383399365381e+04  1.2344475279797989e+04  1.2193567640848552e+04  1.2042660399009515e+04  1.1891753485744088e+04  1.1740846844877999e+04  1.1589940430469200e+04  1.1439034205070595e+04  1.1288128138317303e+04  1.1137222205783321e+04  1.0986316388063160e+04  1.0835410670043171e+04  1.0684505040334523e+04  1.0533599490846243e+04  1.0382694016481953e+04  1.0231788614948853e+04  1.0080883286671613e+04  9.9299780348079294e+03  9.7790728653662190e+03  9.6281677874299221e+03  9.4772628134967581e+03  9.3263579599456898e+03  9.1754532476492441e+03  9.0245487027541367e+03  8.8736443576598194e+03  8.7227402522319262e+03  8.5718364352967274e+03  8.4209329664735997e+03  8.2700299184155701e+03  8.1191273795443603e+03  7.9682254573857172e+03  7.8173242826354699e+03  7.6664240141164883e+03  7.5155248448242892e+03  7.3646270093055455e+03  7.2137307926725734e+03  7.0628365416309562e+03  6.9119446779922528e+03  6.7610557152651245e+03  6.6101702790757636e+03  6.4592891323744079e+03  6.3084132066565835e+03  6.1575436407906163e+03  6.0066818295318135e+03  5.8558294844704524e+03  5.7049887110780701e+03  5.5541621067935121e+03  5.4033528868834910e+03  5.2525650473547657e+03  5.1018035778272579e+03  4.9510747425001891e+03  4.8003864548893998e+03  4.6497487829250867e+03  4.4991746366889965e+03  4.3486807139477933e+03  4.1982888102611205e+03  4.0480276364237893e+03  3.8979354144210779e+03  3.7480634140516372e+03  3.5984795523634234e+03  3.4492781987375715e+03  3.3007264794445273e+03  3.1532808437394278e+03  3.0101629593372663e+03  2.8778655187548447e+03  2.0581996905393394e+03  2.0322513112128700e+03  2.0046123925084134e+03  1.9768621077930202e+03  1.9489796538464195e+03  1.9210073404060304e+03  1.8929681500231547e+03  1.8648790139170010e+03  1.8367520704571066e+03  1.8085961889141145e+03  1.7804179263658698e+03  1.7522221914861962e+03  1.7240127026914038e+03  1.6957923082156217e+03  1.6675632120740991e+03  1.6393271354796341e+03  1.6110854335756139e+03  1.5828391809162674e+03  1.5545892348394202e+03  1.5263362830138267e+03  1.4980808795192040e+03  1.4698234725149473e+03  1.4415644256648084e+03  1.4133040348725228e+03  1.3850425414573056e+03  1.3567801425984649e+03  1.3285169996653531e+03  1.3002532448956911e+03  1.2719889867739348e+03  1.2437243143794344e+03  1.2154593009132554e+03  1.1871940065667443e+03  1.1589284808601658e+03  1.1306627645530571e+03  1.1023968912073349e+03  1.0741308884680645e+03  1.0458647791141564e+03  1.0175985819211861e+03  9.8933231237061568e+02  9.6106598323323999e+02  9.3279960504956864e+02  9.0453318652571227e+02  8.7626673485997162e+02  8.4800025601262064e+02  8.1973375492914613e+02  7.9146723572543488e+02  7.6320070184193810e+02  7.3493415617266646e+02  7.0666760117394176e+02  6.7840103895709012e+02  6.5013447136871764e+02  6.2186790006181195e+02  5.9360132656066764e+02  5.6533475232263083e+02  5.3706817879976916e+02  5.0880160750402882e+02  4.8053504008024407e+02  4.5226847839274041e+02  4.2400192463348714e+02  3.9573538146336313e+02  3.6746885220395149e+02  3.3920234110691911e+02  3.1093585374419149e+02  2.8266939758967760e+02  2.5440298291242732e+02  2.2613662418073014e+02  1.9787034237755017e+02  1.6960416860141319e+02  1.4133815182022656e+02  1.1307236507475729e+02  8.4806936792752722e+01  5.6542508231650203e+01  2.8277085261690132e+01  -4.2735367882852231e-04  1.7027375127307474e+04  1.6876500208780039e+04  1.6724905703004395e+04  1.6573197357072535e+04  1.6421609610772655e+04  1.6270162163890798e+04  1.6118830638999425e+04  1.5967589359993635e+04  1.5816417637343413e+04  1.5665299749410473e+04  1.5514223859729840e+04  1.5363181008730784e+04  1.5212164347917895e+04  1.5061168587085880e+04  1.4910189599063935e+04  1.4759224135486693e+04  1.4608269620056128e+04  1.4457323996145422e+04  1.4306385612929005e+04  1.4155453139194919e+04  1.4004525497331377e+04  1.3853601812223020e+04  1.3702681371314204e+04  1.3551763593140420e+04  1.3400848002354705e+04  1.3249934209786734e+04  1.3099021896437269e+04  1.2948110800574595e+04  1.2797200707293458e+04  1.2646291440040635e+04  1.2495382853719579e+04  1.2344474829068758e+04  1.2193567268071442e+04  1.2042660090203843e+04  1.1891753229366757e+04  1.1740846631376266e+04  1.1589940251913053e+04  1.1439034054849348e+04  1.1288128010887853e+04  1.1137222096459891e+04  1.0986316292840176e+04  1.0835410585444253e+04  1.0684504963281741e+04  1.0533599418544576e+04  1.0382693946314525e+04  1.0231788544378966e+04  1.0080883213147852e+04  9.9299779556687627e+03  9.7790727777404827e+03  9.6281676881294443e+03  9.4772626988970660e+03  9.3263578258503076e+03  9.1754530891323720e+03  9.0245485139757930e+03  8.8736441316463188e+03  8.7227399806132453e+03  8.5718361079905881e+03  8.4209325713038415e+03  8.2700294406497997e+03  8.1191268013322851e+03  7.9682247570753789e+03  7.8173234339390756e+03  7.6664229850906804e+03  7.5155235966207192e+03  7.3646254946363279e+03  7.2137289539201656e+03  7.0628343085126089e+03  6.9119419646631777e+03  6.7610524167099220e+03  6.6101662665906879e+03  6.4592842478789471e+03  6.3084072554841750e+03  6.1575363824847718e+03  6.0066729659999473e+03  5.8558186446005366e+03  5.7049754305697661e+03  5.5541458014465215e+03  5.4033328168508478e+03  5.2525402688070126e+03  5.1017728769492132e+03  4.9510365445919952e+03  4.8003386984285726e+03  4.6496887448427824e+03  4.4990986917604332e+03  4.3485840114296225e+03  4.1981648661202544e+03  4.0478679096631495e+03  3.8977291198556654e+03  3.7477985329781095e+03  3.5981496608352650e+03  3.4489109262829438e+03  3.3003989127153422e+03  3.1529352713062035e+03  3.0096485612573979e+03  2.8775168693325959e+03  2.0581913912760542e+03  2.0323508975381510e+03  2.0047334347776562e+03  1.9769666971546135e+03  1.9490619674728916e+03  1.9210700791399029e+03  1.8930156391600033e+03  1.8649150794329389e+03  1.8367796656033684e+03  1.8086174903746601e+03  1.7804345160241126e+03  1.7522352190481263e+03  1.7240230094051087e+03  1.6958005157138211e+03  1.6675697848200982e+03  1.6393324244367627e+03  1.6110897068421925e+03  1.5828426453799050e+03  1.5545920516369563e+03  1.5263385786937977e+03  1.4980827541972271e+03  1.4698250059034981e+03  1.4415656815837344e+03  1.4133050646610591e+03  1.3850433865824605e+03  1.3567808366686163e+03  1.3285175699985969e+03  1.3002537137512434e+03  1.2719893723259111e+03  1.2437246314917634e+03  1.2154595617597276e+03  1.1871942211295061e+03  1.1589286573321103e+03  1.1306629096637726e+03  1.1023970104878917e+03  1.0741309864666521e+03  1.0458648595720376e+03  1.0175986479165149e+03  9.8933236643613134e+02  9.6106602745268015e+02  9.3279964113669712e+02  9.0453321588910774e+02  8.7626675865613686e+02  8.4800027518947547e+02  8.1973377026158823e+02  7.9146724784432490e+02  7.6320071125760398e+02  7.3493416329380295e+02  7.0666760632258297e+02  6.7840104238017523e+02  6.5013447324660513e+02  6.2186790051394087e+02  5.9360132564839626e+02  5.6533475004907064e+02  5.3706817510615724e+02  5.0880160226179424e+02  4.8053503307733587e+02  4.5226846931185526e+02  4.2400191