<?xml version="1.0"?>
<VTKFile type="UnstructuredGrid"  version="0.1"  >
<UnstructuredGrid>
<Piece  NumberOfPoints="21400" NumberOfCells="42336">
<Points>
<DataArray  type="Float64"  NumberOfComponents="3"  format="ascii">0 0 0  0.004583333333333333 0 0  0.009166666666666667 0 0  0.01375 0 0  0.01833333333333333 0 0  0.02291666666666667 0 0  0.0275 0 0  0.03208333333333334 0 0  0.03666666666666667 0 0  0.04125 0 0  0.04583333333333334 0 0  0.05041666666666667 0 0  0.055 0 0  0.05958333333333334 0 0  0.06416666666666668 0 0  0.06875000000000001 0 0  0.07333333333333333 0 0  0.07791666666666666 0 0  0.08249999999999999 0 0  0.08708333333333333 0 0  0.09166666666666667 0 0  0.09625000000000002 0 0  0.1008333333333333 0 0  0.1054166666666667 0 0  0.11 0 0  0.1145833333333333 0 0  0.1191666666666667 0 0  0.12375 0 0  0.1283333333333334 0 0  0.1329166666666667 0 0  0.1375 0 0  0.1420833333333333 0 0  0.1466666666666667 0 0  0.15125 0 0  0.1558333333333333 0 0  0.1604166666666667 0 0  0.165 0 0  0.1695833333333333 0 0  0.1741666666666667 0 0  0.17875 0 0  0.1833333333333333 0 0  0.1879166666666667 0 0  0.1925 0 0  0.1970833333333333 0 0  0.2016666666666667 0 0  0.20625 0 0  0.2108333333333333 0 0  0.2154166666666666 0 0  0.22 0 0  0.2245833333333334 0 0  0.2291666666666667 0 0  0.23375 0 0  0.2383333333333333 0 0  0.2429166666666667 0 0  0.2475 0 0  0.2520833333333333 0 0  0.2566666666666667 0 0  0.26125 0 0  0.2658333333333334 0 0  0.2704166666666666 0 0  0.275 0 0  0.2795833333333334 0 0  0.2841666666666667 0 0  0.28875 0 0  0.2933333333333333 0 0  0.2979166666666667 0 0  0.3025 0 0  0.3070833333333334 0 0  0.3116666666666666 0 0  0.31625 0 0  0.3208333333333333 0 0  0.3254166666666667 0 0  0.33 0 0  0.3345833333333333 0 0  0.3391666666666667 0 0  0.34375 0 0  0.3483333333333333 0 0  0.3529166666666667 0 0  0.3575 0 0  0.3620833333333333 0 0  0.3666666666666667 0 0  0.37125 0 0  0.3758333333333334 0 0  0.3804166666666667 0 0  0.3850000000000001 0 0  0.3895833333333333 0 0  0.3941666666666667 0 0  0.39875 0 0  0.4033333333333334 0 0  0.4079166666666666 0 0  0.4125 0 0  0.4170833333333334 0 0  0.4216666666666667 0 0  0.42625 0 0  0.4308333333333333 0 0  0.4354166666666667 0 0  0.44 0 0  0.4445833333333333 0 0  0.4491666666666667 0 0  0.45375 0 0  0.4583333333333333 0 0  0.4629166666666666 0 0  0.4675 0 0  0.4720833333333334 0 0  0.4766666666666667 0 0  0.4812500000000001 0 0  0.4858333333333333 0 0  0.4904166666666667 0 0  0.495 0 0  0.4995833333333334 0 0  0.5041666666666667 0 0  0.50875 0 0  0.5133333333333334 0 0  0.5179166666666667 0 0  0.5225 0 0  0.5270833333333333 0 0  0.5316666666666667 0 0  0.53625 0 0  0.5408333333333333 0 0  0.5454166666666667 0 0  0.55 0 0  0.5545833333333333 0 0  0.5591666666666667 0 0  0.5637500000000001 0 0  0.5683333333333334 0 0  0.5729166666666666 0 0  0.5775 0 0  0.5820833333333334 0 0  0.5866666666666667 0 0  0.5912499999999999 0 0  0.5958333333333334 0 0  0.6004166666666667 0 0  0.605 0 0  0.6095833333333334 0 0  0.6141666666666667 0 0  0.61875 0 0  0.6233333333333333 0 0  0.6279166666666667 0 0  0.6325000000000001 0 0  0.6370833333333333 0 0  0.6416666666666666 0 0  0.64625 0 0  0.6508333333333334 0 0  0.6554166666666666 0 0  0.6599999999999999 0 0  0.6645833333333334 0 0  0.6691666666666667 0 0  0.67375 0 0  0.6783333333333333 0 0  0.6829166666666667 0 0  0.6875 0 0  0.6920833333333333 0 0  0.6966666666666667 0 0  0.70125 0 0  0.7058333333333333 0 0  0.7104166666666667 0 0  0.7150000000000001 0 0  0.7195833333333334 0 0  0.7241666666666666 0 0  0.72875 0 0  0.7333333333333334 0 0  0.7379166666666667 0 0  0.7425 0 0  0.7470833333333333 0 0  0.7516666666666667 0 0  0.75625 0 0  0.7608333333333334 0 0  0.7654166666666666 0 0  0.7700000000000001 0 0  0 0.002380952380952381 0  0.004583333333333333 0.002380952380952381 0  0.009166666666666667 0.002380952380952381 0  0.01375 0.002380952380952381 0  0.01833333333333333 0.002380952380952381 0  0.02291666666666667 0.002380952380952381 0  0.0275 0.002380952380952381 0  0.03208333333333334 0.002380952380952381 0  0.03666666666666667 0.002380952380952381 0  0.04125 0.002380952380952381 0  0.04583333333333334 0.002380952380952381 0  0.05041666666666667 0.002380952380952381 0  0.055 0.002380952380952381 0  0.05958333333333334 0.002380952380952381 0  0.06416666666666668 0.002380952380952381 0  0.06875000000000001 0.002380952380952381 0  0.07333333333333333 0.002380952380952381 0  0.07791666666666666 0.002380952380952381 0  0.08249999999999999 0.002380952380952381 0  0.08708333333333333 0.002380952380952381 0  0.09166666666666667 0.002380952380952381 0  0.09625000000000002 0.002380952380952381 0  0.1008333333333333 0.002380952380952381 0  0.1054166666666667 0.002380952380952381 0  0.11 0.002380952380952381 0  0.1145833333333333 0.002380952380952381 0  0.1191666666666667 0.002380952380952381 0  0.12375 0.002380952380952381 0  0.1283333333333334 0.002380952380952381 0  0.1329166666666667 0.002380952380952381 0  0.1375 0.002380952380952381 0  0.1420833333333333 0.002380952380952381 0  0.1466666666666667 0.002380952380952381 0  0.15125 0.002380952380952381 0  0.1558333333333333 0.002380952380952381 0  0.1604166666666667 0.002380952380952381 0  0.165 0.002380952380952381 0  0.1695833333333333 0.002380952380952381 0  0.1741666666666667 0.002380952380952381 0  0.17875 0.002380952380952381 0  0.1833333333333333 0.002380952380952381 0  0.1879166666666667 0.002380952380952381 0  0.1925 0.002380952380952381 0  0.1970833333333333 0.002380952380952381 0  0.2016666666666667 0.002380952380952381 0  0.20625 0.002380952380952381 0  0.2108333333333333 0.002380952380952381 0  0.2154166666666666 0.002380952380952381 0  0.22 0.002380952380952381 0  0.2245833333333334 0.002380952380952381 0  0.2291666666666667 0.002380952380952381 0  0.23375 0.002380952380952381 0  0.2383333333333333 0.002380952380952381 0  0.2429166666666667 0.002380952380952381 0  0.2475 0.002380952380952381 0  0.2520833333333333 0.002380952380952381 0  0.2566666666666667 0.002380952380952381 0  0.26125 0.002380952380952381 0  0.2658333333333334 0.002380952380952381 0  0.2704166666666666 0.002380952380952381 0  0.275 0.002380952380952381 0  0.2795833333333334 0.002380952380952381 0  0.2841666666666667 0.002380952380952381 0  0.28875 0.002380952380952381 0  0.2933333333333333 0.002380952380952381 0  0.2979166666666667 0.002380952380952381 0  0.3025 0.002380952380952381 0  0.3070833333333334 0.002380952380952381 0  0.3116666666666666 0.002380952380952381 0  0.31625 0.002380952380952381 0  0.3208333333333333 0.002380952380952381 0  0.3254166666666667 0.002380952380952381 0  0.33 0.002380952380952381 0  0.3345833333333333 0.002380952380952381 0  0.3391666666666667 0.002380952380952381 0  0.34375 0.002380952380952381 0  0.3483333333333333 0.002380952380952381 0  0.3529166666666667 0.002380952380952381 0  0.3575 0.002380952380952381 0  0.3620833333333333 0.002380952380952381 0  0.3666666666666667 0.002380952380952381 0  0.37125 0.002380952380952381 0  0.3758333333333334 0.002380952380952381 0  0.3804166666666667 0.002380952380952381 0  0.3850000000000001 0.002380952380952381 0  0.3895833333333333 0.002380952380952381 0  0.3941666666666667 0.002380952380952381 0  0.39875 0.002380952380952381 0  0.4033333333333334 0.002380952380952381 0  0.4079166666666666 0.002380952380952381 0  0.4125 0.002380952380952381 0  0.4170833333333334 0.002380952380952381 0  0.4216666666666667 0.002380952380952381 0  0.42625 0.002380952380952381 0  0.4308333333333333 0.002380952380952381 0  0.4354166666666667 0.002380952380952381 0  0.44 0.002380952380952381 0  0.4445833333333333 0.002380952380952381 0  0.4491666666666667 0.002380952380952381 0  0.45375 0.002380952380952381 0  0.4583333333333333 0.002380952380952381 0  0.4629166666666666 0.002380952380952381 0  0.4675 0.002380952380952381 0  0.4720833333333334 0.002380952380952381 0  0.4766666666666667 0.002380952380952381 0  0.4812500000000001 0.002380952380952381 0  0.4858333333333333 0.002380952380952381 0  0.4904166666666667 0.002380952380952381 0  0.495 0.002380952380952381 0  0.4995833333333334 0.002380952380952381 0  0.5041666666666667 0.002380952380952381 0  0.50875 0.002380952380952381 0  0.5133333333333334 0.002380952380952381 0  0.5179166666666667 0.002380952380952381 0  0.5225 0.002380952380952381 0  0.5270833333333333 0.002380952380952381 0  0.5316666666666667 0.002380952380952381 0  0.53625 0.002380952380952381 0  0.5408333333333333 0.002380952380952381 0  0.5454166666666667 0.002380952380952381 0  0.55 0.002380952380952381 0  0.5545833333333333 0.002380952380952381 0  0.5591666666666667 0.002380952380952381 0  0.5637500000000001 0.002380952380952381 0  0.5683333333333334 0.002380952380952381 0  0.5729166666666666 0.002380952380952381 0  0.5775 0.002380952380952381 0  0.5820833333333334 0.002380952380952381 0  0.5866666666666667 0.002380952380952381 0  0.5912499999999999 0.002380952380952381 0  0.5958333333333334 0.002380952380952381 0  0.6004166666666667 0.002380952380952381 0  0.605 0.002380952380952381 0  0.6095833333333334 0.002380952380952381 0  0.6141666666666667 0.002380952380952381 0  0.61875 0.002380952380952381 0  0.6233333333333333 0.002380952380952381 0  0.6279166666666667 0.002380952380952381 0  0.6325000000000001 0.002380952380952381 0  0.6370833333333333 0.002380952380952381 0  0.6416666666666666 0.002380952380952381 0  0.64625 0.002380952380952381 0  0.6508333333333334 0.002380952380952381 0  0.6554166666666666 0.002380952380952381 0  0.6599999999999999 0.002380952380952381 0  0.6645833333333334 0.002380952380952381 0  0.6691666666666667 0.002380952380952381 0  0.67375 0.002380952380952381 0  0.6783333333333333 0.002380952380952381 0  0.6829166666666667 0.002380952380952381 0  0.6875 0.002380952380952381 0  0.6920833333333333 0.002380952380952381 0  0.6966666666666667 0.002380952380952381 0  0.70125 0.002380952380952381 0  0.7058333333333333 0.002380952380952381 0  0.7104166666666667 0.002380952380952381 0  0.7150000000000001 0.002380952380952381 
[...]
<PointData  Scalars="pressure"> 
<DataArray  type="Float64"  Name="pressure"  format="ascii">1.1840042872599895e+04  1.1677612046709408e+04  1.1523792378482587e+04  1.1371174350992460e+04  1.1219206626500596e+04  1.1067559705361826e+04  1.0916113915836424e+04  1.0764801621161760e+04  1.0613583235756925e+04  1.0462433369993227e+04  1.0311334888964948e+04  1.0160275743163669e+04  1.0009247194525002e+04  9.8582427537147560e+03  9.7072575123650277e+03  9.5562877060931933e+03  9.4053304188923430e+03  9.2543833776182855e+03  9.1034448059496026e+03  8.9525133188817599e+03  8.8015878456974660e+03  8.6506675735557346e+03  8.4997519064939042e+03  8.3488404363700483e+03  8.1979329234498819e+03  8.0470292851798404e+03  7.8961295923213411e+03  7.7452340721396731e+03  7.5943431188058439e+03  7.4434573116284000e+03  7.2925774422183240e+03  7.1417045522245098e+03  6.9908399838473515e+03  6.8399854458513464e+03  6.6891430979552724e+03  6.5383156554551479e+03  6.3875065115689367e+03  6.2367198617877830e+03  6.0859607763445019e+03  5.9352350460325906e+03  5.7845485153889003e+03  5.6339031445015007e+03  5.4832930669638126e+03  5.3326241825948300e+03  5.1821406934939541e+03  5.0246556126535852e+03  3.5542137449347979e+03  3.4547324936379459e+03  3.3984817465389119e+03  3.3605508640076446e+03  3.3335833627653924e+03  3.3060245387400346e+03  3.2780766586649684e+03  3.2500256703054697e+03  3.2219073308265147e+03  3.1937484919254912e+03  3.1655623425875165e+03  3.1373570795416222e+03  3.1091379748890581e+03  3.0809085996389354e+03  3.0526714545462141e+03  3.0244283398128700e+03  2.9961805805580748e+03  2.9679291704570842e+03  2.9396748663026387e+03  2.9114182520474228e+03  2.8831597832531988e+03  2.8548998186161184e+03  2.8266386427610155e+03  2.7983764830092045e+03  2.7701135219045154e+03  2.7418499066998438e+03  2.7135857566296199e+03  2.6853211685449774e+03  2.6570562213213443e+03  2.6287909793340518e+03  2.6005254952183586e+03  2.5722598120744742e+03  2.5439939652382709e+03  2.5157279837094575e+03  2.4874618913077179e+03  2.4591957076115527e+03  2.4309294487226462e+03  2.4026631278895493e+03  2.3743967560174838e+03  2.3461303420857053e+03  2.3178638934896026e+03  2.2895974163214105e+03  2.2613309156007431e+03  2.2330643954640655e+03  2.2047978593204789e+03  2.1765313099799200e+03  2.1482647497586509e+03  2.1199981805661264e+03  2.0917316039765342e+03  2.0634650212877236e+03  2.0351984335697582e+03  2.0069318417049230e+03  1.9786652464207052e+03  1.9503986483169663e+03  1.9221320478883476e+03  1.8938654455427379e+03  1.8655988416165023e+03  1.8373322363870370e+03  1.8090656300831204e+03  1.7807990228934489e+03  1.7525324149736803e+03  1.7242658064522352e+03  1.6959991974350967e+03  1.6677325880097571e+03  1.6394659782484844e+03  1.6111993682110149e+03  1.5829327579467863e+03  1.5546661474967782e+03  1.5263995368950411e+03  1.4981329261699661e+03  1.4698663153453449e+03  1.4415997044412584e+03  1.4133330934748201e+03  1.3850664824608207e+03  1.3567998714122771e+03  1.3285332603409190e+03  1.3002666492576236e+03  1.2720000381728257e+03  1.2437334270969050e+03  1.2154668160405740e+03  1.1872002050152776e+03  1.1589335940336248e+03  1.1306669831098591e+03  1.1024003722603902e+03  1.0741337615044160e+03  1.0458671508646455e+03  1.0176005403681522e+03  9.8933393004740299e+02  9.6106731994149288e+02  9.3280071009763890e+02  9.0453410057299004e+02  8.7626749143683810e+02  8.4800088277331429e+02  8.1973427468469629e+02  7.9146766729546778e+02  7.6320106075732986e+02  7.3493445525540494e+02  7.0666785101594678e+02  6.7840124831597689e+02  6.5013464749540253e+02  6.2186804897236243e+02  5.9360145326279837e+02  5.6533486100568246e+02  5.3706827299586496e+02  5.0880169022737380e+02  4.8053511395129624e+02  4.5226854575439467e+02  4.2400198766778351e+02  3.9573544232019611e+02  3.6746891315901996e+02  3.3920240477718755e+02  3.1093592341036566e+02  2.8266947771846793e+02  2.5440308005372319e+02  2.2613674865605327e+02  1.9787051121801838e+02  1.6960441452057231e+02  1.4133851893105265e+02  1.1307309740105218e+02  8.4807248966109114e+01  5.6551537994286591e+01  2.8205951008041584e+01  7.9925960190529000e-01  1.1831760305147378e+04  1.1677661413206493e+04  1.1523608641946279e+04  1.1371122486698448e+04  1.1219172606937691e+04  1.1067538993568507e+04  1.0916099864196740e+04  1.0764791685586548e+04  1.0613575952798677e+04  1.0462427893823013e+04  1.0311330689992541e+04  1.0160272474082964e+04  1.0009244618057124e+04  9.8582407023150772e+03  9.7072558643973389e+03  9.5562863711289447e+03  9.4053293282846571e+03  9.2543824782502343e+03  9.1034440559571904e+03  8.9525126846404237e+03  8.8015872996356429e+03  8.6506670925186154e+03  8.4997514704759342e+03  8.3488400274926407e+03  8.1979325250965121e+03  8.0470288812222061e+03  7.8961291663827888e+03  7.7452336068479472e+03  7.5943425949887360e+03  7.4434567074035749e+03  7.2925767319247097e+03  7.1417037051399138e+03  6.9908389626436319e+03  6.8399842047742577e+03  6.6891415808290767e+03  6.5383137939291864e+03  6.3875042249181188e+03  6.2367170615598134e+03  6.0859573838493707e+03  5.9352310798767339e+03  5.7845440743030140e+03  5.6339002463759261e+03  5.4832897305428514e+03  5.3326997246905512e+03  5.1816651943270608e+03  5.0306136958455027e+03  4.8840102745263539e+03  4.7460905612524020e+03  4.6599457986453272e+03  3.3597426279531278e+03  3.3338195374098837e+03  3.3060278378032431e+03  3.2780909412897131e+03  3.2500320263194999e+03  3.2219116190749351e+03  3.1937513572291150e+03  3.1655643666689130e+03  3.1373585507491366e+03  3.1091390706669245e+03  3.0809094315156940e+03  3.0526720960289153e+03  3.0244288409110459e+03  2.9961809762532407e+03  2.9679294857988448e+03  2.9396751195958791e+03  2.9114184569057416e+03  2.8831599499572635e+03  2.8548999550333983e+03  2.8266387549817887e+03  2.7983765757948913e+03  2.7701135990093503e+03  2.7418499711054333e+03  2.7135858107185704e+03  2.6853212142311640e+03  2.6570562601488923e+03  2.6287910125533631e+03  2.6005255238451132e+03  2.5722598369358216e+03  2.5439939870092753e+03  2.5157280029420458e+03  2.4874619084538094e+03  2.4591957230416369e+03  2.4309294627407671e+03  2.4026631407454297e+03  2.3743967679163766e+03  2.3461303531964077e+03  2.3178639039509976e+03  2.2895974262478144e+03  2.2613309250862812e+03  2.2330644045862564e+03  2.2047978681431846e+03  2.1765313185557543e+03  2.1482647581309716e+03  2.1199981887706676e+03  2.0917316120427490e+03  2.0634650292398883e+03  2.0351984414278859e+03  2.0069318494855147e+03  1.9786652541373626e+03  1.9503986559809041e+03  1.9221320555088114e+03  1.8938654531273507e+03  1.8655988491715505e+03  1.8373322439177018e+03  1.8090656375936730e+03  1.7807990303874110e+03  1.7525324224539536e+03  1.7242658139212137e+03  1.6959992048947499e+03  1.6677325954617070e+03  1.6394659856940666e+03  1.6111993756513275e+03  1.5829327653827304e+03  1.5546661549290925e+03  1.5263995443243280e+03  1.4981329335967157e+03  1.4698663227699526e+03  1.4415997118640391e+03  1.4133331008960222e+03  1.3850664898806324e+03  1.3567998788308348e+03  1.3285332677583126e+03  1.3002666566738990e+03  1.2720000455879879e+03  1.2437334345109170e+03  1.2154668234533556e+03  1.1872002124267030e+03  1.1589336014435169e+03  1.1306669905179831e+03  1.1024003796664463e+03  1.0741337689080246e+03  1.0458671582653358e+03  1.0176005477653425e+03  9.8933393744037801e+02  9.6106732732937735e+02  9.3280071747936142e+02  9.0453410794724186e+02  8.7626749880201908e+02  8.4800089012746912e+02  8.1973428202543175e+02  7.9146767461985121e+02  7.6320106806176136e+02  7.3493446253545494e+02  7.0666785826614955e+02  6.7840125552956499e+02  6.5013465466396133e+02  6.2186805608537702e+02  5.9360146030705073e+02  5.6533486796443947e+02  5.3706827984776612e+02  5.0880169694488177e+02  4.8053512049850320e+02  4.5226855208384626e+02  4.2400199371578663e+02  3.9573544799971239e+02  3.6746891834862060e+02  3.3920240930335814e+02  3.1093592701833580e+02  2.8266948002121831e+02  2.5440308044812849e+02  2.2613674610286967e+02  1.9787050432673234e+02  1.6960439735330300e+02  1.4133850851361666e+02  1.1307288684589815e+02  8.4808461689147705e+01  5.6540124276226301e+01  2.8309264635262060e+01  -4.3494475678354322e-02  1.1828091004187159e+04  1.1676160820527019e+04  1.1523229385636270e+04  1.1370921512153542e+04  1.1219060700767624e+04  1.1067467793909083e+04  1.0916051672989297e+04  1.0764757456328434e+04  1.0613550808148515e+04  1.0462408950181169e+04  1.0311316140070079e+04  1.0160261127992328e+04  1.0009235660981740e+04  9.8582335577984686e+03  9.7072501132986381e+03  9.5562817014451157e+03  9.4053255028960466e+03  9.2543793134810330e+03  9.1034414068795068e+03  8.9525104347008819e+03  8.8015853531146440e+03  8.6506653688752231e+03  8.4997498999557683e+03  8.3488385475740306e+03  8.1979310774712758e+03  8.0470274090807579e+03  7.8961276118146789e+03  7.7452319081882215e+03  7.5943406839427171e+03  7.4434545057721025e+03  7.2925741477328784e+03  7.1417006279550660e+03  6.9908352578777794e+03  6.8399797068657535e+03  6.6891360855499888e+03  6.5383070510846655e+03  6.3874959354094162e+03  6.2367068898820526e+03  6.0859450197917313e+03  5.9352164189351379e+03  5.7845278642404128e+03  5.6338854953887912e+03  5.4832925395618604e+03  5.3327251082116563e+03  5.1821369663723599e+03  5.0322995169538754e+03  4.8856601242563665e+03  4.7386391837568935e+03  3.3913400873056107e+03  3.3619475660405542e+03  3.3339157044305730e+03  3.3061198410723969e+03  3.2781281657893514e+03  3.2500548780660984e+03  3.2219260928882104e+03  3.1937611996262158e+03  3.1655713169602964e+03  3.1373636087393384e+03  3.1091428365987263e+03  3.0809122869677553e+03  3.0526742931095500e+03  3.0244305516843528e+03  2.9961823213615357e+03  2.9679305518057895e+03  2.9396759698646724e+03  2.9114191386285484e+03  2.8831604988164377e+03  2.8549003983642956e+03  2.8266391139639732e+03  2.7983768669993583e+03  2.7701138355102953e+03  2.7418501632920770e+03  2.7135859668967896e+03  2.6853213410754302e+03  2.6570563630459424e+03  2.6287910958664670e+03  2.6005255911192930e+03  2.5722598910586194e+03  2.5439940303376784e+03  2.5157280374033594e+03  2.4874619356262915e+03  2.4591957442192834e+03  2.4309294789855749e+03  2.4026631529297179e+03  2.3743967767571548e+03  2.3461303592833633e+03  2.3178639077693315e+03  2.2895974281969102e+03  2.2613309254949909e+03  2.2330644037254242e+03  2.2047978662359301e+03  2.1765313157859127e+03  2.1482647546500343e+03  2.1199981847034878e+03  2.0917316074922351e+03  2.0634650242908692e+03  2.0351984361502907e+03  2.0069318439369936e+03  1.9786652483654432e+03  1.9503986500247722e+03  1.9221320494007741e+03  1.8938654468940456e+03  1.8655988428349376e+03  1.8373322374958880e+03  1.8090656311015848e+03  1.7807990238373534e+03  1.7525324158560686e+03  1.7242658072838590e+03  1.6959991982248109e+03  1.6677325887648544e+03  1.6394659789749653e+03  1.6111993689138146e+03  1.5829327586299555e+03  1.5546661481636354e+03  1.5263995375482962e+03  1.4981329268118220e+03  1.4698663159775795e+03  1.4415997050652900e+03  1.4133330940917622e+03  1.3850664830715214e+03  1.3567998720173525e+03  1.3285332609407744e+03  1.3002666498524698e+03  1.2720000387626865e+03  1.2437334276816184e+03  1.2154668166197844e+03  1.1872002055884245e+03  1.1589335945999208e+03  1.1306669836682581e+03  1.1024003728095511e+03  1.0741337620426482e+03  1.0458671513898471e+03  1.0176005408777268e+03  9.8933393053815962e+02  9.6106732040952375e+02  9.3280071053816357e+02  9.0453410098016650e+02  8.7626749180352624e+02  8.4800088309078660e+02  8.1973427494227269e+02  7.9146766748006200e+02  7.6320106085287864e+02  7.3493445524214530e+02  7.0666785086949506e+02  6.7840124800614558e+02  6.5013464698466305e+02  6.2186804821382884e+02  5.9360145219754509e+02  5.6533485955913352e+02  5.3706827107285142e+02  5.0880168770525944e+02  4.8053511067024084e+02  4.5226854150328296e+02  4.2400198216345024e+02  3.9573543517601024e+02  3.6746890383612219e+02  3.3920239250655828e+02  3.1093590706420105e+02  2.8266945558951750e+02  2.5440304946420363e+02  2.2613670520001045e+02  1.9787044748156941e+02  1.6960431552317576e+02  1.4133836852445990e+02  1.1307274709549178e+02  8.4807457144347907e+01  5.6544055777290872e+01  2.8285121436935309e+01  5.6319887885739979e-03  1.1825919501929035e+04  1.1674732619175013e+04  1.1522620367040450e+04  1.1370613393746367e+04  1.1218878355972431e+04  1.1067350491276909e+04  1.0915971358067307e+04  1.0764700051806942e+04  1.0613508453458746e+04  1.0462376943691230e+04  1.0311291502622522e+04  1.0160241883702525e+04  1.0009220449188932e+04  9.8582214117711792e+03  9.7072403277896174e+03  9.5562737500949679e+03  9.4053189848277707e+03  9.2543739176305990e+03  9.1034368874475113e+03  8.9525065937649233e+03  8.8015820279518648e+03  8.6506624224294264e+03  8.4997472134156706e+03  8.3488360143545087e+03  8.1979285980896675e+03  8.0470248865411486e+03  7.8961249471816036e+03  7.7452289960620928e+03  7.5943374075518423e+03  7.4434507313758359e+03  7.2925697179942354e+03  7.1416953539034030e+03  6.9908289090794697e+03  6.8399719995474397e+03  6.6891266689152553e+03  6.5382954935334801e+03  6.3874817163152593e+03  6.2366894134226823e+03  6.0859236947414729e+03  5.9351909287918170e+03  5.7844989775752274e+03  5.6338576795757563e+03  5.4832796404871151e+03  5.3327844467740415e+03  5.1825076671389143e+03  5.0331041112030525e+03  4.8855258914494807e+03  4.7358892860356355e+03  3.3905765568348411e+03  3.3626176300045172e+03  3.3342290611149110e+03  3.3062301492601505e+03  3.2781902576257085e+03  3.2500916521591116e+03  3.2219500731988910e+03  3.1937776066168235e+03  3.1655829732093853e+03  3.1373721228510640e+03  3.1091491930041116e+03  3.0809171160660449e+03  3.0526780141041049e+03  3.0244334520160642e+03  2.9961846033187076e+03  2.9679323609705543e+03  2.9396774130642871e+03  2.9114202955904884e+03  2.8831614299272492e+03  2.8549011499516955e+03  2.8266397219667201e+03  2.7983773595650014e+03  2.7701142348658791e+03  2.7418504871127907e+03  2.7135862293220039e+03  2.6853215534730757e+03  2.6570565345945720e+03  2.6287912340033481e+03  2.6005257018887446e+03  2.5722599793851473e+03  2.5439941002417736e+03  2.5157280921731181e+03  2.4874619779546929e+03  2.4591957763145206e+03  2.4309295026601080e+03  2.4026631696724089e+03  2.3743967877918653e+03  2.3461303656166838e+03  2.3178639102295306e+03  2.2895974274657879e+03  2.2613309221339518e+03  2.2330643981968615e+03  2.2047978589207623e+03  2.1765313069980007e+03  2.1482647446480210e+03  2.1199981737005369e+03  2.0917315956640482e+03  2.0634650117822775e+03  2.0351984230806897e+03  2.0069318304048122e+03  1.9786652344518320e+03  1.9503986357966351e+03  1.9221320349132736e+03  1.8938654321926597e+03  1.8655988279571641e+03  1.8373322224726412e+03  1.8090656159583514e+03  1.7807990085951417e+03  1.7525324005321950e+03  1.7242657918925947e+03  1.6959991827779124e+03  1.6677325732720021e+03  1.6394659634441273e+03  1.6111993533515399e+03  1.5829327430416220e+03  1.5546661325536495e+03  1.5263995219202557e+03  1.4981329111686516e+03  1.4698663003216400e+03  1.4415996893984645e+03  1.4133330784155296e+03  1.3850664673870092e+03  1.3567998563253789e+03  1.3285332452418797e+03  1.3002666341469348e+03  1.2720000230505455e+03  1.2437334119626580e+03  1.2154668008935373e+03  1.1872001898541496e+03  1.1589335788565763e+03  1.1306669679144627e+03  1.1024003570435300e+03  1.0741337462621668e+03  1.0458671355921244e+03  1.0176005250593286e+03  9.8933391469486742e+02  9.6106730453616831e+02  9.3280069462842300e+02  9.0453408502631532e+02  8.7626747579612481e+02  8.4800086701829650e+02  8.1973425879057686e+02  7.9146765123186617e+02  7.6320104448695929e+02  7.3493443873239858e+02  7.0666783418372563e+02  6.7840123110451100e+02  6.5013462981765838e+02  6.2186803071964141e+02  5.9360143429854952e+02  5.6533484115717386e+02  5.3706825204280165e+02  5.0880166788608722e+02  4.8053508985238341e+02  4.5226851941046323e+02  4.2400195842592331e+02  3.9573540929027996e+02  3.6746887510271989e+02  3.3920235993118888e+02  3.1093586919571595e+02  2.8266941024447527e+02  2.5440299324225663e+02  2.2613663257067620e+02  1.9787034914038117e+02  1.6960417398924039e+02  1.4133815603390318e+02  1.1307236827136721e+02  8.4806939091467498e+01  5.6542509718185173e+01  2.8277085991429914e+01  -4.2735393691600870e-04  1.1824406312435127e+04  1.1673531408208151e+04  1.1521936951801232e+04  1.1370228692222776e+04  1.1218641072507973e+04  1.1067193797170743e+04  1.0915862495189698e+04  1.0764621498784900e+04  1.0613450128981867e+04  1.0462332677323757e+04  1.0311257323646947e+04  1.0160215128413374e+04  1.0009199267643720e+04  9.8582044810537518e+03  9.7072266779251386e+03  9.5562626542510770e+03  9.4053098876748918e+03  9.2543663871380868e+03  9.1034305815032221e+03  8.9525012364076902e+03  8.8015773919639269e+03  8.6506583161951439e+03  8.4997434706551576e+03  8.3488324857731495e+03  8.1979251442515852e+03  8.0470213714366964e+03  7.8961212320502282e+03  7.7452249330725417e+03  7.5943328329428778e+03  7.4434454576290873e+03  7.2925635245541453e+03  7.1416879758923114e+03  6.9908200234188780e+03  6.8399612079938843e+03  6.6891134780159055e+03  6.5382792930633495e+03  6.3874617620597983e+03  6.2366648314919175e+03  6.0858935541637993e+03  5.9351545089498613e+03  5.7844565812137580e+03  5.6338128589601747e+03  5.4832455587050881e+03  5.3328077342223569e+03  5.1826816140085220e+03  5.0333038055939714e+03  4.8850264410937534e+03  4.7340474770980354e+03  3.3899486447538793e+03  3.3628656831414419e+03  3.3344843372040114e+03  3.3063642039002052e+03  3.2782672943315188e+03  3.2501400667819985e+03  3.2219822156534419e+03  3.1937999012453838e+03  3.1655989457740575e+03  3.1373838621997952e+03  3.1091579991184121e+03  3.0809238324309626e+03  3.0526832067562036e+03  3.0244375118069197e+03  2.9961878068327201e+03  2.9679349081491400e+03  2.9396794511627736e+03  2.9114219348447200e+03  2.8831627540447807e+03  2.8549022232896991e+03  2.8266405945404158e+03  2.7983780706061380e+03  2.7701148153936952e+03  2.7418509618204380e+03  2.7135866179805375e+03  2.6853218719900965e+03  2.6570567958219740e+03  2.6287914483602494e+03  2.6005258778464708e+03  2.5722601238480306e+03  2.5439942188483483e+03  2.5157281895359079e+03  2.4874620578521531e+03  2.4591958418454374e+03  2.4309295563682845e+03  2.4026632136477119e+03  2.3743968237523532e+03  2.3461303949755156e+03  2.3178639341495991e+03  2.2895974469043895e+03  2.2613309378793765e+03  2.2330644108983920e+03  2.2047978691133007e+03  2.1765313151222877e+03  2.1482647510672659e+03  2.1199981787140905e+03  2.0917315995186518e+03  2.0634650146813278e+03  2.0351984251918591e+03  2.0069318318663334e+03  1.9786652353776706e+03  1.9503986362807514e+03  1.9221320350331350e+03  1.8938654320121389e+03  1.8655988275289212e+03  1.8373322218400924e+03  1.8090656151572903e+03  1.7807990076550736e+03  1.7525323994774410e+03  1.7242657907431944e+03  1.6959991815503784e+03  1.6677325719799301e+03  1.6394659620987065e+03  1.6111993519619703e+03  1.5829327416154551e+03  1.5546661310970730e+03  1.5263995204383239e+03  1.4981329096654713e+03  1.4698662988005262e+03  1.4415996878620649e+03  1.4133330768659191e+03  1.3850664658257715e+03  1.3567998547536631e+03  1.3285332436604454e+03  1.3002666325561781e+03  1.2720000214505137e+03  1.2437334103530529e+03  1.2154667992737020e+03  1.1872001882230454e+03  1.1589335772127413e+03  1.1306669662559586e+03  1.1024003553678665e+03  1.0741337445662077e+03  1.0458671338719676e+03  1.0176005233101563e+03  9.8933391291075952e+02  9.6106730270987316e+02  9.3280069275107257e+02  9.0453408308707367e+02  8.7626747378175446e+02  8.4800086491261811e+02  8.1973425657380130e+02  7.9146764887975792e+02  7.6320104196978514e+02  7.3493443601360343e+02  7.0666783121824585e+02  6.7840122783661309e+02  6.5013462617814059e+02  6.2186802662217406e+02  5.9360142963482849e+02  5.6533483579042058e+02  5.3706824579891543e+02  5.0880166054140750e+02  4.8053508111646971e+02  4.5226850890139946e+02  4.2400194