<?xml version="1.0"?>
<VTKFile type="UnstructuredGrid"  version="0.1"  >
<UnstructuredGrid>
<Piece  NumberOfPoints="21400" NumberOfCells="42336">
<Points>
<DataArray  type="Float64"  NumberOfComponents="3"  format="ascii">0 0 0  0.004583333333333333 0 0  0.009166666666666667 0 0  0.01375 0 0  0.01833333333333333 0 0  0.02291666666666667 0 0  0.0275 0 0  0.03208333333333334 0 0  0.03666666666666667 0 0  0.04125 0 0  0.04583333333333334 0 0  0.05041666666666667 0 0  0.055 0 0  0.05958333333333334 0 0  0.06416666666666668 0 0  0.06875000000000001 0 0  0.07333333333333333 0 0  0.07791666666666666 0 0  0.08249999999999999 0 0  0.08708333333333333 0 0  0.09166666666666667 0 0  0.09625000000000002 0 0  0.1008333333333333 0 0  0.1054166666666667 0 0  0.11 0 0  0.1145833333333333 0 0  0.1191666666666667 0 0  0.12375 0 0  0.1283333333333334 0 0  0.1329166666666667 0 0  0.1375 0 0  0.1420833333333333 0 0  0.1466666666666667 0 0  0.15125 0 0  0.1558333333333333 0 0  0.1604166666666667 0 0  0.165 0 0  0.1695833333333333 0 0  0.1741666666666667 0 0  0.17875 0 0  0.1833333333333333 0 0  0.1879166666666667 0 0  0.1925 0 0  0.1970833333333333 0 0  0.2016666666666667 0 0  0.20625 0 0  0.2108333333333333 0 0  0.2154166666666666 0 0  0.22 0 0  0.2245833333333334 0 0  0.2291666666666667 0 0  0.23375 0 0  0.2383333333333333 0 0  0.2429166666666667 0 0  0.2475 0 0  0.2520833333333333 0 0  0.2566666666666667 0 0  0.26125 0 0  0.2658333333333334 0 0  0.2704166666666666 0 0  0.275 0 0  0.2795833333333334 0 0  0.2841666666666667 0 0  0.28875 0 0  0.2933333333333333 0 0  0.2979166666666667 0 0  0.3025 0 0  0.3070833333333334 0 0  0.3116666666666666 0 0  0.31625 0 0  0.3208333333333333 0 0  0.3254166666666667 0 0  0.33 0 0  0.3345833333333333 0 0  0.3391666666666667 0 0  0.34375 0 0  0.3483333333333333 0 0  0.3529166666666667 0 0  0.3575 0 0  0.3620833333333333 0 0  0.3666666666666667 0 0  0.37125 0 0  0.3758333333333334 0 0  0.3804166666666667 0 0  0.3850000000000001 0 0  0.3895833333333333 0 0  0.3941666666666667 0 0  0.39875 0 0  0.4033333333333334 0 0  0.4079166666666666 0 0  0.4125 0 0  0.4170833333333334 0 0  0.4216666666666667 0 0  0.42625 0 0  0.4308333333333333 0 0  0.4354166666666667 0 0  0.44 0 0  0.4445833333333333 0 0  0.4491666666666667 0 0  0.45375 0 0  0.4583333333333333 0 0  0.4629166666666666 0 0  0.4675 0 0  0.4720833333333334 0 0  0.4766666666666667 0 0  0.4812500000000001 0 0  0.4858333333333333 0 0  0.4904166666666667 0 0  0.495 0 0  0.4995833333333334 0 0  0.5041666666666667 0 0  0.50875 0 0  0.5133333333333334 0 0  0.5179166666666667 0 0  0.5225 0 0  0.5270833333333333 0 0  0.5316666666666667 0 0  0.53625 0 0  0.5408333333333333 0 0  0.5454166666666667 0 0  0.55 0 0  0.5545833333333333 0 0  0.5591666666666667 0 0  0.5637500000000001 0 0  0.5683333333333334 0 0  0.5729166666666666 0 0  0.5775 0 0  0.5820833333333334 0 0  0.5866666666666667 0 0  0.5912499999999999 0 0  0.5958333333333334 0 0  0.6004166666666667 0 0  0.605 0 0  0.6095833333333334 0 0  0.6141666666666667 0 0  0.61875 0 0  0.6233333333333333 0 0  0.6279166666666667 0 0  0.6325000000000001 0 0  0.6370833333333333 0 0  0.6416666666666666 0 0  0.64625 0 0  0.6508333333333334 0 0  0.6554166666666666 0 0  0.6599999999999999 0 0  0.6645833333333334 0 0  0.6691666666666667 0 0  0.67375 0 0  0.6783333333333333 0 0  0.6829166666666667 0 0  0.6875 0 0  0.6920833333333333 0 0  0.6966666666666667 0 0  0.70125 0 0  0.7058333333333333 0 0  0.7104166666666667 0 0  0.7150000000000001 0 0  0.7195833333333334 0 0  0.7241666666666666 0 0  0.72875 0 0  0.7333333333333334 0 0  0.7379166666666667 0 0  0.7425 0 0  0.7470833333333333 0 0  0.7516666666666667 0 0  0.75625 0 0  0.7608333333333334 0 0  0.7654166666666666 0 0  0.7700000000000001 0 0  0 0.002380952380952381 0  0.004583333333333333 0.002380952380952381 0  0.009166666666666667 0.002380952380952381 0  0.01375 0.002380952380952381 0  0.01833333333333333 0.002380952380952381 0  0.02291666666666667 0.002380952380952381 0  0.0275 0.002380952380952381 0  0.03208333333333334 0.002380952380952381 0  0.03666666666666667 0.002380952380952381 0  0.04125 0.002380952380952381 0  0.04583333333333334 0.002380952380952381 0  0.05041666666666667 0.002380952380952381 0  0.055 0.002380952380952381 0  0.05958333333333334 0.002380952380952381 0  0.06416666666666668 0.002380952380952381 0  0.06875000000000001 0.002380952380952381 0  0.07333333333333333 0.002380952380952381 0  0.07791666666666666 0.002380952380952381 0  0.08249999999999999 0.002380952380952381 0  0.08708333333333333 0.002380952380952381 0  0.09166666666666667 0.002380952380952381 0  0.09625000000000002 0.002380952380952381 0  0.1008333333333333 0.002380952380952381 0  0.1054166666666667 0.002380952380952381 0  0.11 0.002380952380952381 0  0.1145833333333333 0.002380952380952381 0  0.1191666666666667 0.002380952380952381 0  0.12375 0.002380952380952381 0  0.1283333333333334 0.002380952380952381 0  0.1329166666666667 0.002380952380952381 0  0.1375 0.002380952380952381 0  0.1420833333333333 0.002380952380952381 0  0.1466666666666667 0.002380952380952381 0  0.15125 0.002380952380952381 0  0.1558333333333333 0.002380952380952381 0  0.1604166666666667 0.002380952380952381 0  0.165 0.002380952380952381 0  0.1695833333333333 0.002380952380952381 0  0.1741666666666667 0.002380952380952381 0  0.17875 0.002380952380952381 0  0.1833333333333333 0.002380952380952381 0  0.1879166666666667 0.002380952380952381 0  0.1925 0.002380952380952381 0  0.1970833333333333 0.002380952380952381 0  0.2016666666666667 0.002380952380952381 0  0.20625 0.002380952380952381 0  0.2108333333333333 0.002380952380952381 0  0.2154166666666666 0.002380952380952381 0  0.22 0.002380952380952381 0  0.2245833333333334 0.002380952380952381 0  0.2291666666666667 0.002380952380952381 0  0.23375 0.002380952380952381 0  0.2383333333333333 0.002380952380952381 0  0.2429166666666667 0.002380952380952381 0  0.2475 0.002380952380952381 0  0.2520833333333333 0.002380952380952381 0  0.2566666666666667 0.002380952380952381 0  0.26125 0.002380952380952381 0  0.2658333333333334 0.002380952380952381 0  0.2704166666666666 0.002380952380952381 0  0.275 0.002380952380952381 0  0.2795833333333334 0.002380952380952381 0  0.2841666666666667 0.002380952380952381 0  0.28875 0.002380952380952381 0  0.2933333333333333 0.002380952380952381 0  0.2979166666666667 0.002380952380952381 0  0.3025 0.002380952380952381 0  0.3070833333333334 0.002380952380952381 0  0.3116666666666666 0.002380952380952381 0  0.31625 0.002380952380952381 0  0.3208333333333333 0.002380952380952381 0  0.3254166666666667 0.002380952380952381 0  0.33 0.002380952380952381 0  0.3345833333333333 0.002380952380952381 0  0.3391666666666667 0.002380952380952381 0  0.34375 0.002380952380952381 0  0.3483333333333333 0.002380952380952381 0  0.3529166666666667 0.002380952380952381 0  0.3575 0.002380952380952381 0  0.3620833333333333 0.002380952380952381 0  0.3666666666666667 0.002380952380952381 0  0.37125 0.002380952380952381 0  0.3758333333333334 0.002380952380952381 0  0.3804166666666667 0.002380952380952381 0  0.3850000000000001 0.002380952380952381 0  0.3895833333333333 0.002380952380952381 0  0.3941666666666667 0.002380952380952381 0  0.39875 0.002380952380952381 0  0.4033333333333334 0.002380952380952381 0  0.4079166666666666 0.002380952380952381 0  0.4125 0.002380952380952381 0  0.4170833333333334 0.002380952380952381 0  0.4216666666666667 0.002380952380952381 0  0.42625 0.002380952380952381 0  0.4308333333333333 0.002380952380952381 0  0.4354166666666667 0.002380952380952381 0  0.44 0.002380952380952381 0  0.4445833333333333 0.002380952380952381 0  0.4491666666666667 0.002380952380952381 0  0.45375 0.002380952380952381 0  0.4583333333333333 0.002380952380952381 0  0.4629166666666666 0.002380952380952381 0  0.4675 0.002380952380952381 0  0.4720833333333334 0.002380952380952381 0  0.4766666666666667 0.002380952380952381 0  0.4812500000000001 0.002380952380952381 0  0.4858333333333333 0.002380952380952381 0  0.4904166666666667 0.002380952380952381 0  0.495 0.002380952380952381 0  0.4995833333333334 0.002380952380952381 0  0.5041666666666667 0.002380952380952381 0  0.50875 0.002380952380952381 0  0.5133333333333334 0.002380952380952381 0  0.5179166666666667 0.002380952380952381 0  0.5225 0.002380952380952381 0  0.5270833333333333 0.002380952380952381 0  0.5316666666666667 0.002380952380952381 0  0.53625 0.002380952380952381 0  0.5408333333333333 0.002380952380952381 0  0.5454166666666667 0.002380952380952381 0  0.55 0.002380952380952381 0  0.5545833333333333 0.002380952380952381 0  0.5591666666666667 0.002380952380952381 0  0.5637500000000001 0.002380952380952381 0  0.5683333333333334 0.002380952380952381 0  0.5729166666666666 0.002380952380952381 0  0.5775 0.002380952380952381 0  0.5820833333333334 0.002380952380952381 0  0.5866666666666667 0.002380952380952381 0  0.5912499999999999 0.002380952380952381 0  0.5958333333333334 0.002380952380952381 0  0.6004166666666667 0.002380952380952381 0  0.605 0.002380952380952381 0  0.6095833333333334 0.002380952380952381 0  0.6141666666666667 0.002380952380952381 0  0.61875 0.002380952380952381 0  0.6233333333333333 0.002380952380952381 0  0.6279166666666667 0.002380952380952381 0  0.6325000000000001 0.002380952380952381 0  0.6370833333333333 0.002380952380952381 0  0.6416666666666666 0.002380952380952381 0  0.64625 0.002380952380952381 0  0.6508333333333334 0.002380952380952381 0  0.6554166666666666 0.002380952380952381 0  0.6599999999999999 0.002380952380952381 0  0.6645833333333334 0.002380952380952381 0  0.6691666666666667 0.002380952380952381 0  0.67375 0.002380952380952381 0  0.6783333333333333 0.002380952380952381 0  0.6829166666666667 0.002380952380952381 0  0.6875 0.002380952380952381 0  0.6920833333333333 0.002380952380952381 0  0.6966666666666667 0.002380952380952381 0  0.70125 0.002380952380952381 0  0.7058333333333333 0.002380952380952381 0  0.7104166666666667 0.002380952380952381 0  0.7150000000000001 0.002380952380952381 
[...]
<PointData  Scalars="pressure"> 
<DataArray  type="Float64"  Name="pressure"  format="ascii">1.0494823802851462e+04  1.0332393118215190e+04  1.0178573937243757e+04  1.0025956762356247e+04  9.8739902880153786e+03  9.7223450616246409e+03  9.5709014752841595e+03  9.4195919753451471e+03  9.2683770818489393e+03  9.1172315374386981e+03  8.9661383713601572e+03  8.8150857366937398e+03  8.6640651445947369e+03  8.5130704118065532e+03  8.3620970056723891e+03  8.2111416231460571e+03  8.0602019152591320e+03  7.9092763068994045e+03  7.7583638827413588e+03  7.6074643222668537e+03  7.4565778741625018e+03  7.3057053650021080e+03  7.1548482398436372e+03  7.0040086329893202e+03  6.8531894638680051e+03  6.7023945405163586e+03  6.5516286154540740e+03  6.4008972182124089e+03  6.2502059777991535e+03  6.0995566757681718e+03  5.9489432970299604e+03  5.7982716159144838e+03  5.6477857325868163e+03  5.4902984813202283e+03  3.8934162632513944e+03  3.7939339023926991e+03  3.7376825738076427e+03  3.6997513428075376e+03  3.6727836455817887e+03  3.6452246579534067e+03  3.6172766410391882e+03  3.5892255396525038e+03  3.5611071068348183e+03  3.5329481909110191e+03  3.5047619780281793e+03  3.4765566625642000e+03  3.4483375146755329e+03  3.4201081037648282e+03  3.3918709292608378e+03  3.3636277902710531e+03  3.3353800110115931e+03  3.3071285844127078e+03  3.2788742666525795e+03  3.2506176411769729e+03  3.2223591631295481e+03  3.1940991908616088e+03  3.1658380087135783e+03  3.1375758437722129e+03  3.1093128783878933e+03  3.0810492596539839e+03  3.0527851066733406e+03  3.0245205161886006e+03  2.9962555669857115e+03  2.9679903233662135e+03  2.9397248379045127e+03  2.9114591536506309e+03  2.8831933058990603e+03  2.8549273236153790e+03  2.8266612305911276e+03  2.7983950463815922e+03  2.7701287870693186e+03  2.7418624658870735e+03  2.7135960937270611e+03  2.6853296795577962e+03  2.6570632307658175e+03  2.6287967534360532e+03  2.6005302525820975e+03  2.5722637323354411e+03  2.5439971961010879e+03  2.5157306466855875e+03  2.4874640864024095e+03  2.4591975171587010e+03  2.4309309405267391e+03  2.4026643578027947e+03  2.3743977700556197e+03  2.3461311781664149e+03  2.3178645828617550e+03  2.2895979847407389e+03  2.2613313842973635e+03  2.2330647819389687e+03  2.2047981780014438e+03  2.1765315727617626e+03  2.1482649664483229e+03  2.1199983592494646e+03  2.0917317513205053e+03  2.0634651427895219e+03  2.0351985337621422e+03  2.0069319243254763e+03  1.9786653145513690e+03  1.9503987044990799e+03  1.9221320942174939e+03  1.8938654837469417e+03  1.8655988731207076e+03  1.8373322623662707e+03  1.8090656515063283e+03  1.7807990405596408e+03  1.7525324295417374e+03  1.7242658184654856e+03  1.6959992073415817e+03  1.6677325961789427e+03  1.6394659849850418e+03  1.6111993737661849e+03  1.5829327625277497e+03  1.5546661512743810e+03  1.5263995400101692e+03  1.4981329287387964e+03  1.4698663174636820e+03  1.4415997061881042e+03  1.4133330949153240e+03  1.3850664836487051e+03  1.3567998723918440e+03  1.3285332611487008e+03  1.3002666499237457e+03  1.2720000387221310e+03  1.2437334275498793e+03  1.2154668164141108e+03  1.1872002053233077e+03  1.1589335942876355e+03  1.1306669833193241e+03  1.1024003724331212e+03  1.0741337616468556e+03  1.0458671509821058e+03  1.0176005404650139e+03  9.8933393012727765e+02  9.6106732000735985e+02  9.3280071015195506e+02  9.0453410061778095e+02  8.7626749147377382e+02  8.4800088280377281e+02  8.1973427470981267e+02  7.9146766731617959e+02  7.6320106077440892e+02  7.3493445526948869e+02  7.0666785102756046e+02  6.7840124832555364e+02  6.5013464750329956e+02  6.2186804897887419e+02  5.9360145326816723e+02  5.6533486101010885e+02  5.3706827299951476e+02  5.0880169023038241e+02  4.8053511395377620e+02  4.5226854575643841e+02  4.2400198766946727e+02  3.9573544232158235e+02  3.6746891316016064e+02  3.3920240477812530e+02  3.1093592341113532e+02  2.8266947771909832e+02  2.5440308005423773e+02  2.2613674865647121e+02  1.9787051121835520e+02  1.6960441452084055e+02  1.4133851893126251e+02  1.1307309740121137e+02  8.4807248966223597e+01  5.6551537994360643e+01  2.8205951008077832e+01  7.9925960190627987e-01  1.0486541199896970e+04  1.0332442448804231e+04  1.0178390162996573e+04  1.0025904857045431e+04  9.8739562225864993e+03  9.7223242973822998e+03  9.5708873626261939e+03  9.4195819678631997e+03  9.2683697133507321e+03  9.1172259588133293e+03  8.9661340490624316e+03  8.8150823186225807e+03  8.6640623876290847e+03  8.5130681412533904e+03  8.3620950911148157e+03  8.2111399633297278e+03  8.0602004281411055e+03  7.9092749227262402e+03  7.7583625389173412e+03  7.6074629592565134e+03  7.4565764319520358e+03  7.3057037798391120e+03  7.1548464411831956e+03  7.0040065409503177e+03  6.8531869884355965e+03  6.7023915857312440e+03  6.5516250965478366e+03  6.4008931488665512e+03  6.2502014527540850e+03  6.0995537097110437e+03  5.9489399061008553e+03  5.7983471157550657e+03  5.6473101938466025e+03  5.4962566126371521e+03  5.3496513969288417e+03  5.2117301434105957e+03  5.1255844905856402e+03  3.6989430941971364e+03  3.6730198183495017e+03  3.6452279537875070e+03  3.6172909211293741e+03  3.5892318935371591e+03  3.5611113933244865e+03  3.5329510547614641e+03  3.5047640009100528e+03  3.4765581327818713e+03  3.4483386096367476e+03  3.4201089349679091e+03  3.3918715701878486e+03  3.3636282909108900e+03  3.3353804063287316e+03  3.3071288994426895e+03  3.2788745196886866e+03  3.2506178458232321e+03  3.2223593296587246e+03  3.1940993271346615e+03  3.1658381208154101e+03  3.1375759364598111e+03  3.1093129554118377e+03  3.0810493239928646e+03  3.0527851607072789e+03  3.0245205618294226e+03  2.9962556057758484e+03  2.9679903565546729e+03  2.9397248665058246e+03  2.9114591784909981e+03  2.8831933276527639e+03  2.8549273428337001e+03  2.8266612477254530e+03  2.7983950618019740e+03  2.7701288010794397e+03  2.7418624787363569e+03  2.7135961056205128e+03  2.6853296906640135e+03  2.6570632412235145e+03  2.6287967633594089e+03  2.6005302620651219e+03  2.5722637414555616e+03  2.5439972049220873e+03  2.5157306552600180e+03  2.4874640947735752e+03  2.4591975253622918e+03  2.4309309485921735e+03  2.4026643657543200e+03  2.3743977779132274e+03  2.3461311859465832e+03  2.3178645905780718e+03  2.2895979924044045e+03  2.2613313919176144e+03  2.2330647895234215e+03  2.2047981855563762e+03  2.1765315802923524e+03  2.1482649739588392e+03  2.1199983667434276e+03  2.0917317588008164e+03  2.0634651502585762e+03  2.0351985412219121e+03  2.0069319317775889e+03  1.9786653219971656e+03  1.9503987119396668e+03  1.9221321016537815e+03  1.8938654911796818e+03  1.8655988805505190e+03  1.8373322697936630e+03  1.8090656589317207e+03  1.7807990479833786e+03  1.7525324369641025e+03  1.7242658258867109e+03  1.6959992147618566e+03  1.6677326035984202e+03  1.6394659924038469e+03  1.6111993811844166e+03  1.5829327699454848e+03  1.5546661586916800e+03  1.5263995474270741e+03  1.4981329361553351e+03  1.4698663248798698e+03  1.4415997136039425e+03  1.4133331023308006e+03  1.3850664910637950e+03  1.3567998798065078e+03  1.3285332685628834e+03  1.3002666573373735e+03  1.2720000461351094e+03  1.2437334349620908e+03  1.2154668238254078e+03  1.1872002127335084e+03  1.1589336016965181e+03  1.1306669907266159e+03  1.1024003798384911e+03  1.0741337690498979e+03  1.0458671583823293e+03  1.0176005478618189e+03  9.8933393751993538e+02  9.6106732739498261e+02  9.3280071753346158e+02  9.0453410799185474e+02  8.7626749883880814e+02  8.4800089015780634e+02  8.1973428205044843e+02  7.9146767464048048e+02  7.6320106807877255e+02  7.3493446254948265e+02  7.0666785827771719e+02  6.7840125553910377e+02  6.5013465467182687e+02  6.2186805609186274e+02  5.9360146031239844e+02  5.6533486796884858e+02  5.3706827985140114e+02  5.0880169694787833e+02  4.8053512050097316e+02  4.5226855208588188e+02  4.2400199371746362e+02  3.9573544800109312e+02  3.6746891834975690e+02  3.3920240930429208e+02  3.1093592701910239e+02  2.8266948002184608e+02  2.5440308044864091e+02  2.2613674610328584e+02  1.9787050432706781e+02  1.6960439735357028e+02  1.4133850851382564e+02  1.1307288684605672e+02  8.4808461689261719e+01  5.6540124276300027e+01  2.8309264635298305e+01  -4.3494475678423489e-02  1.0482871772819401e+04  1.0330941727883110e+04  1.0178010771726204e+04  1.0025703735717720e+04  9.8738441522719950e+03  9.7222529100157662e+03  9.5708389530373224e+03  9.4195474812454486e+03  9.2683442625332591e+03  9.1172066484409661e+03  8.9661190576768022e+03  8.8150704391522795e+03  8.6640527843134896e+03  8.5130602119981304e+03  8.3620883852702809e+03  8.2111341300199947e+03  8.0601951821048833e+03  7.9092700204392531e+03  7.7583577607726565e+03  7.6074580952053011e+03  7.4565712689439833e+03  7.3056980900426688e+03  7.1548399706429273e+03  7.0039989995593533e+03  6.8531780449336611e+03  6.7023808786203026e+03  6.5516122945683346e+03  6.4008781304561562e+03  6.2501849518638883e+03  6.0995387233975225e+03  5.9489425264785004e+03  5.7983723501181767e+03  5.6477818555928443e+03  5.4979423672416215e+03  5.3513012018604559e+03  5.2042786419167151e+03  3.7305408032451755e+03  3.7011480344074571e+03  3.6731159723254314e+03  3.6453199466180545e+03  3.6173281367345953e+03  3.5892547379141361e+03  3.5611258610402597e+03  3.5329608921224808e+03  3.5047709470444129e+03  3.4765631873418074e+03  3.4483423727385161e+03  3.4201117880854163e+03  3.3918737653428152e+03  3.3636300000958904e+03  3.3353817501270328e+03  3.3071299643692200e+03  3.2788753690664307e+03  3.2506185268111794e+03  3.2223598779118620e+03  3.1940997699657646e+03  3.1658384793854225e+03  3.1375762273243704e+03  3.1093131916324701e+03  3.0810495159483435e+03  3.0527853166948657e+03  3.0245206885164803e+03  2.9962557085432559e+03  2.9679904397608675e+03  2.9397249336918399e+03  2.9114592325410922e+03  2.8831933709212117e+03  2.8549273772455717e+03  2.8266612748571638e+03  2.7983950829459995e+03  2.7701288172965228e+03  2.7418624908977831e+03  2.7135961144424396e+03  2.6853296967354249e+03  2.6570632450290327e+03  2.6287967652979414e+03  2.6005302624651249e+03  2.5722637405875535e+03  2.5439972030089202e+03  2.5157306524853075e+03  2.4874640912886316e+03  2.4591975212918187e+03  2.4309309440389566e+03  2.4026643608030881e+03  2.3743977726338258e+03  2.3461311803965941e+03  2.3178645848049687e+03  2.2895979864473302e+03  2.2613313858088409e+03  2.2330647832895579e+03  2.2047981792193627e+03  2.1765315738702798e+03  2.1482649674666245e+03  2.1199983601933723e+03  2.0917317522030617e+03  2.0634651436214845e+03  2.0351985345523790e+03  2.0069319250812991e+03  1.9786653152788067e+03  1.9503987052031021e+03  1.9221320949021967e+03  1.8938654844157011e+03  1.8655988737763053e+03  1.8373322630109965e+03  1.8090656521420667e+03  1.7807990411879421e+03  1.7525324301638720e+03  1.7242658190824973e+03  1.6959992079543213e+03  1.6677325967881025e+03  1.6394659855911791e+03  1.6111993743697462e+03  1.5829327631290835e+03  1.5546661518737549e+03  1.5263995406077754e+03  1.4981329293347626e+03  1.4698663180580747e+03  1.4415997067809305e+03  1.4133330955065328e+03  1.3850664842381857e+03  1.3567998729794201e+03  1.3285332617341257e+03  1.3002666505066923e+03  1.2720000393021789e+03  1.2437334281265003e+03  1.2154668169866484e+03  1.1872002058909522e+03  1.1589335948493938e+03  1.1306669838739811e+03  1.1024003729791968e+03  1.0741337621825435e+03  1.0458671515052088e+03  1.0176005409728576e+03  9.8933393061660774e+02  9.6106732047421440e+02  9.3280071059150964e+02  9.0453410102415694e+02  8.7626749183980235e+02  8.4800088312070079e+02  8.1973427496694080e+02  7.9146766750040376e+02  7.6320106086965268e+02  7.3493445525597735e+02  7.0666785088090126e+02  6.7840124801555123e+02  6.5013464699241922e+02  6.2186804822022407e+02  5.9360145220281822e+02  5.6533485956348113e+02  5.3706827107643574e+02  5.0880168770821422e+02  4.8053511067267635e+02  4.5226854150529016e+02  4.2400198216510381e+02  3.9573543517737181e+02  3.6746890383724252e+02  3.3920239250747937e+02  3.1093590706495706e+02  2.8266945559013658e+02  2.5440304946470891e+02  2.2613670520042078e+02  1.9787044748190021e+02  1.6960431552343928e+02  1.4133836852466601e+02  1.1307274709564814e+02  8.4807457144460358e+01  5.6544055777363582e+01  2.8285121436971028e+01  5.6319887885683687e-03  1.0480700054271116e+04  1.0329513306837485e+04  1.0177401521849994e+04  1.0025395365761042e+04  9.8736615261755924e+03  9.7221352857060501e+03  9.5707582638769454e+03  9.4194896356979334e+03  9.2683013831905628e+03  9.1171740135339569e+03  8.9660936637781888e+03  8.8150502809477166e+03  8.6640364652771241e+03  8.5130467215016288e+03  8.3620769641254246e+03  8.2111241853292340e+03  8.0601862305987133e+03  7.9092616486343750e+03  7.7583495950700672e+03  7.6074497776527624e+03  7.4565624358876994e+03  7.3056883519024668e+03  7.1548288920750556e+03  7.0039860810705413e+03  6.8531627111655762e+03  6.7023624895009625e+03  6.5515902230291349e+03  6.4008520309397609e+03  6.2501555694079671e+03  6.0995105063850178e+03  5.9489293056070910e+03  5.7984314346603005e+03  5.6481523632230701e+03  5.4987468228004755e+03  5.3511668612216536e+03  5.2015286579004796e+03  3.7297772396664946e+03  3.7018180746310277e+03  3.6734293083715766e+03  3.6454302365933390e+03  3.6173902134068344e+03  3.5892914994268158e+03  3.5611498309508515e+03  3.5329772905242867e+03  3.5047825962044735e+03  3.4765716956040656e+03  3.4483487243180789e+03  3.4201166132028338e+03  3.3918774830537554e+03  3.3636328977192638e+03  3.3353840298504497e+03  3.3071317716917038e+03  3.2788768107466690e+03  3.2506196825200727e+03  3.2223608079892870e+03  3.1941005207009412e+03  3.1658390866853565e+03  3.1375767193104207e+03  3.1093135905100789e+03  3.0810498393748876e+03  3.0527855787950225e+03  3.0245209006460641e+03  2.9962558798708264e+03  2.9679905777154504e+03  2.9397250443109606e+03  2.9114593207436492e+03  2.8831934407230747e+03  2.8549274319310257e+03  2.8266613171160443e+03  2.7983951149839077e+03  2.7701288409237823e+03  2.7418625076014923e+03  2.7135961254450076e+03  2.6853297030422414e+03  2.6570632474673812e+03  2.6287967645488052e+03  2.6005302590892370e+03  2.5722637350467539e+03  2.5439971956836712e+03  2.5157306436890944e+03  2.4874640812797870e+03  2.4591975102832525e+03  2.4309309322061604e+03  2.4026643482907225e+03  2.3743977595611432e+03  2.3461311668619119e+03  2.3178645708893409e+03  2.2895979722175875e+03  2.2613313713200837e+03  2.2330647685872204e+03  2.2047981643409057e+03  2.1765315588465919e+03  2.1482649523231757e+03  2.1199983449511628e+03  2.0917317368794097e+03  2.0634651282306681e+03  2.0351985191061715e+03  2.0069319095894073e+03  1.9786652997492329e+03  1.9503986896424442e+03  1.9221320793158927e+03  1.8938654688082322e+03  1.8655988581513634e+03  1.8373322473716228e+03  1.8090656364907627e+03  1.7807990255267644e+03  1.7525324144945107e+03  1.7242658034063350e+03  1.6959991922724889e+03  1.6677325811015166e+03  1.6394659699005833e+03  1.6111993586757312e+03  1.5829327474321135e+03  1.5546661361741837e+03  1.5263995249058601e+03  1.4981329136306736e+03  1.4698663023518989e+03  1.4415996910726794e+03  1.4133330797961394e+03  1.3850664685255031e+03  1.3567998572642164e+03  1.3285332460160741e+03  1.3002666347853601e+03  1.2720000235770108e+03  1.2437334123967980e+03  1.2154668012515426e+03  1.1872001901493720e+03  1.1589335791000256e+03  1.1306669681152182e+03  1.1024003572090794e+03  1.0741337463986845e+03  1.0458671357047008e+03  1.0176005251521628e+03  9.8933391477142152e+02  9.6106730459929713e+02  9.3280069468048100e+02  9.0453408506924370e+02  8.7626747583152496e+02  8.4800086704748810e+02  8.1973425881464925e+02  7.9146765125171680e+02  7.6320104450332872e+02  7.3493443874589695e+02  7.0666783419485637e+02  6.7840123111368973e+02  6.5013462982522674e+02  6.2186803072588202e+02  5.9360143430369533e+02  5.6533484116141642e+02  5.3706825204629945e+02  5.0880166788897060e+02  4.8053508985476014e+02  4.5226851941242194e+02  4.2400195842753698e+02  3.9573540929160873e+02  3.6746887510381333e+02  3.3920235993208775e+02  3.1093586919645355e+02  2.8266941024507946e+02  2.5440299324274977e+02  2.2613663257107663e+02  1.9787034914070395e+02  1.6960417398949753e+02  1.4133815603410434e+02  1.1307236827151976e+02  8.4806939091577220e+01  5.6542509718256134e+01  2.8277085991464752e+01  -4.2735393692954892e-04  1.0479186560529575e+04  1.0328311786891658e+04  1.0176717781333260e+04  1.0025010310447789e+04  9.8734238470834189e+03  9.7219781391974066e+03  9.5706488746930663e+03  9.4194104624679621e+03  9.2682423209374247e+03  9.1171288635251312e+03  8.9660584211991736e+03  8.8150222407567562e+03  8.6640137271702079e+03  8.5130279009419828e+03  8.3620610154440801e+03  8.2111102883569147e+03  8.0601737144730660e+03  7.9092499377611275e+03  7.7583381682457966e+03  7.6074381346758082e+03  7.4565500678954868e+03  7.3056747129269115e+03  7.1548133705090013e+03  7.0039679717350236e+03  6.8531411932505398e+03  6.7023366271576897e+03  6.5515590350763378e+03  6.4008147560427296e+03  6.2501124773164065e+03  6.0994651227080039e+03  5.9488947720675351e+03  5.7984543649669758e+03  5.6483260349915172e+03  5.4989463115747030e+03  5.3506672594949105e+03  5.1996867254123017e+03  3.7291492669302024e+03  3.7020660911316263e+03  3.6736845537519939e+03  3.6455642655640650e+03  3.6174672287564408e+03  3.5893398963751956e+03  3.5611819588001526e+03  3.5329995730941164e+03  3.5047985588170568e+03  3.4765834267413111e+03  3.4483575236580837e+03  3.4201233239796638e+03  3.3918826710965855e+03  3.3636369537084124e+03  3.3353872302289442e+03  3.3071343162842986e+03  3.2788788467124282e+03  3.2506213200154243e+03  3.2223621306562745e+03  3.1941015928426987e+03  3.1658399582725306e+03  3.1375774295379970e+03  3.1093141703669767e+03  3.0810503135292511e+03  3.0527859669972831e+03  3.0245212187868142e+03  2.9962561407879352e+03  2.9679907918164672e+03  2.9397252200576709e+03  2.9114594650325180e+03  2.8831935591861497e+03  2.8549275291754789e+03  2.8266613969159202e+03  2.7983951804343537e+03  2.7701288945656020e+03  2.7418625515220774e+03  2.7135961613603754e+03  2.6853297323638717e+03  2.6570632713567770e+03  2.6287967839621206e+03  2.6005302748138201e+03  2.5722637477311091e+03  2.5439972058620592e+03  2.5157306518017290e+03  2.4874640876894441e+03  2.4591975152889245e+03  2.4309309360542952e+03  2.4026643511844745e+03  2.3743977616679890e+03  2.3461311683199206e+03  2.3178645718123489e+03  2.2895979726994487e+03  2.2613313714381839e+03  2.2330647684053624e+03  2.2047981639117020e+03  2.1765315582134240e+03  2.1482649515218122e+03  2.1199983440111000e+03  2.0917317358249661e+03  2.0634651270818972e+03  2.0351985178796074e+03  2.0069319082986833e+03  1.9786652984055884e+03  1.9503986882551440e+03  1.9221320778925742e+03  1.8938654673551896e+03  1.8655988566737819e+03  1.8373322458737719e+03  1.8090656349761566e+03  1.7807990239982923e+03  1.7525324129545436e+03  1.7242658018568172e+03  1.6959991907150068e+03  1.6677325795373615e+03  1.6394659683307952e+03  1.6111993571011417e+03  1.5829327458533739e+03  1.5546661345917917e+03  1.5263995233201765e+03  1.4981329120419366e+03  1.4698663007602333e+03  1.4415996894780999e+03  1.4133330781985521e+03  1.3850664669247024e+03  1.3567998556598764e+03  1.3285332444077364e+03  1.3002666331724176e+03  1.2720000219586846e+03  1.2437334107721067e+03  1.2154667996192666e+03  1.1872001885080088e+03  1.1589335774477308e+03  1.1306669664497379e+03  1.1024003555276634e+03  1.0741337446979810e+03  1.0458671339806317e+03  1.0176005233997643e+03  9.8933391298465335e+02  9.6106730277080828e+02  9.3280069280132136e+02  9.0453408312851036e+02  8.7626747381592395e+02  8.4800086494079528e+02  8.1973425659703707e+02  7.9146764889891870e+02  7.6320104198558568e+02  7.3493443602663262e+02  7.0666783122898994e+02  6.7840122784547282e+02  6.5013462618544622e+02  6.2186802662819809e+02  5.9360142963979558e+02  5.6533483579451581e+02  5.3706824580229159e+02  5.0880166054419072e+02  4.8053508111876391e+02  4.5226850890329013e+02  4.2400194