<?xml version="1.0"?>
<VTKFile type="UnstructuredGrid"  version="0.1"  >
<UnstructuredGrid>
<Piece  NumberOfPoints="21400" NumberOfCells="42336">
<Points>
<DataArray  type="Float64"  NumberOfComponents="3"  format="ascii">0 0 0  0.004583333333333333 0 0  0.009166666666666667 0 0  0.01375 0 0  0.01833333333333333 0 0  0.02291666666666667 0 0  0.0275 0 0  0.03208333333333334 0 0  0.03666666666666667 0 0  0.04125 0 0  0.04583333333333334 0 0  0.05041666666666667 0 0  0.055 0 0  0.05958333333333334 0 0  0.06416666666666668 0 0  0.06875000000000001 0 0  0.07333333333333333 0 0  0.07791666666666666 0 0  0.08249999999999999 0 0  0.08708333333333333 0 0  0.09166666666666667 0 0  0.09625000000000002 0 0  0.1008333333333333 0 0  0.1054166666666667 0 0  0.11 0 0  0.1145833333333333 0 0  0.1191666666666667 0 0  0.12375 0 0  0.1283333333333334 0 0  0.1329166666666667 0 0  0.1375 0 0  0.1420833333333333 0 0  0.1466666666666667 0 0  0.15125 0 0  0.1558333333333333 0 0  0.1604166666666667 0 0  0.165 0 0  0.1695833333333333 0 0  0.1741666666666667 0 0  0.17875 0 0  0.1833333333333333 0 0  0.1879166666666667 0 0  0.1925 0 0  0.1970833333333333 0 0  0.2016666666666667 0 0  0.20625 0 0  0.2108333333333333 0 0  0.2154166666666666 0 0  0.22 0 0  0.2245833333333334 0 0  0.2291666666666667 0 0  0.23375 0 0  0.2383333333333333 0 0  0.2429166666666667 0 0  0.2475 0 0  0.2520833333333333 0 0  0.2566666666666667 0 0  0.26125 0 0  0.2658333333333334 0 0  0.2704166666666666 0 0  0.275 0 0  0.2795833333333334 0 0  0.2841666666666667 0 0  0.28875 0 0  0.2933333333333333 0 0  0.2979166666666667 0 0  0.3025 0 0  0.3070833333333334 0 0  0.3116666666666666 0 0  0.31625 0 0  0.3208333333333333 0 0  0.3254166666666667 0 0  0.33 0 0  0.3345833333333333 0 0  0.3391666666666667 0 0  0.34375 0 0  0.3483333333333333 0 0  0.3529166666666667 0 0  0.3575 0 0  0.3620833333333333 0 0  0.3666666666666667 0 0  0.37125 0 0  0.3758333333333334 0 0  0.3804166666666667 0 0  0.3850000000000001 0 0  0.3895833333333333 0 0  0.3941666666666667 0 0  0.39875 0 0  0.4033333333333334 0 0  0.4079166666666666 0 0  0.4125 0 0  0.4170833333333334 0 0  0.4216666666666667 0 0  0.42625 0 0  0.4308333333333333 0 0  0.4354166666666667 0 0  0.44 0 0  0.4445833333333333 0 0  0.4491666666666667 0 0  0.45375 0 0  0.4583333333333333 0 0  0.4629166666666666 0 0  0.4675 0 0  0.4720833333333334 0 0  0.4766666666666667 0 0  0.4812500000000001 0 0  0.4858333333333333 0 0  0.4904166666666667 0 0  0.495 0 0  0.4995833333333334 0 0  0.5041666666666667 0 0  0.50875 0 0  0.5133333333333334 0 0  0.5179166666666667 0 0  0.5225 0 0  0.5270833333333333 0 0  0.5316666666666667 0 0  0.53625 0 0  0.5408333333333333 0 0  0.5454166666666667 0 0  0.55 0 0  0.5545833333333333 0 0  0.5591666666666667 0 0  0.5637500000000001 0 0  0.5683333333333334 0 0  0.5729166666666666 0 0  0.5775 0 0  0.5820833333333334 0 0  0.5866666666666667 0 0  0.5912499999999999 0 0  0.5958333333333334 0 0  0.6004166666666667 0 0  0.605 0 0  0.6095833333333334 0 0  0.6141666666666667 0 0  0.61875 0 0  0.6233333333333333 0 0  0.6279166666666667 0 0  0.6325000000000001 0 0  0.6370833333333333 0 0  0.6416666666666666 0 0  0.64625 0 0  0.6508333333333334 0 0  0.6554166666666666 0 0  0.6599999999999999 0 0  0.6645833333333334 0 0  0.6691666666666667 0 0  0.67375 0 0  0.6783333333333333 0 0  0.6829166666666667 0 0  0.6875 0 0  0.6920833333333333 0 0  0.6966666666666667 0 0  0.70125 0 0  0.7058333333333333 0 0  0.7104166666666667 0 0  0.7150000000000001 0 0  0.7195833333333334 0 0  0.7241666666666666 0 0  0.72875 0 0  0.7333333333333334 0 0  0.7379166666666667 0 0  0.7425 0 0  0.7470833333333333 0 0  0.7516666666666667 0 0  0.75625 0 0  0.7608333333333334 0 0  0.7654166666666666 0 0  0.7700000000000001 0 0  0 0.002380952380952381 0  0.004583333333333333 0.002380952380952381 0  0.009166666666666667 0.002380952380952381 0  0.01375 0.002380952380952381 0  0.01833333333333333 0.002380952380952381 0  0.02291666666666667 0.002380952380952381 0  0.0275 0.002380952380952381 0  0.03208333333333334 0.002380952380952381 0  0.03666666666666667 0.002380952380952381 0  0.04125 0.002380952380952381 0  0.04583333333333334 0.002380952380952381 0  0.05041666666666667 0.002380952380952381 0  0.055 0.002380952380952381 0  0.05958333333333334 0.002380952380952381 0  0.06416666666666668 0.002380952380952381 0  0.06875000000000001 0.002380952380952381 0  0.07333333333333333 0.002380952380952381 0  0.07791666666666666 0.002380952380952381 0  0.08249999999999999 0.002380952380952381 0  0.08708333333333333 0.002380952380952381 0  0.09166666666666667 0.002380952380952381 0  0.09625000000000002 0.002380952380952381 0  0.1008333333333333 0.002380952380952381 0  0.1054166666666667 0.002380952380952381 0  0.11 0.002380952380952381 0  0.1145833333333333 0.002380952380952381 0  0.1191666666666667 0.002380952380952381 0  0.12375 0.002380952380952381 0  0.1283333333333334 0.002380952380952381 0  0.1329166666666667 0.002380952380952381 0  0.1375 0.002380952380952381 0  0.1420833333333333 0.002380952380952381 0  0.1466666666666667 0.002380952380952381 0  0.15125 0.002380952380952381 0  0.1558333333333333 0.002380952380952381 0  0.1604166666666667 0.002380952380952381 0  0.165 0.002380952380952381 0  0.1695833333333333 0.002380952380952381 0  0.1741666666666667 0.002380952380952381 0  0.17875 0.002380952380952381 0  0.1833333333333333 0.002380952380952381 0  0.1879166666666667 0.002380952380952381 0  0.1925 0.002380952380952381 0  0.1970833333333333 0.002380952380952381 0  0.2016666666666667 0.002380952380952381 0  0.20625 0.002380952380952381 0  0.2108333333333333 0.002380952380952381 0  0.2154166666666666 0.002380952380952381 0  0.22 0.002380952380952381 0  0.2245833333333334 0.002380952380952381 0  0.2291666666666667 0.002380952380952381 0  0.23375 0.002380952380952381 0  0.2383333333333333 0.002380952380952381 0  0.2429166666666667 0.002380952380952381 0  0.2475 0.002380952380952381 0  0.2520833333333333 0.002380952380952381 0  0.2566666666666667 0.002380952380952381 0  0.26125 0.002380952380952381 0  0.2658333333333334 0.002380952380952381 0  0.2704166666666666 0.002380952380952381 0  0.275 0.002380952380952381 0  0.2795833333333334 0.002380952380952381 0  0.2841666666666667 0.002380952380952381 0  0.28875 0.002380952380952381 0  0.2933333333333333 0.002380952380952381 0  0.2979166666666667 0.002380952380952381 0  0.3025 0.002380952380952381 0  0.3070833333333334 0.002380952380952381 0  0.3116666666666666 0.002380952380952381 0  0.31625 0.002380952380952381 0  0.3208333333333333 0.002380952380952381 0  0.3254166666666667 0.002380952380952381 0  0.33 0.002380952380952381 0  0.3345833333333333 0.002380952380952381 0  0.3391666666666667 0.002380952380952381 0  0.34375 0.002380952380952381 0  0.3483333333333333 0.002380952380952381 0  0.3529166666666667 0.002380952380952381 0  0.3575 0.002380952380952381 0  0.3620833333333333 0.002380952380952381 0  0.3666666666666667 0.002380952380952381 0  0.37125 0.002380952380952381 0  0.3758333333333334 0.002380952380952381 0  0.3804166666666667 0.002380952380952381 0  0.3850000000000001 0.002380952380952381 0  0.3895833333333333 0.002380952380952381 0  0.3941666666666667 0.002380952380952381 0  0.39875 0.002380952380952381 0  0.4033333333333334 0.002380952380952381 0  0.4079166666666666 0.002380952380952381 0  0.4125 0.002380952380952381 0  0.4170833333333334 0.002380952380952381 0  0.4216666666666667 0.002380952380952381 0  0.42625 0.002380952380952381 0  0.4308333333333333 0.002380952380952381 0  0.4354166666666667 0.002380952380952381 0  0.44 0.002380952380952381 0  0.4445833333333333 0.002380952380952381 0  0.4491666666666667 0.002380952380952381 0  0.45375 0.002380952380952381 0  0.4583333333333333 0.002380952380952381 0  0.4629166666666666 0.002380952380952381 0  0.4675 0.002380952380952381 0  0.4720833333333334 0.002380952380952381 0  0.4766666666666667 0.002380952380952381 0  0.4812500000000001 0.002380952380952381 0  0.4858333333333333 0.002380952380952381 0  0.4904166666666667 0.002380952380952381 0  0.495 0.002380952380952381 0  0.4995833333333334 0.002380952380952381 0  0.5041666666666667 0.002380952380952381 0  0.50875 0.002380952380952381 0  0.5133333333333334 0.002380952380952381 0  0.5179166666666667 0.002380952380952381 0  0.5225 0.002380952380952381 0  0.5270833333333333 0.002380952380952381 0  0.5316666666666667 0.002380952380952381 0  0.53625 0.002380952380952381 0  0.5408333333333333 0.002380952380952381 0  0.5454166666666667 0.002380952380952381 0  0.55 0.002380952380952381 0  0.5545833333333333 0.002380952380952381 0  0.5591666666666667 0.002380952380952381 0  0.5637500000000001 0.002380952380952381 0  0.5683333333333334 0.002380952380952381 0  0.5729166666666666 0.002380952380952381 0  0.5775 0.002380952380952381 0  0.5820833333333334 0.002380952380952381 0  0.5866666666666667 0.002380952380952381 0  0.5912499999999999 0.002380952380952381 0  0.5958333333333334 0.002380952380952381 0  0.6004166666666667 0.002380952380952381 0  0.605 0.002380952380952381 0  0.6095833333333334 0.002380952380952381 0  0.6141666666666667 0.002380952380952381 0  0.61875 0.002380952380952381 0  0.6233333333333333 0.002380952380952381 0  0.6279166666666667 0.002380952380952381 0  0.6325000000000001 0.002380952380952381 0  0.6370833333333333 0.002380952380952381 0  0.6416666666666666 0.002380952380952381 0  0.64625 0.002380952380952381 0  0.6508333333333334 0.002380952380952381 0  0.6554166666666666 0.002380952380952381 0  0.6599999999999999 0.002380952380952381 0  0.6645833333333334 0.002380952380952381 0  0.6691666666666667 0.002380952380952381 0  0.67375 0.002380952380952381 0  0.6783333333333333 0.002380952380952381 0  0.6829166666666667 0.002380952380952381 0  0.6875 0.002380952380952381 0  0.6920833333333333 0.002380952380952381 0  0.6966666666666667 0.002380952380952381 0  0.70125 0.002380952380952381 0  0.7058333333333333 0.002380952380952381 0  0.7104166666666667 0.002380952380952381 0  0.7150000000000001 0.002380952380952381 
[...]
<PointData  Scalars="pressure"> 
<DataArray  type="Float64"  Name="pressure"  format="ascii">1.2512656305583849e+04  1.2350225469087301e+04  1.2196405764278015e+04  1.2043787672785025e+04  1.1891819854468584e+04  1.1740172806178323e+04  1.1588726851424351e+04  1.1437414347270140e+04  1.1286195700305636e+04  1.1135045511123857e+04  1.0983946632724101e+04  1.0832887000731067e+04  1.0681857858881091e+04  1.0530852695620741e+04  1.0379866575501417e+04  1.0228895701169618e+04  1.0077937116500234e+04  9.9269884995472221e+03  9.7760480146247683e+03  9.6251142045012202e+03  9.4741859105495550e+03  9.3232622128729181e+03  9.1723423850432227e+03  9.0214258597814278e+03  8.8705122030297644e+03  8.7196010946307961e+03  8.5686923143658150e+03  8.4177857324966026e+03  8.2668813042523598e+03  8.1159790679437747e+03  7.9650791465937355e+03  7.8141817531688339e+03  7.6632871996947479e+03  7.5123959107574556e+03  7.3615084421476704e+03  7.2106255057151729e+03  7.0597480018779561e+03  6.9088770616864413e+03  6.7580141008542332e+03  6.6071608886360882e+03  6.4563196345576798e+03  6.3054930949527270e+03  6.1546846968764476e+03  6.0038986637446797e+03  5.8531400888613698e+03  5.7024147821101506e+03  5.5517286038574548e+03  5.4010835273598213e+03  5.2504736972161509e+03  5.0998050225621364e+03  4.9493217130805497e+03  4.7918367951339978e+03  3.3846138377544157e+03  3.2851326697728009e+03  3.2288819663413406e+03  3.1909511099818619e+03  3.1639836234616901e+03  3.1364248117276543e+03  3.1084769419342229e+03  3.0804259620679427e+03  3.0523076296032496e+03  3.0241487964907083e+03  2.9959626519285398e+03  2.9677573928223601e+03  2.9395382914195052e+03  2.9113089188497702e+03  2.8830717759677650e+03  2.8548286630577059e+03  2.8265809053066264e+03  2.7983294964457687e+03  2.7700751933140627e+03  2.7418185799022899e+03  2.7135601118036434e+03  2.6853001477401908e+03  2.6570389723581457e+03  2.6287768129964516e+03  2.6005138522134857e+03  2.5722502372741305e+03  2.5439860874227061e+03  2.5157214995185054e+03  2.4874565524436825e+03  2.4591913105791182e+03  2.4309258265646445e+03  2.4026601435042453e+03  2.3743942967369067e+03  2.3461283152649048e+03  2.3178622229100411e+03  2.2895960392525622e+03  2.2613297803955970e+03  2.2330634595888873e+03  2.2047970877386401e+03  2.1765306738249201e+03  2.1482642252437918e+03  2.1199977480880480e+03  2.0917312473777702e+03  2.0634647272498046e+03  2.0351981911135840e+03  2.0069316417793159e+03  1.9786650815634955e+03  1.9503985123757841e+03  1.9221319357905481e+03  1.8938653531057978e+03  1.8655987653917484e+03  1.8373321735308332e+03  1.8090655782506840e+03  1.7807989801513140e+03  1.7525323797275257e+03  1.7242657773873905e+03  1.6959991734674775e+03  1.6677325682454175e+03  1.6394659619502659e+03  1.6111993547710442e+03  1.5829327468638003e+03  1.5546661383574244e+03  1.5263995293584596e+03  1.4981329199550753e+03  1.4698663102203595e+03  1.4415997002150393e+03  1.4133330899897517e+03  1.3850664795869268e+03  1.3567998690423758e+03  1.3285332583866257e+03  1.3002666476460527e+03  1.2720000368438748e+03  1.2437334260010109e+03  1.2154668151368660e+03  1.1872002042700517e+03  1.1589335934190879e+03  1.1306669826030927e+03  1.1024003718424951e+03  1.0741337611598067e+03  1.0458671505804698e+03  1.0176005401338123e+03  9.8933392985415912e+02  9.6106731978213759e+02  9.3280070996623022e+02  9.0453410046462648e+02  8.7626749134747831e+02  8.4800088269962555e+02  8.1973427462393045e+02  7.9146766724535917e+02  7.6320106071600901e+02  7.3493445522133118e+02  7.0666785098784862e+02  6.7840124829280717e+02  6.5013464747629700e+02  6.2186804895660850e+02  5.9360145324980840e+02  5.6533486099497168e+02  5.3706827298703467e+02  5.0880169022009443e+02  4.8053511394529630e+02  4.5226854574945025e+02  4.2400198766371017e+02  3.9573544231684195e+02  3.6746891315625987e+02  3.3920240477491870e+02  3.1093592340850336e+02  2.8266947771694282e+02  2.5440308005247834e+02  2.2613674865504228e+02  1.9787051121720339e+02  1.6960441451992307e+02  1.4133851893054492e+02  1.1307309740066702e+02  8.4807248965832173e+01  5.6551537994107484e+01  2.8205951007953860e+01  7.9925960190289980e-01  1.2504373740797133e+04  1.2350274838280457e+04  1.2196222030572328e+04  1.2043735811568280e+04  1.1891785838344416e+04  1.1740152098313878e+04  1.1588712804350564e+04  1.1437404417068623e+04  1.1286188423729980e+04  1.1135040042584131e+04  1.0983942442916019e+04  1.0832883742692271e+04  1.0681855295747318e+04  1.0530850660348735e+04  1.0379864947062350e+04  1.0228894389871812e+04  1.0077936054591930e+04  9.9269876350000177e+03  9.7760473068998399e+03  9.6251136215891474e+03  9.4741854268497736e+03  9.3232618076393064e+03  9.1723420412185242e+03  9.0214255631026317e+03  8.8705119413237062e+03  8.7196008572433220e+03  8.5686920916830986e+03  8.4177855155271991e+03  8.2668810842447001e+03  8.1159788360174825e+03  7.9650788933645636e+03  7.8141814683468265e+03  7.6632868716334870e+03  7.5123955259287186e+03  7.3615079845109321e+03  7.2106249559446978e+03  7.0597473364033167e+03  6.9088762514973887e+03  6.7580131100259923e+03  6.6071596725657582e+03  6.4563181380146561e+03  6.3054912503624555e+03  6.1546824241511722e+03  6.0038958749553112e+03  5.8531367057470834e+03  5.7024108236288603e+03  5.5517241690271512e+03  5.4010806343030717e+03  5.2504703648672494e+03  5.0998805678172803e+03  4.9488462168763735e+03  4.7977948747083083e+03  4.6511915881009336e+03  4.5132719904816649e+03  4.4271272947275002e+03  3.1901428748701223e+03  3.1642197982470284e+03  3.1364281110333568e+03  3.1084912247493380e+03  3.0804323182419362e+03  3.0523119179838081e+03  3.0241516619035228e+03  2.9959646761000763e+03  2.9677588641042630e+03  2.9395393872587470e+03  2.9113097507771627e+03  2.8830724174922339e+03  2.8548291641903324e+03  2.8265813010302068e+03  2.7983298118109637e+03  2.7700754466266312e+03  2.7418187847765498e+03  2.7135602785208539e+03  2.6853002841683133e+03  2.6570390845878601e+03  2.6287769057895139e+03  2.6005139293244010e+03  2.5722503016847340e+03  2.5439861415157907e+03  2.5157215452081023e+03  2.4874565912740431e+03  2.4591913438007477e+03  2.4309258551933112e+03  2.4026601683671693e+03  2.3743943185092116e+03  2.3461283344985645e+03  2.3178622400570157e+03  2.2895960546833744e+03  2.2613297944143169e+03  2.2330634724452616e+03  2.2047970996379377e+03  2.1765306849359545e+03  2.1482642357054588e+03  2.1199977580146742e+03  2.0917312568634879e+03  2.0634647363721424e+03  2.0351981999364052e+03  2.0069316503552402e+03  1.9786650899358856e+03  1.9503985205803747e+03  1.9221319438567941e+03  1.8938653610579781e+03  1.8655987732498766e+03  1.8373321813114094e+03  1.8090655859673093e+03  1.7807989878152014e+03  1.7525323873479201e+03  1.7242657849719128e+03  1.6959991810224085e+03  1.6677325757759349e+03  1.6394659694606360e+03  1.6111993622647824e+03  1.5829327543437996e+03  1.5546661458260676e+03  1.5263995368177043e+03  1.4981329274065292e+03  1.4698663176653388e+03  1.4415997076546198e+03  1.4133330974248067e+03  1.3850664870181615e+03  1.3567998764703532e+03  1.3285332658117870e+03  1.3002666550687341e+03  1.2720000442643195e+03  1.2437334334193793e+03  1.2154668225532398e+03  1.1872002116844394e+03  1.1589336008314226e+03  1.1306669900132315e+03  1.1024003792502124e+03  1.0741337685647848e+03  1.0458671579822897e+03  1.0176005475319340e+03  9.8933393724790221e+02  9.6106732717065574e+02  9.3280071734847502e+02  9.0453410783930883e+02  8.7626749871301433e+02  8.4800089005407335e+02  8.1973428196490772e+02  7.9146767456994144e+02  7.6320106802060468e+02  7.3493446250151635e+02  7.0666785823816338e+02  6.7840125550648747e+02  6.5013465464493163e+02  6.2186805606968585e+02  5.9360146029411260e+02  5.6533486795377178e+02  5.3706827983897085e+02  5.0880169693763133e+02  4.8053512049252691e+02  4.5226855207892157e+02  4.2400199371172948e+02  3.9573544799637159e+02  3.6746891834587154e+02  3.3920240930109827e+02  3.1093592701648095e+02  2.8266948001969922e+02  2.5440308044688854e+02  2.2613674610186260e+02  1.9787050432592056e+02  1.6960439735265638e+02  1.4133850851311092e+02  1.1307288684551453e+02  8.4808461688871844e+01  5.6540124276047919e+01  2.8309264635174394e+01  -4.3494475678189259e-02  1.2500704449306755e+04  1.2348774255229497e+04  1.2195842784392269e+04  1.2043534848035186e+04  1.1891673944480075e+04  1.1740080912714082e+04  1.1588664629482326e+04  1.1437370207040438e+04  1.1286163301920100e+04  1.1135021126248230e+04  1.0983927925788503e+04  1.0832872436115771e+04  1.0681846386389208e+04  1.0530843573546979e+04  1.0379859265850093e+04  1.0228889804883764e+04  1.0077932331912802e+04  9.9269845948511484e+03  9.7760448090983664e+03  9.6251115553658128e+03  9.4741837035448261e+03  9.3232603553412609e+03  9.1723408007386315e+03  9.0214244848803719e+03  8.8705109829861067e+03  8.7195999816225431e+03  8.5686912651494658e+03  8.4177847065286351e+03  8.2668802619646649e+03  8.1159779690752985e+03  7.9650779484867671e+03  7.8141804089369125e+03  7.6632856561600393e+03  7.5123941060388070e+03  7.3615063027560627e+03  7.2106229429808782e+03  7.0597449074973820e+03  6.9088733021469707e+03  6.7580095105046466e+03  6.6071552613004687e+03  6.4563127140518418e+03  6.3054845661960744e+03  6.1546741828905269e+03  6.0038857429082082e+03  5.8531243741896260e+03  5.7023961892748557e+03  5.5517079806342654e+03  5.4010659008757548e+03  5.2504731879790288e+03  5.0999059624920228e+03  4.9493179971745994e+03  4.7994807007929248e+03  4.6528414411848371e+03  4.5058206222930949e+03  3.2217403154662215e+03  3.1923478127972362e+03  3.1643159662470639e+03  3.1365201150863827e+03  3.1085284499170239e+03  3.0804551705421413e+03  3.0523263922551873e+03  3.0241615046790216e+03  2.9959716267038361e+03  2.9677639223522474e+03  2.9395431534032364e+03  2.9113126064046824e+03  2.8830746147176023e+03  2.8548308750830224e+03  2.8265826462369660e+03  2.7983308778991195e+03  2.7700762969624011e+03  2.7418194665545961e+03  2.7135608274255846e+03  2.6853007275367804e+03  2.6570394436010274e+03  2.6287771970195317e+03  2.6005141658464177e+03  2.5722504938887537e+03  2.5439862977083399e+03  2.5157216720641850e+03  2.4874566941808366e+03  2.4591914271218870e+03  2.4309259224741149e+03  2.4026602224954295e+03  2.3743943618421167e+03  2.3461283689635893e+03  2.3178622672325564e+03  2.2895960758635410e+03  2.2613298106612010e+03  2.2330634846312578e+03  2.2047971084801193e+03  2.1765306910240615e+03  2.1482642395247362e+03  2.1199977599645413e+03  2.0917312572728242e+03  2.0634647355118145e+03  2.0351981980295518e+03  2.0069316475857124e+03  1.9786650864551859e+03  1.9503985165133661e+03  1.9221319393063904e+03  1.8938653561090127e+03  1.8655987679722807e+03  1.8373321757628321e+03  1.8090655801952778e+03  1.7807989818588962e+03  1.7525323812396430e+03  1.7242657787382907e+03  1.6959991746853909e+03  1.6677325693536131e+03  1.6394659629679174e+03  1.6111993557139490e+03  1.5829327477449644e+03  1.5546661391875527e+03  1.5263995301463524e+03  1.4981329207079575e+03  1.4698663109441486e+03  1.4415997009145699e+03  1.4133330906689519e+03  1.3850664802489671e+03  1.3567998696897869e+03  1.3285332590213923e+03  1.3002666482696882e+03  1.2720000374574756e+03  1.2437334266053012e+03  1.2154668157322201e+03  1.1872002048565114e+03  1.1589335939963619e+03  1.1306669831705444e+03  1.1024003723991209e+03  1.0741337617041950e+03  1.0458671511107477e+03  1.0176005406475729e+03  9.8933393034836774e+02  9.6106732025301585e+02  9.3280071040910241e+02  9.0453410087373868e+02  8.7626749171576284e+02  8.4800088301841436e+02  8.1973427488259279e+02  7.9146766743084834e+02  7.6320106081229574e+02  7.3493445520867976e+02  7.0666785084189905e+02  6.7840124798338979e+02  6.5013464696589892e+02  6.2186804819835641e+02  5.9360145218478715e+02  5.6533485954861419e+02  5.3706827106417882e+02  5.0880168769810996e+02  4.8053511066434805e+02  4.5226854149842683e+02  4.2400198215944965e+02  3.9573543517271605e+02  3.6746890383341156e+02  3.3920239250433002e+02  3.1093590706237217e+02  2.8266945558801967e+02  2.5440304946298102e+02  2.2613670519901746e+02  1.9787044748076903e+02  1.6960431552253814e+02  1.4133836852396129e+02  1.1307274709511351e+02  8.4807457144075912e+01  5.6544055777114949e+01  2.8285121436848947e+01  5.6319887885905896e-03  1.2498532963289807e+04  1.2347346070372831e+04  1.2195233783156664e+04  1.2043226748500323e+04  1.1891491620774783e+04  1.1739963634177682e+04  1.1588584342562841e+04  1.1437312835475515e+04  1.1286120986374259e+04  1.1134989166555308e+04  1.0983903344544744e+04  1.0832853259544701e+04  1.0681831256372976e+04  1.0530831526429074e+04  1.0379849600108510e+04  1.0228881998678813e+04  1.0077925989857880e+04  9.9269794125593198e+03  9.7760405488994948e+03  9.6251080292463012e+03  9.4741807608750787e+03  9.3232578738456214e+03  9.1723386797006551e+03  9.0214226399095842e+03  8.8705093418834131e+03  8.7195984810166210e+03  8.5686898476642546e+03  8.4177833182982449e+03  8.2668788503471551e+03  8.1159764804364258e+03  7.9650763259326268e+03  7.8141785898716707e+03  7.6632835695324839e+03  7.5123916691184586e+03  7.3615034172454280e+03  7.2106194902250490e+03  7.0597407424983603e+03  6.9088682460398368e+03  6.7580033411411150e+03  6.6071477017054813e+03  6.4563034190101962e+03  6.3054731086911643e+03  6.1546600460599266e+03  6.0038683340198968e+03  5.8531031045529235e+03  5.7023707444640086e+03  5.5516791309167120e+03  5.4010381150038638e+03  5.2504603129474208e+03  5.0999653200511329e+03  4.9496887123948172e+03  4.8002853054267562e+03  4.6527072164585898e+03  4.5030707310459693e+03  3.2209767874804206e+03  3.1930178785428320e+03  3.1646293244808339e+03  3.1366304246418049e+03  3.1085905428923479e+03  3.0804919455802005e+03  3.0523503733472285e+03  3.0241779123149754e+03  2.9959832834856256e+03  2.9677724369035573e+03  2.9395495101713009e+03  2.9113174358021647e+03  2.8830783359589545e+03  2.8548337756182982e+03  2.8265849283620382e+03  2.7983326872023608e+03  2.7700777402762246e+03  2.7418206236107239e+03  2.7135617586140747e+03  2.6853014791882410e+03  2.6570400516566051e+03  2.6287776896287437e+03  2.6005145652379292e+03  2.5722508177390969e+03  2.5439865601579877e+03  2.5157218844819790e+03  2.4874568657460804e+03  2.4591915652724679e+03  2.4309260332548643e+03  2.4026603108312720e+03  2.3743944317538908e+03  2.3461284237396771e+03  2.3178623095661733e+03  2.2895961079630747e+03  2.2613298343392726e+03  2.2330635013768601e+03  2.2047971195172236e+03  2.1765306973593465e+03  2.1482642419865442e+03  2.1199977592347323e+03  2.0917312539128520e+03  2.0634647299841104e+03  2.0351981907150689e+03  2.0069316387983356e+03  1.9786650764535784e+03  1.9503985055107066e+03  1.9221319274783914e+03  1.8938653436005129e+03  1.8655987549026784e+03  1.8373321622305566e+03  1.8090655662814754e+03  1.7807989676304639e+03  1.7525323667517323e+03  1.7242657640363652e+03  1.6959991598069280e+03  1.6677325543295005e+03  1.6394659478236101e+03  1.6111993404704147e+03  1.5829327324194717e+03  1.5546661237943108e+03  1.5263995146970442e+03  1.4981329052121741e+03  1.4698662954097479e+03  1.4415996853479694e+03  1.4133330750753680e+03  1.3850664646326088e+03  1.3567998540540157e+03  1.3285332433688429e+03  1.3002666326023711e+03  1.2720000217768504e+03  1.2437334109123299e+03  1.2154668000274039e+03  1.1872001891399093e+03  1.1589335782675910e+03  1.1306669674287668e+03  1.1024003566430101e+03  1.0741337459318856e+03  1.0458671353197640e+03  1.0176005248347324e+03  9.8933391450965871e+02  9.6106730438343948e+02  9.3280069450247822e+02  9.0453408492245740e+02  8.7626747571048077e+02  8.4800086694767185e+02  8.1973425873233771e+02  7.9146765118384076e+02  7.6320104444735659e+02  7.3493443869974112e+02  7.0666783415679595e+02  6.7840123108230466e+02  6.5013462979934707e+02  6.2186803070454255e+02  5.9360143428609979e+02  5.6533484114690873e+02  5.3706825203433846e+02  5.0880166787911043e+02  4.8053508984663273e+02  4.5226851940572431e+02  4.2400195842201947e+02  3.9573540928706535e+02  3.6746887510007474e+02  3.3920235992901456e+02  3.1093586919393107e+02  2.8266941024301354e+02  2.5440299324106351e+02  2.2613663256970716e+02  1.9787034913960008e+02  1.6960417398861816e+02  1.4133815603341662e+02  1.1307236827099807e+02  8.4806939091202054e+01  5.6542509718013520e+01  2.8277085991345654e+01  -4.2735393688565548e-04  1.2497019796642988e+04  1.2346144882606426e+04  1.2194550392334735e+04  1.2042842073521550e+04  1.1891254366974390e+04  1.1739806973963448e+04  1.1588475519072041e+04  1.1437234328808196e+04  1.1286062716954519e+04  1.1134944966008841e+04  1.0983869244620328e+04  1.0832826599501597e+04  1.0681810189844691e+04  1.0530814734823429e+04  1.0379836118688776e+04  1.0228871106967390e+04  1.0077917140244112e+04  9.9269721823989021e+03  9.7760346075067100e+03  9.6251031145857069e+03  9.4741766627218094e+03  9.3232544213488600e+03  9.1723357319956231e+03  9.0214200788667640e+03  8.8705070663658771e+03  8.7195964021983309e+03  8.5686878850803241e+03  8.4177813963744793e+03  8.2668768952036971e+03  8.1159744167870185e+03  7.9650740739112734e+03  7.8141760616145757e+03  7.6632806653253838e+03  7.5123882728869730e+03  7.3614993911175725e+03  7.2106146678292735e+03  7.0597349205796781e+03  6.9088611738926520e+03  6.7579947073080039e+03  6.6071371174795568e+03  6.4562903987687596e+03  6.3054570486400926e+03  6.1546402072663486e+03  6.0038438469302419e+03  5.8530730417530631e+03  5.7023343882507888e+03  5.5516367864160720e+03  5.4009933364179660e+03  5.2504262649246630e+03  5.0999886342122654e+03  4.9498626798557234e+03  4.8004850152175641e+03  4.6522077774474310e+03  4.5012289313763977e+03  3.2203488799514253e+03  3.1932659344297517e+03  3.1648846028755438e+03  3.1367644812095623e+03  3.1086675812022481e+03  3.0805403615308373e+03  3.0523825168990925e+03  3.0242002078496157e+03  2.9959992567981471e+03  2.9677841768693825e+03  2.9395583167947175e+03  2.9113241525870690e+03  2.8830835289574884e+03  2.8548378356949011e+03  2.8265881321117304e+03  2.7983352345753256e+03  2.7700797785350223e+03  2.7418222629971683e+03  2.7135630828406411e+03  2.6853025526161659e+03  2.6570409243044569e+03  2.6287784007310352e+03  2.6005151458161777e+03  2.5722512924883326e+03  2.5439869488508166e+03  2.5157222030272810e+03  2.4874571269968051e+03  2.4591917796485995e+03  2.4309262092284471e+03  2.4026604553072279e+03  2.3743945503712434e+03  2.3461285211113500e+03  2.3178623894709544e+03  2.2895961735000228e+03  2.2613298880524153e+03  2.2330635453562495e+03  2.2047971554810701e+03  2.1765307267209359e+03  2.1482642659088715e+03  2.1199977786751770e+03  2.0917312696597737e+03  2.0634647426868482e+03  2.0351982009085680e+03  2.0069316469233738e+03  1.9786650828733927e+03  1.9503985105246697e+03  1.9221319313332594e+03  1.8938653464996917e+03  1.8655987570138457e+03  1.8373321636919450e+03  1.8090655672070448e+03  1.7807989681141657e+03  1.7525323668710189e+03  1.7242657638550863e+03  1.6959991593777165e+03  1.6677325536957371e+03  1.6394659470210415e+03  1.6111993395284910e+03  1.5829327313624431e+03  1.5546661226421352e+03  1.5263995134661282e+03  1.4981329039159882e+03  1.4698662940593281e+03  1.4415996839523280e+03  1.4133330736418302e+03  1.3850664631670886e+03  1.3567998525612315e+03  1.3285332418524979e+03  1.3002666310652887e+03  1.2720000202210804e+03  1.2437334093392235e+03  1.2154667984376672e+03  1.1872001875336248e+03  1.1589335766442239e+03  1.1306669657871412e+03  1.1024003549812651e+03  1.0741337442474041e+03  1.0458671336090722e+03  1.0176005230933647e+03  9.8933391273198663e+02  9.6106730256245169e+02  9.3280069262950451e+02  9.0453408298682507e+02  8.7626747369908628e+02  8.4800086484444739e+02  8.1973425651758578e+02  7.9146764883340109e+02  7.6320104193155851e+02  7.3493443598208091e+02  7.0666783119225181e+02  6.7840122781517869e+02  6.5013462616046593e+02  6.2186802660759997e+02  5.9360142962281145e+02  5.6533483578051221e+02  5.3706824579074623e+02  5.0880166053467298e+02  4.8053508111091895e+02  4.5226850889682532e+02  4.2400194