<?xml version="1.0"?>
<VTKFile type="UnstructuredGrid"  version="0.1"  >
<UnstructuredGrid>
<Piece  NumberOfPoints="21400" NumberOfCells="42336">
<Points>
<DataArray  type="Float64"  NumberOfComponents="3"  format="ascii">0 0 0  0.004583333333333333 0 0  0.009166666666666667 0 0  0.01375 0 0  0.01833333333333333 0 0  0.02291666666666667 0 0  0.0275 0 0  0.03208333333333334 0 0  0.03666666666666667 0 0  0.04125 0 0  0.04583333333333334 0 0  0.05041666666666667 0 0  0.055 0 0  0.05958333333333334 0 0  0.06416666666666668 0 0  0.06875000000000001 0 0  0.07333333333333333 0 0  0.07791666666666666 0 0  0.08249999999999999 0 0  0.08708333333333333 0 0  0.09166666666666667 0 0  0.09625000000000002 0 0  0.1008333333333333 0 0  0.1054166666666667 0 0  0.11 0 0  0.1145833333333333 0 0  0.1191666666666667 0 0  0.12375 0 0  0.1283333333333334 0 0  0.1329166666666667 0 0  0.1375 0 0  0.1420833333333333 0 0  0.1466666666666667 0 0  0.15125 0 0  0.1558333333333333 0 0  0.1604166666666667 0 0  0.165 0 0  0.1695833333333333 0 0  0.1741666666666667 0 0  0.17875 0 0  0.1833333333333333 0 0  0.1879166666666667 0 0  0.1925 0 0  0.1970833333333333 0 0  0.2016666666666667 0 0  0.20625 0 0  0.2108333333333333 0 0  0.2154166666666666 0 0  0.22 0 0  0.2245833333333334 0 0  0.2291666666666667 0 0  0.23375 0 0  0.2383333333333333 0 0  0.2429166666666667 0 0  0.2475 0 0  0.2520833333333333 0 0  0.2566666666666667 0 0  0.26125 0 0  0.2658333333333334 0 0  0.2704166666666666 0 0  0.275 0 0  0.2795833333333334 0 0  0.2841666666666667 0 0  0.28875 0 0  0.2933333333333333 0 0  0.2979166666666667 0 0  0.3025 0 0  0.3070833333333334 0 0  0.3116666666666666 0 0  0.31625 0 0  0.3208333333333333 0 0  0.3254166666666667 0 0  0.33 0 0  0.3345833333333333 0 0  0.3391666666666667 0 0  0.34375 0 0  0.3483333333333333 0 0  0.3529166666666667 0 0  0.3575 0 0  0.3620833333333333 0 0  0.3666666666666667 0 0  0.37125 0 0  0.3758333333333334 0 0  0.3804166666666667 0 0  0.3850000000000001 0 0  0.3895833333333333 0 0  0.3941666666666667 0 0  0.39875 0 0  0.4033333333333334 0 0  0.4079166666666666 0 0  0.4125 0 0  0.4170833333333334 0 0  0.4216666666666667 0 0  0.42625 0 0  0.4308333333333333 0 0  0.4354166666666667 0 0  0.44 0 0  0.4445833333333333 0 0  0.4491666666666667 0 0  0.45375 0 0  0.4583333333333333 0 0  0.4629166666666666 0 0  0.4675 0 0  0.4720833333333334 0 0  0.4766666666666667 0 0  0.4812500000000001 0 0  0.4858333333333333 0 0  0.4904166666666667 0 0  0.495 0 0  0.4995833333333334 0 0  0.5041666666666667 0 0  0.50875 0 0  0.5133333333333334 0 0  0.5179166666666667 0 0  0.5225 0 0  0.5270833333333333 0 0  0.5316666666666667 0 0  0.53625 0 0  0.5408333333333333 0 0  0.5454166666666667 0 0  0.55 0 0  0.5545833333333333 0 0  0.5591666666666667 0 0  0.5637500000000001 0 0  0.5683333333333334 0 0  0.5729166666666666 0 0  0.5775 0 0  0.5820833333333334 0 0  0.5866666666666667 0 0  0.5912499999999999 0 0  0.5958333333333334 0 0  0.6004166666666667 0 0  0.605 0 0  0.6095833333333334 0 0  0.6141666666666667 0 0  0.61875 0 0  0.6233333333333333 0 0  0.6279166666666667 0 0  0.6325000000000001 0 0  0.6370833333333333 0 0  0.6416666666666666 0 0  0.64625 0 0  0.6508333333333334 0 0  0.6554166666666666 0 0  0.6599999999999999 0 0  0.6645833333333334 0 0  0.6691666666666667 0 0  0.67375 0 0  0.6783333333333333 0 0  0.6829166666666667 0 0  0.6875 0 0  0.6920833333333333 0 0  0.6966666666666667 0 0  0.70125 0 0  0.7058333333333333 0 0  0.7104166666666667 0 0  0.7150000000000001 0 0  0.7195833333333334 0 0  0.7241666666666666 0 0  0.72875 0 0  0.7333333333333334 0 0  0.7379166666666667 0 0  0.7425 0 0  0.7470833333333333 0 0  0.7516666666666667 0 0  0.75625 0 0  0.7608333333333334 0 0  0.7654166666666666 0 0  0.7700000000000001 0 0  0 0.002380952380952381 0  0.004583333333333333 0.002380952380952381 0  0.009166666666666667 0.002380952380952381 0  0.01375 0.002380952380952381 0  0.01833333333333333 0.002380952380952381 0  0.02291666666666667 0.002380952380952381 0  0.0275 0.002380952380952381 0  0.03208333333333334 0.002380952380952381 0  0.03666666666666667 0.002380952380952381 0  0.04125 0.002380952380952381 0  0.04583333333333334 0.002380952380952381 0  0.05041666666666667 0.002380952380952381 0  0.055 0.002380952380952381 0  0.05958333333333334 0.002380952380952381 0  0.06416666666666668 0.002380952380952381 0  0.06875000000000001 0.002380952380952381 0  0.07333333333333333 0.002380952380952381 0  0.07791666666666666 0.002380952380952381 0  0.08249999999999999 0.002380952380952381 0  0.08708333333333333 0.002380952380952381 0  0.09166666666666667 0.002380952380952381 0  0.09625000000000002 0.002380952380952381 0  0.1008333333333333 0.002380952380952381 0  0.1054166666666667 0.002380952380952381 0  0.11 0.002380952380952381 0  0.1145833333333333 0.002380952380952381 0  0.1191666666666667 0.002380952380952381 0  0.12375 0.002380952380952381 0  0.1283333333333334 0.002380952380952381 0  0.1329166666666667 0.002380952380952381 0  0.1375 0.002380952380952381 0  0.1420833333333333 0.002380952380952381 0  0.1466666666666667 0.002380952380952381 0  0.15125 0.002380952380952381 0  0.1558333333333333 0.002380952380952381 0  0.1604166666666667 0.002380952380952381 0  0.165 0.002380952380952381 0  0.1695833333333333 0.002380952380952381 0  0.1741666666666667 0.002380952380952381 0  0.17875 0.002380952380952381 0  0.1833333333333333 0.002380952380952381 0  0.1879166666666667 0.002380952380952381 0  0.1925 0.002380952380952381 0  0.1970833333333333 0.002380952380952381 0  0.2016666666666667 0.002380952380952381 0  0.20625 0.002380952380952381 0  0.2108333333333333 0.002380952380952381 0  0.2154166666666666 0.002380952380952381 0  0.22 0.002380952380952381 0  0.2245833333333334 0.002380952380952381 0  0.2291666666666667 0.002380952380952381 0  0.23375 0.002380952380952381 0  0.2383333333333333 0.002380952380952381 0  0.2429166666666667 0.002380952380952381 0  0.2475 0.002380952380952381 0  0.2520833333333333 0.002380952380952381 0  0.2566666666666667 0.002380952380952381 0  0.26125 0.002380952380952381 0  0.2658333333333334 0.002380952380952381 0  0.2704166666666666 0.002380952380952381 0  0.275 0.002380952380952381 0  0.2795833333333334 0.002380952380952381 0  0.2841666666666667 0.002380952380952381 0  0.28875 0.002380952380952381 0  0.2933333333333333 0.002380952380952381 0  0.2979166666666667 0.002380952380952381 0  0.3025 0.002380952380952381 0  0.3070833333333334 0.002380952380952381 0  0.3116666666666666 0.002380952380952381 0  0.31625 0.002380952380952381 0  0.3208333333333333 0.002380952380952381 0  0.3254166666666667 0.002380952380952381 0  0.33 0.002380952380952381 0  0.3345833333333333 0.002380952380952381 0  0.3391666666666667 0.002380952380952381 0  0.34375 0.002380952380952381 0  0.3483333333333333 0.002380952380952381 0  0.3529166666666667 0.002380952380952381 0  0.3575 0.002380952380952381 0  0.3620833333333333 0.002380952380952381 0  0.3666666666666667 0.002380952380952381 0  0.37125 0.002380952380952381 0  0.3758333333333334 0.002380952380952381 0  0.3804166666666667 0.002380952380952381 0  0.3850000000000001 0.002380952380952381 0  0.3895833333333333 0.002380952380952381 0  0.3941666666666667 0.002380952380952381 0  0.39875 0.002380952380952381 0  0.4033333333333334 0.002380952380952381 0  0.4079166666666666 0.002380952380952381 0  0.4125 0.002380952380952381 0  0.4170833333333334 0.002380952380952381 0  0.4216666666666667 0.002380952380952381 0  0.42625 0.002380952380952381 0  0.4308333333333333 0.002380952380952381 0  0.4354166666666667 0.002380952380952381 0  0.44 0.002380952380952381 0  0.4445833333333333 0.002380952380952381 0  0.4491666666666667 0.002380952380952381 0  0.45375 0.002380952380952381 0  0.4583333333333333 0.002380952380952381 0  0.4629166666666666 0.002380952380952381 0  0.4675 0.002380952380952381 0  0.4720833333333334 0.002380952380952381 0  0.4766666666666667 0.002380952380952381 0  0.4812500000000001 0.002380952380952381 0  0.4858333333333333 0.002380952380952381 0  0.4904166666666667 0.002380952380952381 0  0.495 0.002380952380952381 0  0.4995833333333334 0.002380952380952381 0  0.5041666666666667 0.002380952380952381 0  0.50875 0.002380952380952381 0  0.5133333333333334 0.002380952380952381 0  0.5179166666666667 0.002380952380952381 0  0.5225 0.002380952380952381 0  0.5270833333333333 0.002380952380952381 0  0.5316666666666667 0.002380952380952381 0  0.53625 0.002380952380952381 0  0.5408333333333333 0.002380952380952381 0  0.5454166666666667 0.002380952380952381 0  0.55 0.002380952380952381 0  0.5545833333333333 0.002380952380952381 0  0.5591666666666667 0.002380952380952381 0  0.5637500000000001 0.002380952380952381 0  0.5683333333333334 0.002380952380952381 0  0.5729166666666666 0.002380952380952381 0  0.5775 0.002380952380952381 0  0.5820833333333334 0.002380952380952381 0  0.5866666666666667 0.002380952380952381 0  0.5912499999999999 0.002380952380952381 0  0.5958333333333334 0.002380952380952381 0  0.6004166666666667 0.002380952380952381 0  0.605 0.002380952380952381 0  0.6095833333333334 0.002380952380952381 0  0.6141666666666667 0.002380952380952381 0  0.61875 0.002380952380952381 0  0.6233333333333333 0.002380952380952381 0  0.6279166666666667 0.002380952380952381 0  0.6325000000000001 0.002380952380952381 0  0.6370833333333333 0.002380952380952381 0  0.6416666666666666 0.002380952380952381 0  0.64625 0.002380952380952381 0  0.6508333333333334 0.002380952380952381 0  0.6554166666666666 0.002380952380952381 0  0.6599999999999999 0.002380952380952381 0  0.6645833333333334 0.002380952380952381 0  0.6691666666666667 0.002380952380952381 0  0.67375 0.002380952380952381 0  0.6783333333333333 0.002380952380952381 0  0.6829166666666667 0.002380952380952381 0  0.6875 0.002380952380952381 0  0.6920833333333333 0.002380952380952381 0  0.6966666666666667 0.002380952380952381 0  0.70125 0.002380952380952381 0  0.7058333333333333 0.002380952380952381 0  0.7104166666666667 0.002380952380952381 0  0.7150000000000001 0.002380952380952381 
[...]
<PointData  Scalars="pressure"> 
<DataArray  type="Float64"  Name="pressure"  format="ascii">1.6212033666256717e+04  1.6049602824906922e+04  1.5895783103357711e+04  1.5743164982577735e+04  1.5591197121329178e+04  1.5439550014858956e+04  1.5288103984505518e+04  1.5136791384510232e+04  1.4985572617885151e+04  1.4834422280755864e+04  1.4683323220597711e+04  1.4532263366248353e+04  1.4381233953140092e+04  1.4230228459587672e+04  1.4079241937803423e+04  1.3928270575425069e+04  1.3777311398086016e+04  1.3626362061680977e+04  1.3475420703613872e+04  1.3324485833978246e+04  1.3173556254474655e+04  1.3022630997035607e+04  1.2871709276736898e+04  1.2720790455251421e+04  1.2569874012205955e+04  1.2418959522545039e+04  1.2268046638516589e+04  1.2117135075251254e+04  1.1966224599162286e+04  1.1815315018576450e+04  1.1664406176142111e+04  1.1513497942661410e+04  1.1362590212069565e+04  1.1211682897342425e+04  1.1060775927158451e+04  1.0909869243176252e+04  1.0758962797816448e+04  1.0608056552458675e+04  1.0457150475981945e+04  1.0306244543591032e+04  1.0155338735883046e+04  1.0004433038118063e+04  9.8535274396656623e+03  9.7026219336061768e+03  9.5517165164713333e+03  9.4008111881145251e+03  9.2499059517055957e+03  9.0990008138501271e+03  8.9480957848377220e+03  8.7971908790287562e+03  8.6462861153945632e+03  8.4953815182316575e+03  8.3444771180777698e+03  8.1935729528651391e+03  8.0426690693562214e+03  7.8917655249184008e+03  7.7408623897083899e+03  7.5899597493543897e+03  7.4390577082456475e+03  7.2881563935663444e+03  7.1372559602448537e+03  6.9863565970333484e+03  6.8354585339885634e+03  6.6845620516971248e+03  6.5336674926828346e+03  6.3827752755561805e+03  6.2318859126273546e+03  6.0810000319149158e+03  5.9301184047563893e+03  5.7792419805783220e+03  5.6283719308169193e+03  5.4775097044743061e+03  5.3266570982510784e+03  5.1758163443084732e+03  5.0249902176556579e+03  4.8741821607636639e+03  4.7233964097821427e+03  4.5726380685435988e+03  4.4219129556489352e+03  4.2712269386967246e+03  4.1205819969624199e+03  3.9699722800770155e+03  3.8193037014374049e+03  3.6688204741955028e+03  3.5113356308338184e+03  2.4518155533343820e+03  2.3523344235026325e+03  2.2960837400667078e+03  2.2581528956915727e+03  2.2311854159129998e+03  2.2036266098076176e+03  2.1756787447226748e+03  2.1476277687460306e+03  2.1195094394938255e+03  2.0913506090325645e+03  2.0631644666580696e+03  2.0349592093568376e+03  2.0067401094431298e+03  1.9785107381020434e+03  1.9502735962338634e+03  1.9220304841605175e+03  1.8937827271001813e+03  1.8655313188098166e+03  1.8372770161496021e+03  1.8090204031278820e+03  1.7807619353523792e+03  1.7525019715572087e+03  1.7242407963985765e+03  1.6959786372237570e+03  1.6677156765980892e+03  1.6394520617923249e+03  1.6111879120557596e+03  1.5829233242519690e+03  1.5546583772668532e+03  1.5263931354846354e+03  1.4981276515482173e+03  1.4698619685644942e+03  1.4415961218753118e+03  1.4133301404858607e+03  1.3850640482210192e+03  1.3567978646643940e+03  1.3285316059228749e+03  1.3002652852505098e+03  1.2719989135585167e+03  1.2437324998328700e+03  1.2154660514766510e+03  1.1871995745910485e+03  1.1589330742062320e+03  1.1306665544712080e+03  1.1024000188100915e+03  1.0741334700508535e+03  1.0458669105315066e+03  1.0176003421877846e+03  9.8933376662568082e+02  9.6106718518158925e+02  9.3280059897232798e+02  9.0453400893694311e+02  8.7626741587187917e+02  8.4800082046084208e+02  8.1973422330049630e+02  7.9146762492298762e+02  7.6320102581617016e+02  7.3493442644235950e+02  7.0666782725638348e+02  6.7840122872375196e+02  6.5013463133980474e+02  6.2186803565085779e+02  5.9360144227855437e+02  5.6533485194903835e+02  5.3706826552905216e+02  5.0880168407191701e+02  4.8053510887762872e+02  4.5226854157329444e+02  4.2400198422331783e+02  3.9573543948390454e+02  3.6746891082512417e+02  3.3920240285864583e+02  3.1093592183562680e+02  2.8266947642880297e+02  2.5440307900103457e+02  2.2613674780108158e+02  1.9787051052887782e+02  1.6960441397156183e+02  1.4133851850169697e+02  1.1307309707533767e+02  8.4807248731889956e+01  5.6551537842802460e+01  2.8205950933869666e+01  7.9925959988174988e-01  1.6203751102689830e+04  1.6049652195333760e+04  1.5895599370947219e+04  1.5743113122768971e+04  1.5591163106778275e+04  1.5439529308791858e+04  1.5288089939520269e+04  1.5136781456766434e+04  1.4985565344228178e+04  1.4834416815704793e+04  1.4683319034978593e+04  1.4532260113255341e+04  1.4381231396097523e+04  1.4230226431680017e+04  1.4079240318277301e+04  1.3928269274922324e+04  1.3777310349259058e+04  1.3626361212991518e+04  1.3475420015117723e+04  1.3324485274387742e+04  1.3173555799065694e+04  1.3022630626126842e+04  1.2871708974565263e+04  1.2720790209127761e+04  1.2569873811872312e+04  1.2418959359679555e+04  1.2268046506348079e+04  1.2117134968256552e+04  1.1966224512826584e+04  1.1815314949202299e+04  1.1664406120696305e+04  1.1513497898651598e+04  1.1362590177444366e+04  1.1211682870410230e+04  1.1060775906521189e+04  1.0909869227675070e+04  1.0758962786487093e+04  1.0608056544494499e+04  1.0457150470703189e+04  1.0306244540418998e+04  1.0155338734318222e+04  1.0004433037721270e+04  9.8535274400415328e+03  9.7026219343882876e+03  9.5517165173084704e+03  9.4008111886574916e+03  9.2499059515941281e+03  9.0990008126993707e+03  8.9480957822237560e+03  8.7971908744726534e+03  8.6462861083442931e+03  8.4953815080412060e+03  8.3444771039826064e+03  8.1935729339530571e+03  8.0426690445323720e+03  7.8917654928630909e+03  7.7408623488258463e+03  7.5899596977103038e+03  7.4390576434907080e+03  7.2881563128423068e+03  7.1372558600687098e+03  6.9863564731539245e+03  6.8354583812082874e+03  6.6845618636495392e+03  6.5336672615535836e+03  6.3827749917314777e+03  6.2318855642491881e+03  6.0809996043159517e+03  5.9301178797404518e+03  5.7792413355044773e+03  5.6283711374399927e+03  5.4775087274993657e+03  5.3266558935937901e+03  5.1758148571651654e+03  5.0249883808031946e+03  4.8741798944034381e+03  4.7233936262228290e+03  4.5726346897196690e+03  4.4219090006784063e+03  4.2712225067285808e+03  4.1205791062251865e+03  3.9699689495917301e+03  3.8193792481386104e+03  3.6683449793475352e+03  3.5172937087514474e+03  3.3706904838270216e+03  3.2327709391657841e+03  3.1466262740238294e+03  2.2573446610115225e+03  2.2314215907628218e+03  2.2036299092243507e+03  2.1756930276249559e+03  2.1476341249932634e+03  2.1195137279348824e+03  2.0913534744953681e+03  2.0631664908708685e+03  2.0349606806727872e+03  2.0067412053104556e+03  1.9785115700525955e+03  1.9502742377774248e+03  1.9220309853088804e+03  1.8937831228367254e+03  1.8655316341856862e+03  1.8372772694709497e+03  1.8090206080093544e+03  1.7807621020755046e+03  1.7525021079901667e+03  1.7242409086322298e+03  1.6959787300200064e+03  1.6677157537115606e+03  1.6394521262049470e+03  1.6111879661504011e+03  1.5829233699427202e+03  1.5546584160980074e+03  1.5263931687067270e+03  1.4981276801770318e+03  1.4698619934272579e+03  1.4415961436471421e+03  1.4133301597187137e+03  1.3850640653668252e+03  1.3567978800936316e+03  1.3285316199395563e+03  1.3002652981043041e+03  1.2719989254545987e+03  1.2437325109399310e+03  1.2154660619334393e+03  1.1871995845117078e+03  1.1589330836846721e+03  1.1306665635846837e+03  1.1024000276221354e+03  1.0741334786136811e+03  1.0458669188879869e+03  1.0176003503730551e+03  9.8933377466846764e+02  9.6106719310528524e+02  9.3280060679586722e+02  9.0453401667551032e+02  8.7626742353747181e+02  8.4800082806271519e+02  8.1973423084550075e+02  7.9146763241581209e+02  7.6320103325949935e+02  7.3493443383694512e+02  7.0666783460103261e+02  6.7840123601522009e+02  6.5013463857258228e+02  6.2186804281682521e+02  5.9360144936646884e+02  5.6533485894379510e+02  5.3706827241063320e+02  5.0880169081389249e+02  4.8053511544500282e+02  4.5226854791936557e+02  4.2400199028501225e+02  3.9573544517469475e+02  3.6746891602400166e+02  3.3920240739244218e+02  3.1093592544985626e+02  2.8266947873667942e+02  2.5440307939962403e+02  2.2613674525129616e+02  1.9787050364033095e+02  1.6960439680647463e+02  1.4133850808596733e+02  1.1307288652147862e+02  8.4808461455856218e+01  5.6540124125372451e+01  2.8309264561123527e+01  -4.3494475537502575e-02  1.6200081815532829e+04  1.6048151616688743e+04  1.5895220129402413e+04  1.5742912164274398e+04  1.5591051218544089e+04  1.5439458129624094e+04  1.5288041772126084e+04  1.5136747255533415e+04  1.4985540232863023e+04  1.4834397911853282e+04  1.4683304532841497e+04  1.4532248824735421e+04  1.4381222508537014e+04  1.4230219371231851e+04  1.4079234668960313e+04  1.3928264728564744e+04  1.3777306673392026e+04  1.3626358229590365e+04  1.3475417586127674e+04  1.3324483291622691e+04  1.3173554177002823e+04  1.3022629296665798e+04  1.2871707883149829e+04  1.2720789311831508e+04  1.2569873073178876e+04  1.2418958750771828e+04  1.2268046003775928e+04  1.2117134552889958e+04  1.1966224169026633e+04  1.1815314664160238e+04  1.1664405883903532e+04  1.1513497701472481e+04  1.1362590012770366e+04  1.1211682732378698e+04  1.1060775790285819e+04  1.0909869129217828e+04  1.0758962702463343e+04  1.0608056472104929e+04  1.0457150407587071e+04  1.0306244484564626e+04  1.0155338683986802e+04  1.0004432991381344e+04  9.8535273963113395e+03  9.7026218919838520e+03  9.5517164749954227e+03  9.4008111452047688e+03  9.2499059057277773e+03  9.0990007630547425e+03  8.9480957272942051e+03  8.7971908125527898e+03  8.6462860374656248e+03  8.4953814258975908e+03  8.3444770078426336e+03  8.1935728205558189e+03  8.0426689099623900e+03  7.8917653323992463e+03  7.7408621567578994e+03  7.5899594671150871e+03  7.4390573659580514e+03  7.2881559781381302e+03  7.1372554557192825e+03  6.9863559839308946e+03  6.8354577884880309e+03  6.6845611446126304e+03  6.5336663881796485e+03  6.3827739295310030e+03  6.2318842706556306e+03  6.0809980266383791e+03  5.9301159525483872e+03  5.7792389772851584e+03  5.6283682463418199e+03  5.4775051759781736e+03  5.3266515218732929e+03  5.1758094657709980e+03  5.0249817234468983e+03  4.8741716751961685e+03  4.7233835122961736e+03  4.5726223730263646e+03  4.4218943784870762e+03  4.2712063282504359e+03  4.1205643808333425e+03  3.9699717791532007e+03  3.8194046479184071e+03  3.6688167634233787e+03  3.5189795371138443e+03  3.3723403384461781e+03  3.2253195752386268e+03  2.2889420930186893e+03  2.2595495988651596e+03  2.2315177592112668e+03  2.2037219136362874e+03  2.1757302530985171e+03  2.1476569775469429e+03  2.1195282024159987e+03  2.0913633174441006e+03  2.0631734416176191e+03  2.0349657390387517e+03  2.0067449715522635e+03  1.9785144257603692e+03  1.9502764350689574e+03  1.9220326962560994e+03  1.8937844680884070e+03  1.8655327003108257e+03  1.8372781198371433e+03  1.8090212898123934e+03  1.7807626510007306e+03  1.7525025513753942e+03  1.7242412676590466e+03  1.6959790212610721e+03  1.6677159902424344e+03  1.6394523184159641e+03  1.6111881223483479e+03  1.5829234968028015e+03  1.5546585190075502e+03  1.5263932520294688e+03  1.4981277474583512e+03  1.4698620475549649e+03  1.4415961869784064e+03  1.4133301941809468e+03  1.3850640925383198e+03  1.3567979012683468e+03  1.3285316361793793e+03  1.3002653102813665e+03  1.2719989342856404e+03  1.2437325170142767e+03  1.2154660657358179e+03  1.1871995864409073e+03  1.1589330840687981e+03  1.1306665626936604e+03  1.1024000256779507e+03  1.0741334757987847e+03  1.0458669153521785e+03  1.0176003462391233e+03  9.8933377003680482e+02  9.6106718805765377e+02  9.3280060139846046e+02  9.0453401098142274e+02  8.7626741758867615e+02  8.4800082189161151e+02  8.1973422447610039e+02  7.9146762586459215e+02  7.6320102653595472e+02  7.3493442694384771e+02  7.0666782753439429e+02  6.7840122876393104e+02  6.5013463111767908e+02  6.2186803513030600e+02  5.9360144140952809e+02  5.6533485066428022e+02  5.3706826373942749e+02  5.0880168165976511e+02  4.8053510568720992e+02  4.5226853739687454e+02  4.2400197878051677e+02  3.9573543239038639e+02  3.6746890154391912e+02  3.3920239062228939e+02  3.1093590551759326e+02  2.8266945432289089e+02  2.5440304843031998e+02  2.2613670436031174e+02  1.9787044680473954e+02  1.6960431498397253e+02  1.4133836810277398e+02  1.1307274677559610e+02  8.4807456914311587e+01  5.6544055628530465e+01  2.8285121363891736e+01  5.6319888003931529e-03  1.6197910336947860e+04  1.6046723439380294e+04  1.5894611136110552e+04  1.5742604073374750e+04  1.5590868904488023e+04  1.5439340862111196e+04  1.5287961498015977e+04  1.5136689899042021e+04  1.4985497935217762e+04  1.4834365973556565e+04  1.4683279977288834e+04  1.4532229679110264e+04  1.4381207415878098e+04  1.4230207369279320e+04  1.4079225057881384e+04  1.3928256988565163e+04  1.3777300411563934e+04  1.3626353144552646e+04  1.3475413443857044e+04  1.3324479908532177e+04  1.3173551407838282e+04  1.3022627025682188e+04  1.2871706017568553e+04  1.2720787776915766e+04  1.2569871808477430e+04  1.2418957707220407e+04  1.2268045141437669e+04  1.2117133839178352e+04  1.1966223577297224e+04  1.1815314172587148e+04  1.1664405474578067e+04  1.1513497359676274e+04  1.1362589726386645e+04  1.1211682491413500e+04  1.1060775586477070e+04  1.0909868955714903e+04  1.0758962553563228e+04  1.0608056343033872e+04  1.0457150294318742e+04  1.0306244383667321e+04  1.0155338592493685e+04  1.0004432906678572e+04  9.8535273160397082e+03  9.7026218139501834e+03  9.5517163970902529e+03  9.4008110653232434e+03  9.2499058216906997e+03  9.0990006725267667e+03  8.9480956276960624e+03  8.7971907009641818e+03  8.6462859105149837e+03  8.4953812796344664e+03  8.3444768375876120e+03  8.1935726207220123e+03  8.0426686738412436e+03  7.8917650519017780e+03  7.7408618221005208e+03  7.5899590664363677e+03  7.4390568848494795e+03  7.2881553990673674e+03  7.1372547573186730e+03  6.9863551401162222e+03  6.8354567673625425e+03  6.6845599070977314e+03  6.5336648862960428e+03  6.3827721042301573e+03  6.2318820490704156e+03  6.0809953185813629e+03  5.9301126460362120e+03  5.7792349328100036e+03  5.6283632895579685e+03  5.4774990884579202e+03  5.3266440297048748e+03  5.1758002262612299e+03  5.0249703116551518e+03  4.8741575759681700e+03  4.7233661343044723e+03  4.5726011287339861e+03  4.4218689544142799e+03  4.2711774954381381e+03  4.1205366086628810e+03  3.9699589151252940e+03  3.8194640141724572e+03  3.6691874852596020e+03  3.5197841465013821e+03  3.3722061174192363e+03  3.2225696869556950e+03  2.2881785661706749e+03  2.2602196654264785e+03  2.2318311181544668e+03  2.2038322238179235e+03  2.1757923465953386e+03  2.1476937530176992e+03  2.1195521838657774e+03  2.0913797253754969e+03  2.0631850986432546e+03  2.0349742537912509e+03  2.0067513284862762e+03  1.9785192552946996e+03  1.9502801564231308e+03  1.9220355968843573e+03  1.8937867502900776e+03  1.8655345096771307e+03  1.8372795632028426e+03  1.8090224469111408e+03  1.7807635822241682e+03  1.7525033030554337e+03  1.7242418757378985e+03  1.6959795138891211e+03  1.6677163896490492e+03  1.6394526422782369e+03  1.6111883848071980e+03  1.5829237092274134e+03  1.5546586905774825e+03  1.5263933901827822e+03  1.4981278582399784e+03  1.4698621358898642e+03  1.4415962568873806e+03  1.4133302489522744e+03  1.3850641348650383e+03  1.3567979333585849e+03  1.3285316598454122e+03  1.3002653270117376e+03  1.2719989453037517e+03  1.2437325233260974e+03  1.2154660681688135e+03  1.1871995856758599e+03  1.1589330806658443e+03  1.1306665571136218e+03  1.1024000182998191e+03  1.0741334669340577e+03  1.0458669052566142e+03  1.0176003351223665e+03  9.8933375807026766e+02  9.6106717538094256e+02  9.3280058812460220e+02  9.0453399720108587e+02  8.7626740337354113e+02  8.4800080729702313e+02  8.1973420954308710e+02  7.9146761062132941e+02  7.6320101099871010e+02  7.3493441111743095e+02  7.0666781141210095e+02  6.7840121232693684e+02  6.5013461433381042e+02  6.2186801795204144e+02  5.9360142377102511e+02  5.6533483247709933e+02  5.3706824488645293e+02  5.0880166198656877e+02  4.8053508498967369e+02  4.5226851540320865e+02  4.2400195512467451e+02  3.9573540657191791e+02  3.6746887286586440e+02  3.3920235809241740e+02  3.1093586768645230e+02  2.8266940900843247e+02  2.5440299223333702e+02  2.2613663175125268e+02  1.9787034847989383e+02  1.6960417346305672e+02  1.4133815562239937e+02  1.1307236795919614e+02  8.4806938866986414e+01  5.6542509573020133e+01  2.8277085920169675e+01  -4.2735391010209265e-04  1.6196397180755968e+04  1.6045522262230419e+04  1.5893927756461660e+04  1.5742219410541949e+04  1.5590631664259934e+04  1.5439184217402308e+04  1.5287852692542450e+04  1.5136611413576651e+04  1.4985439690976376e+04  1.4834321803105215e+04  1.4683245913500503e+04  1.4532203062594355e+04  1.4381186401894836e+04  1.4230190641200899e+04  1.4079211653346916e+04  1.3928246189973788e+04  1.3777291674791142e+04  1.3626346051181428e+04  1.3475407668330363e+04  1.3324475195039642e+04  1.3173547553714077e+04  1.3022623869258452e+04  1.2871703429141546e+04  1.2720785651928492e+04  1.2569870062308291e+04  1.2418956271154238e+04  1.2268043959520011e+04  1.2117132865738100e+04  1.1966222774981139e+04  1.1815313510790382e+04  1.1664404928183896e+04  1.1513496908039189e+04  1.1362589352508203e+04  1.1211682181271777e+04  1.1060775328478940e+04  1.0909868740246904e+04  1.0758962372621705e+04  1.0608056189918774e+04  1.0457150163378523e+04  1.0306244270084613e+04  1.0155338492103232e+04  1.0004432815810189e+04  9.8535272313802325e+03  9.7026217324190438e+03  9.5517163157238901e+03  9.4008109811639715e+03  9.2499057316757971e+03  9.0990005733735234e+03  8.9480955157784210e+03  8.7971905721762505e+03  8.6462857601160886e+03  8.4953811020697867e+03  8.3444766262772500e+03  8.1935723678101240e+03  8.0426683698950628e+03  7.8917646855481180e+03  7.7408613795844467e+03  7.5899585310830853e+03  7.4390562364056295e+03  7.2881546128917144e+03  7.1372538033841038e+03  6.9863539817742712e+03  6.8354553598075618e+03  6.6845581954491981e+03  6.5336628031925129e+03  6.3827695667953849e+03  6.2318789550682868e+03  6.0809915415192527e+03  5.9301080289041774e+03  5.7792292800573869e+03  5.6283563568212221e+03  5.4774905695011248e+03  5.3266335401203532e+03  5.1757872839659167e+03  5.0249543157685994e+03  4.8741377899549825e+03  4.7233416905824961e+03  4.5725711015084371e+03  4.4218326273099165e+03  4.2711351746668370e+03  4.1204918493106825e+03  3.9699248825532513e+03  3.8194873405604371e+03  3.6693614621461179e+03  3.5199838633418713e+03  3.3717066836016670e+03  3.2207278915294323e+03  2.2875506607258403e+03  2.2604677225725172e+03  2.2320863976048422e+03  2.2039662812683209e+03  2.1758693856397003e+03  2.1477421695762569e+03  2.1195843279200344e+03  2.0914020213249469e+03  2.0632010722981099e+03  2.0349859940395070e+03  2.0067601353426471e+03  1.9785259722717042e+03  1.9502853495800325e+03  1.9220396570914804e+03  1.8937899541472921e+03  1.8655370571386186e+03  1.8372816015344572e+03  1.8090240863574070e+03  1.7807649064997904e+03  1.7525043765234743e+03  1.7242427484184209e+03  1.6959802250178543e+03  1.6677169702484962e+03  1.6394531170442201e+03  1.6111887735129460e+03  1.5829240277822869e+03  1.5546589518347866e+03  1.5263936045627493e+03  1.4981280342147945e+03  1.4698622803644978e+03  1.4415963755008042e+03  1.4133303463172658e+03  1.3850642147601361e+03  1.3567979988824866e+03  1.3285317135416574e+03  1.3002653709697483e+03  1.2719989812409397e+03  1.2437325526547520e+03  1.2154660920506992e+03  1.1871996050668445e+03  1.1589330963524367e+03  1.1306665697429034e+03  1.1024000284039826e+03  1.0741334749505309e+03  1.0458669115445573e+03  1.0176003399761926e+03  9.8933376173070087e+02  9.6106717804404673e+02  9.3280058994911883e+02  9.0453399831435991e+02  8.7626740387625978e+02  8.4800080726693716e+02  8.1973420903785359e+02  7.9146760968056969e+02  7.6320100964534447e+02  7.3493440935832007e+02  7.0666780923797978e+02  6.7840120971159104e+02  6.5013461123237869e+02  6.2186801429826392e+02  5.9360141947314708e+02  5.6533482741198668e+02  5.3706823889125553e+02  5.0880165484690156e+02  4.8053507642274212e+02  4.5226850503339909e+02  4.2400194