<?xml version="1.0"?>
<VTKFile type="UnstructuredGrid"  version="0.1"  >
<UnstructuredGrid>
<Piece  NumberOfPoints="21400" NumberOfCells="42336">
<Points>
<DataArray  type="Float64"  NumberOfComponents="3"  format="ascii">0 0 0  0.004583333333333333 0 0  0.009166666666666667 0 0  0.01375 0 0  0.01833333333333333 0 0  0.02291666666666667 0 0  0.0275 0 0  0.03208333333333334 0 0  0.03666666666666667 0 0  0.04125 0 0  0.04583333333333334 0 0  0.05041666666666667 0 0  0.055 0 0  0.05958333333333334 0 0  0.06416666666666668 0 0  0.06875000000000001 0 0  0.07333333333333333 0 0  0.07791666666666666 0 0  0.08249999999999999 0 0  0.08708333333333333 0 0  0.09166666666666667 0 0  0.09625000000000002 0 0  0.1008333333333333 0 0  0.1054166666666667 0 0  0.11 0 0  0.1145833333333333 0 0  0.1191666666666667 0 0  0.12375 0 0  0.1283333333333334 0 0  0.1329166666666667 0 0  0.1375 0 0  0.1420833333333333 0 0  0.1466666666666667 0 0  0.15125 0 0  0.1558333333333333 0 0  0.1604166666666667 0 0  0.165 0 0  0.1695833333333333 0 0  0.1741666666666667 0 0  0.17875 0 0  0.1833333333333333 0 0  0.1879166666666667 0 0  0.1925 0 0  0.1970833333333333 0 0  0.2016666666666667 0 0  0.20625 0 0  0.2108333333333333 0 0  0.2154166666666666 0 0  0.22 0 0  0.2245833333333334 0 0  0.2291666666666667 0 0  0.23375 0 0  0.2383333333333333 0 0  0.2429166666666667 0 0  0.2475 0 0  0.2520833333333333 0 0  0.2566666666666667 0 0  0.26125 0 0  0.2658333333333334 0 0  0.2704166666666666 0 0  0.275 0 0  0.2795833333333334 0 0  0.2841666666666667 0 0  0.28875 0 0  0.2933333333333333 0 0  0.2979166666666667 0 0  0.3025 0 0  0.3070833333333334 0 0  0.3116666666666666 0 0  0.31625 0 0  0.3208333333333333 0 0  0.3254166666666667 0 0  0.33 0 0  0.3345833333333333 0 0  0.3391666666666667 0 0  0.34375 0 0  0.3483333333333333 0 0  0.3529166666666667 0 0  0.3575 0 0  0.3620833333333333 0 0  0.3666666666666667 0 0  0.37125 0 0  0.3758333333333334 0 0  0.3804166666666667 0 0  0.3850000000000001 0 0  0.3895833333333333 0 0  0.3941666666666667 0 0  0.39875 0 0  0.4033333333333334 0 0  0.4079166666666666 0 0  0.4125 0 0  0.4170833333333334 0 0  0.4216666666666667 0 0  0.42625 0 0  0.4308333333333333 0 0  0.4354166666666667 0 0  0.44 0 0  0.4445833333333333 0 0  0.4491666666666667 0 0  0.45375 0 0  0.4583333333333333 0 0  0.4629166666666666 0 0  0.4675 0 0  0.4720833333333334 0 0  0.4766666666666667 0 0  0.4812500000000001 0 0  0.4858333333333333 0 0  0.4904166666666667 0 0  0.495 0 0  0.4995833333333334 0 0  0.5041666666666667 0 0  0.50875 0 0  0.5133333333333334 0 0  0.5179166666666667 0 0  0.5225 0 0  0.5270833333333333 0 0  0.5316666666666667 0 0  0.53625 0 0  0.5408333333333333 0 0  0.5454166666666667 0 0  0.55 0 0  0.5545833333333333 0 0  0.5591666666666667 0 0  0.5637500000000001 0 0  0.5683333333333334 0 0  0.5729166666666666 0 0  0.5775 0 0  0.5820833333333334 0 0  0.5866666666666667 0 0  0.5912499999999999 0 0  0.5958333333333334 0 0  0.6004166666666667 0 0  0.605 0 0  0.6095833333333334 0 0  0.6141666666666667 0 0  0.61875 0 0  0.6233333333333333 0 0  0.6279166666666667 0 0  0.6325000000000001 0 0  0.6370833333333333 0 0  0.6416666666666666 0 0  0.64625 0 0  0.6508333333333334 0 0  0.6554166666666666 0 0  0.6599999999999999 0 0  0.6645833333333334 0 0  0.6691666666666667 0 0  0.67375 0 0  0.6783333333333333 0 0  0.6829166666666667 0 0  0.6875 0 0  0.6920833333333333 0 0  0.6966666666666667 0 0  0.70125 0 0  0.7058333333333333 0 0  0.7104166666666667 0 0  0.7150000000000001 0 0  0.7195833333333334 0 0  0.7241666666666666 0 0  0.72875 0 0  0.7333333333333334 0 0  0.7379166666666667 0 0  0.7425 0 0  0.7470833333333333 0 0  0.7516666666666667 0 0  0.75625 0 0  0.7608333333333334 0 0  0.7654166666666666 0 0  0.7700000000000001 0 0  0 0.002380952380952381 0  0.004583333333333333 0.002380952380952381 0  0.009166666666666667 0.002380952380952381 0  0.01375 0.002380952380952381 0  0.01833333333333333 0.002380952380952381 0  0.02291666666666667 0.002380952380952381 0  0.0275 0.002380952380952381 0  0.03208333333333334 0.002380952380952381 0  0.03666666666666667 0.002380952380952381 0  0.04125 0.002380952380952381 0  0.04583333333333334 0.002380952380952381 0  0.05041666666666667 0.002380952380952381 0  0.055 0.002380952380952381 0  0.05958333333333334 0.002380952380952381 0  0.06416666666666668 0.002380952380952381 0  0.06875000000000001 0.002380952380952381 0  0.07333333333333333 0.002380952380952381 0  0.07791666666666666 0.002380952380952381 0  0.08249999999999999 0.002380952380952381 0  0.08708333333333333 0.002380952380952381 0  0.09166666666666667 0.002380952380952381 0  0.09625000000000002 0.002380952380952381 0  0.1008333333333333 0.002380952380952381 0  0.1054166666666667 0.002380952380952381 0  0.11 0.002380952380952381 0  0.1145833333333333 0.002380952380952381 0  0.1191666666666667 0.002380952380952381 0  0.12375 0.002380952380952381 0  0.1283333333333334 0.002380952380952381 0  0.1329166666666667 0.002380952380952381 0  0.1375 0.002380952380952381 0  0.1420833333333333 0.002380952380952381 0  0.1466666666666667 0.002380952380952381 0  0.15125 0.002380952380952381 0  0.1558333333333333 0.002380952380952381 0  0.1604166666666667 0.002380952380952381 0  0.165 0.002380952380952381 0  0.1695833333333333 0.002380952380952381 0  0.1741666666666667 0.002380952380952381 0  0.17875 0.002380952380952381 0  0.1833333333333333 0.002380952380952381 0  0.1879166666666667 0.002380952380952381 0  0.1925 0.002380952380952381 0  0.1970833333333333 0.002380952380952381 0  0.2016666666666667 0.002380952380952381 0  0.20625 0.002380952380952381 0  0.2108333333333333 0.002380952380952381 0  0.2154166666666666 0.002380952380952381 0  0.22 0.002380952380952381 0  0.2245833333333334 0.002380952380952381 0  0.2291666666666667 0.002380952380952381 0  0.23375 0.002380952380952381 0  0.2383333333333333 0.002380952380952381 0  0.2429166666666667 0.002380952380952381 0  0.2475 0.002380952380952381 0  0.2520833333333333 0.002380952380952381 0  0.2566666666666667 0.002380952380952381 0  0.26125 0.002380952380952381 0  0.2658333333333334 0.002380952380952381 0  0.2704166666666666 0.002380952380952381 0  0.275 0.002380952380952381 0  0.2795833333333334 0.002380952380952381 0  0.2841666666666667 0.002380952380952381 0  0.28875 0.002380952380952381 0  0.2933333333333333 0.002380952380952381 0  0.2979166666666667 0.002380952380952381 0  0.3025 0.002380952380952381 0  0.3070833333333334 0.002380952380952381 0  0.3116666666666666 0.002380952380952381 0  0.31625 0.002380952380952381 0  0.3208333333333333 0.002380952380952381 0  0.3254166666666667 0.002380952380952381 0  0.33 0.002380952380952381 0  0.3345833333333333 0.002380952380952381 0  0.3391666666666667 0.002380952380952381 0  0.34375 0.002380952380952381 0  0.3483333333333333 0.002380952380952381 0  0.3529166666666667 0.002380952380952381 0  0.3575 0.002380952380952381 0  0.3620833333333333 0.002380952380952381 0  0.3666666666666667 0.002380952380952381 0  0.37125 0.002380952380952381 0  0.3758333333333334 0.002380952380952381 0  0.3804166666666667 0.002380952380952381 0  0.3850000000000001 0.002380952380952381 0  0.3895833333333333 0.002380952380952381 0  0.3941666666666667 0.002380952380952381 0  0.39875 0.002380952380952381 0  0.4033333333333334 0.002380952380952381 0  0.4079166666666666 0.002380952380952381 0  0.4125 0.002380952380952381 0  0.4170833333333334 0.002380952380952381 0  0.4216666666666667 0.002380952380952381 0  0.42625 0.002380952380952381 0  0.4308333333333333 0.002380952380952381 0  0.4354166666666667 0.002380952380952381 0  0.44 0.002380952380952381 0  0.4445833333333333 0.002380952380952381 0  0.4491666666666667 0.002380952380952381 0  0.45375 0.002380952380952381 0  0.4583333333333333 0.002380952380952381 0  0.4629166666666666 0.002380952380952381 0  0.4675 0.002380952380952381 0  0.4720833333333334 0.002380952380952381 0  0.4766666666666667 0.002380952380952381 0  0.4812500000000001 0.002380952380952381 0  0.4858333333333333 0.002380952380952381 0  0.4904166666666667 0.002380952380952381 0  0.495 0.002380952380952381 0  0.4995833333333334 0.002380952380952381 0  0.5041666666666667 0.002380952380952381 0  0.50875 0.002380952380952381 0  0.5133333333333334 0.002380952380952381 0  0.5179166666666667 0.002380952380952381 0  0.5225 0.002380952380952381 0  0.5270833333333333 0.002380952380952381 0  0.5316666666666667 0.002380952380952381 0  0.53625 0.002380952380952381 0  0.5408333333333333 0.002380952380952381 0  0.5454166666666667 0.002380952380952381 0  0.55 0.002380952380952381 0  0.5545833333333333 0.002380952380952381 0  0.5591666666666667 0.002380952380952381 0  0.5637500000000001 0.002380952380952381 0  0.5683333333333334 0.002380952380952381 0  0.5729166666666666 0.002380952380952381 0  0.5775 0.002380952380952381 0  0.5820833333333334 0.002380952380952381 0  0.5866666666666667 0.002380952380952381 0  0.5912499999999999 0.002380952380952381 0  0.5958333333333334 0.002380952380952381 0  0.6004166666666667 0.002380952380952381 0  0.605 0.002380952380952381 0  0.6095833333333334 0.002380952380952381 0  0.6141666666666667 0.002380952380952381 0  0.61875 0.002380952380952381 0  0.6233333333333333 0.002380952380952381 0  0.6279166666666667 0.002380952380952381 0  0.6325000000000001 0.002380952380952381 0  0.6370833333333333 0.002380952380952381 0  0.6416666666666666 0.002380952380952381 0  0.64625 0.002380952380952381 0  0.6508333333333334 0.002380952380952381 0  0.6554166666666666 0.002380952380952381 0  0.6599999999999999 0.002380952380952381 0  0.6645833333333334 0.002380952380952381 0  0.6691666666666667 0.002380952380952381 0  0.67375 0.002380952380952381 0  0.6783333333333333 0.002380952380952381 0  0.6829166666666667 0.002380952380952381 0  0.6875 0.002380952380952381 0  0.6920833333333333 0.002380952380952381 0  0.6966666666666667 0.002380952380952381 0  0.70125 0.002380952380952381 0  0.7058333333333333 0.002380952380952381 0  0.7104166666666667 0.002380952380952381 0  0.7150000000000001 0.002380952380952381 
[...]
<PointData  Scalars="pressure"> 
<DataArray  type="Float64"  Name="pressure"  format="ascii">1.6884647788877959e+04  1.6722216947522429e+04  1.6568397225953431e+04  1.6415779105138841e+04  1.6263811243839549e+04  1.6112164137300580e+04  1.5960718106857794e+04  1.5809405506749259e+04  1.5658186739982777e+04  1.5507036402678672e+04  1.5355937342305744e+04  1.5204877487693664e+04  1.5053848074264917e+04  1.4902842580322276e+04  1.4751856058063540e+04  1.4600884695108694e+04  1.4449925517069642e+04  1.4298976179814965e+04  1.4148034820716895e+04  1.3997099949830479e+04  1.3846170368809615e+04  1.3695245109530182e+04  1.3544323386999287e+04  1.3393404562806521e+04  1.3242488116477642e+04  1.3091573622834656e+04  1.2940660733976847e+04  1.2789749164854646e+04  1.2638838681662735e+04  1.2487929092462791e+04  1.2337020239581694e+04  1.2186111993431710e+04  1.2035204247475216e+04  1.1884296914114637e+04  1.1733389921332971e+04  1.1582483209945398e+04  1.1431576731349658e+04  1.1280670445684809e+04  1.1129764320325314e+04  1.0978858328651177e+04  1.0827952449046355e+04  1.0677046664086693e+04  1.0526140959886094e+04  1.0375235325576015e+04  1.0224329752898380e+04  1.0073424235896509e+04  9.9225187706922952e+03  9.7716133553412365e+03  9.6207079897598669e+03  9.4698026757227799e+03  9.3188974169292233e+03  9.1679922191417572e+03  9.0170870904022140e+03  8.8661820413331698e+03  8.7152770855363433e+03  8.5643722401031609e+03  8.4134675262568599e+03  8.2625629701508788e+03  8.1116586038541254e+03  7.9607544665614778e+03  7.8098506060765667e+03  7.6589470806253639e+03  7.5080439610725925e+03  7.3571413336302840e+03  7.2062393031691554e+03  7.0553379972704070e+03  6.9044375711898256e+03  6.7535382139495705e+03  6.6026401558290336e+03  6.4517436775984506e+03  6.3008491219330426e+03  6.1499569075681493e+03  5.9990675469169537e+03  5.8481816680829324e+03  5.6973000424736574e+03  5.5464236195734347e+03  5.3955535708661128e+03  5.2446913453931256e+03  5.0938387398874847e+03  4.9429979865371997e+03  4.7921718603735053e+03  4.6413638038856789e+03  4.4905780532384370e+03  4.3398197122767579e+03  4.1890945996118526e+03  4.0384085828508705e+03  3.8877636412763941e+03  3.7371539245253857e+03  3.5864853459997894e+03  3.4360021188556452e+03  3.2785172755827430e+03  2.2822158850286187e+03  2.1827347552424576e+03  2.1264840718305027e+03  2.0885532274698389e+03  2.0615857476995689e+03  2.0340269416013023e+03  2.0060790765225267e+03  1.9780281005512388e+03  1.9499097713037747e+03  1.9217509408468131e+03  1.8935647984763343e+03  1.8653595411789827e+03  1.8371404412691659e+03  1.8089110699321247e+03  1.7806739280682923e+03  1.7524308159997622e+03  1.7241830589448878e+03  1.6959316506608368e+03  1.6676773480080183e+03  1.6394207349950573e+03  1.6111622672300000e+03  1.5829023034473516e+03  1.5546411283037864e+03  1.5263789691471407e+03  1.4981160085434301e+03  1.4698523937642237e+03  1.4415882440598104e+03  1.4133236562949664e+03  1.3850587093570398e+03  1.3567934676320162e+03  1.3285279837649339e+03  1.3002623008652713e+03  1.2719964542780144e+03  1.2437304730121566e+03  1.2154643808971932e+03  1.1871981975223259e+03  1.1589319390012365e+03  1.1306656185962129e+03  1.1023992472284722e+03  1.0741328338961212e+03  1.0458663860169734e+03  1.0175999097101030e+03  9.8933341002739883e+02  9.6106689114425774e+02  9.3280035651686774e+02  9.0453380901220169e+02  8.7626725101572026e+02  8.4800068452093524e+02  8.1973411120424544e+02  7.9146753248792720e+02  7.6320094959369771e+02  7.3493436358892370e+02  7.0666777542730597e+02  6.7840118598569211e+02  6.5013459609859615e+02  6.2186800659201174e+02  5.9360141831821124e+02  5.6533483219352445e+02  5.3706824924153864e+02  5.0880167064493031e+02  4.8053509781039003e+02  4.5226853245303943e+02  4.2400197670989917e+02  3.9573543329710503e+02  3.6746890573420507e+02  3.3920239867374090e+02  3.1093591840065972e+02  2.8266947361566707e+02  2.5440307670481448e+02  2.2613674593614047e+02  1.9787050902566324e+02  1.6960441277401137e+02  1.4133851756514818e+02  1.1307309636486058e+02  8.4807248220990402e+01  5.6551537512371972e+01  2.8205950772079383e+01  7.9925959546775460e-01  1.6876365225312507e+04  1.6722266317950718e+04  1.6568213493544470e+04  1.6415727245331738e+04  1.6263777229290505e+04  1.6112143431235601e+04  1.5960704061875016e+04  1.5809395579008366e+04  1.5658179466329253e+04  1.5507030937631720e+04  1.5355933156691572e+04  1.5204874234706616e+04  1.5053845517229542e+04  1.4902840552423329e+04  1.4751854438547942e+04  1.4600883394618693e+04  1.4449924468258123e+04  1.4298975331144216e+04  1.4148034132243420e+04  1.3997099390267473e+04  1.3846169913433992e+04  1.3695244738661835e+04  1.3544323084876669e+04  1.3393404316742306e+04  1.3242487916216087e+04  1.3091573460056583e+04  1.2940660601914346e+04  1.2789749057988511e+04  1.2638838595482950e+04  1.2487929023277728e+04  1.2337020184365203e+04  1.2186111949700000e+04  1.2035204213187289e+04  1.1884296887591470e+04  1.1733389901191758e+04  1.1582483195045819e+04  1.1431576720749903e+04  1.1280670438605488e+04  1.1129764316119699e+04  1.0978858326780641e+04  1.0827952449060002e+04  1.0677046665604305e+04  1.0526140962583822e+04  1.0375235329174209e+04  1.0224329757151090e+04  1.0073424240582266e+04  9.9225187756058058e+03  9.7716133602857299e+03  9.6207079945396945e+03  9.4698026801361157e+03  9.3188974207605079e+03  9.1679922221536199e+03  9.0170870923265666e+03  8.8661820418611424e+03  8.7152770843066755e+03  8.5643722366885650e+03  8.4134675201479004e+03  8.2625629607366554e+03  8.1116585903990635e+03  7.9607544481772438e+03  7.8098505816880015e+03  7.6589470489290052e+03  7.5080439204860540e+03  7.3571412822302964e+03  7.2062392386155088e+03  7.0553379167123630e+03  6.9044374711505652e+03  6.7535380901830240e+03  6.6026400031418443e+03  6.4517434896276272e+03  6.3008488908670879e+03  6.1499566237956424e+03  5.9990671985818262e+03  5.8481812405194605e+03  5.6972995174869820e+03  5.5464229745237135e+03  5.3955527775090713e+03  5.2446903684345771e+03  5.0938375352437051e+03  4.9429964994050179e+03  4.7921700235302014e+03  4.6413615375329873e+03  4.4905752696853169e+03  4.3398163334579031e+03  4.1890906446454792e+03  4.0384041508861123e+03  3.8877607505419055e+03  3.7371505940423017e+03  3.5865608927027019e+03  3.4355266240092769e+03  3.2844753534983802e+03  3.1378721286474970e+03  2.9999525840495348e+03  2.9138079189442683e+03  2.0877449927902931e+03  2.0618219225494531e+03  2.0340302410181523e+03  2.0060933594248936e+03  1.9780344567985376e+03  1.9499140597448793e+03  1.9217538063096467e+03  1.8935668226891476e+03  1.8653610124949314e+03  1.8371415371364744e+03  1.8089119018826427e+03  1.7806745696118039e+03  1.7524313171480555e+03  1.7241834546813402e+03  1.6959319660365884e+03  1.6676776013292194e+03  1.6394209398763469e+03  1.6111624339529012e+03  1.5829024398800352e+03  1.5546412405371050e+03  1.5263790619429822e+03  1.4981160856564043e+03  1.4698524581762422e+03  1.4415882981537202e+03  1.4133237019848282e+03  1.3850587481871141e+03  1.3567935008527984e+03  1.3285280123921600e+03  1.3002623257261093e+03  1.2719964760475070e+03  1.2437304922421749e+03  1.2154643980395601e+03  1.1871982129473927e+03  1.1589319530128582e+03  1.1306656314438699e+03  1.1023992591171079e+03  1.0741328449941475e+03  1.0458663964627983e+03  1.0175999196174565e+03  9.8933341948968769e+02  9.6106690023812280e+02  9.3280036530509642e+02  9.0453381754609791e+02  8.7626725933704108e+02  8.4800069266345668e+02  8.1973411919502576e+02  7.9146754034831133e+02  7.6320095734009817e+02  7.3493437123341005e+02  7.0666778297801454e+02  6.7840119344706943e+02  6.5013460347147384e+02  6.2186801387349885e+02  5.9360142550137471e+02  5.6533483926681367e+02  5.3706825618786490e+02  5.0880167744027943e+02  4.8053510442175713e+02  4.5226853883536359e+02  4.2400198280145929e+02  3.9573543901248740e+02  3.6746891095331887e+02  3.3920240322417192e+02  3.1093592202854279e+02  2.8266947593472526e+02  2.5440307711253101e+02  2.2613674339376780e+02  1.9787050214309107e+02  1.6960439561368406e+02  1.4133850715314085e+02  1.1307288581382605e+02  8.4808460946980276e+01  5.6540123796316813e+01  2.8309264399406054e+01  -4.3494475230266290e-02  1.6872695938160614e+04  1.6720765739310904e+04  1.6567834252005137e+04  1.6415526286843124e+04  1.6263665341062971e+04  1.6112072252075430e+04  1.5960655894489661e+04  1.5809361377785732e+04  1.5658154354976436e+04  1.5507012033794957e+04  1.5355918654572195e+04  1.5204862946208024e+04  1.5053836629694782e+04  1.4902833492006286e+04  1.4751848789268608e+04  1.4600878848306716e+04  1.4449920792446334e+04  1.4298972347810017e+04  1.4148031703334529e+04  1.3997097407600821e+04  1.3846168291490430e+04  1.3695243409345459e+04  1.3544321993636653e+04  1.3393403419658776e+04  1.3242487177780624e+04  1.3091572851461702e+04  1.2940660099721588e+04  1.2789748643082023e+04  1.2638838252240979e+04  1.2487928738912351e+04  1.2337019948393076e+04  1.2186111753516123e+04  1.2035204049720271e+04  1.1884296751023705e+04  1.1733389786731586e+04  1.1582483098741470e+04  1.1431576639337118e+04  1.1280670369382424e+04  1.1129764256843868e+04  1.0978858275583745e+04  1.0827952404377193e+04  1.0677046626115118e+04  1.0526140927162447e+04  1.0375235296847173e+04  1.0224329727060718e+04  1.0073424211954542e+04  9.9225187477213913e+03  9.7716133324530183e+03  9.6207079660689596e+03  9.4698026503136825e+03  9.3188973888220480e+03  9.1679921872555060e+03  9.0170870535142403e+03  8.8661819980332493e+03  8.7152770341736414e+03  8.5643721787239829e+03  8.4134674525308401e+03  8.2625628812826435e+03  8.1116584964770200e+03  7.9607543366089812e+03  7.8098504486262600e+03  7.6589468897089164e+03  7.5080437294437552e+03  7.3571410524808689e+03  7.2062389617803256e+03  7.0553375825833482e+03  6.9044370672754421e+03  6.7535376013511250e+03  6.6026394107441292e+03  6.4517427708566929e+03  6.3008480177124793e+03  6.1499555617760279e+03  5.9990659051374059e+03  5.8481796629648579e+03  5.6972975903963061e+03  5.5464206163879844e+03  5.3955498864798074e+03  5.2446868169701793e+03  5.0938331635700079e+03  4.9429911080493985e+03  4.7921633662056411e+03  4.6413533183518266e+03  4.4905651557801120e+03  4.3398040167821946e+03  4.1890760224685428e+03  4.0383879724196991e+03  3.8877460251595653e+03  3.7371534236113957e+03  3.5865862924885250e+03  3.4359984080895692e+03  3.2861611818634374e+03  3.1395219832684265e+03  2.9925012201274021e+03  2.1193424247869830e+03  2.0899499306437829e+03  2.0619180909983834e+03  2.0341222454304623e+03  2.0061305848987561e+03  1.9780573093524467e+03  1.9499285342261608e+03  1.9217636492584863e+03  1.8935737734359493e+03  1.8653660708608929e+03  1.8371453033782250e+03  1.8089147575903037e+03  1.7806767669031613e+03  1.7524330280950326e+03  1.7241847999327053e+03  1.6959330321613224e+03  1.6676784516949047e+03  1.6394216216787556e+03  1.6111629828773505e+03  1.5829028832643121e+03  1.5546415995627615e+03  1.5263793531826341e+03  1.4981163221855586e+03  1.4698526503851697e+03  1.4415884543491295e+03  1.4133238288418286e+03  1.3850588510929190e+03  1.3567935841710041e+03  1.3285280796679774e+03  1.3002623798471420e+03  1.2719965193706762e+03  1.2437305266945884e+03  1.2154644251991442e+03  1.1871982341076600e+03  1.1589319692351553e+03  1.1306656435996717e+03  1.1023992679223566e+03  1.0741328510371970e+03  1.0458664002272001e+03  1.0175999215005661e+03  9.8933341981786702e+02  9.6106689927917432e+02  9.3280036327842106e+02  9.0453381463099174e+02  8.7626725567945073e+02  8.4800068838145842e+02  8.1973411438323774e+02  7.9146753508140546e+02  7.6320095167553825e+02  7.3493436521351066e+02  7.0666777663138555e+02  6.7840118678947601e+02  6.5013459650610935e+02  6.2186800659062874e+02  5.9360141787725456e+02  5.6533483126170768e+02  5.3706824774289350e+02  5.0880166847265116e+02  4.8053509481768543e+02  4.5226852843954953e+02  4.2400197140132161e+02  3.9573542631411038e+02  3.6746889654394590e+02  3.3920238651214441e+02  3.1093590214398898e+02  2.8266945156000901e+02  2.5440304617511953e+02  2.2613670252868565e+02  1.9787044532837788e+02  1.6960431380781480e+02  1.4133836718295544e+02  1.1307274607781142e+02  8.4807456412536212e+01  5.6544055304041237e+01  2.8285121204562675e+01  5.6319888261758917e-03  1.6870524459584434e+04  1.6719337562011369e+04  1.6567225258722661e+04  1.6415218195953676e+04  1.6263483027018299e+04  1.6111954984575563e+04  1.5960575620394688e+04  1.5809304021312151e+04  1.5658112057352322e+04  1.5506980095523517e+04  1.5355894099049881e+04  1.5204843800619425e+04  1.5053821537079990e+04  1.4902821490107091e+04  1.4751839178254229e+04  1.4600871108385294e+04  1.4449914530712931e+04  1.4298967262887050e+04  1.4148027561203002e+04  1.3997094024678949e+04  1.3846165522530362e+04  1.3695241138609781e+04  1.3544320128356030e+04  1.3393401885107625e+04  1.3242485913521306e+04  1.3091571808446453e+04  1.2940659238033557e+04  1.2789747930158963e+04  1.2638837661467871e+04  1.2487928248499000e+04  1.2337019540474079e+04  1.2186111413425606e+04  1.2035203765405122e+04  1.1884296512567182e+04  1.1733389585965249e+04  1.1582482928928266e+04  1.1431576494911780e+04  1.1280670245738265e+04  1.1129764150157183e+04  1.0978858182668602e+04  1.0827952322564863e+04  1.0677046553153365e+04  1.0526140861130716e+04  1.0375235236084405e+04  1.0224329670103038e+04  1.0073424157480380e+04  9.9225186945019886e+03  9.7716132793064644e+03  9.6207079118159509e+03  9.4698025937334060e+03  9.3188973286064720e+03  9.1679921219603821e+03  9.0170869815049409e+03  8.8661819174233660e+03  8.7152769427540388e+03  8.5643720738795218e+03  8.4134673311415681e+03  8.2625627396055716e+03  8.1116583300037928e+03  7.9607541398937747e+03  7.8098502150768209e+03  7.6589466113321769e+03  7.5080433965352113e+03  7.3571406532443116e+03  7.2062384818610171e+03  7.0553370044933008e+03  6.9044363696835671e+03  6.7535367582033705e+03  6.6026383901685986e+03  6.4517415337953071e+03  6.3008465162028497e+03  6.1499537367835637e+03  5.9990636838064775e+03  5.8481769551175175e+03  5.6972942840570104e+03  5.5464165720553628e+03  5.3955449298134499e+03  5.2446807295467679e+03  5.0938256714813861e+03  4.9429818686053613e+03  4.7921519544680095e+03  4.6413392191683415e+03  4.4905477778249879e+03  4.3397827725198176e+03  4.1890505984202919e+03  4.0383591396274046e+03  3.8877182530053087e+03  3.7371405595964943e+03  3.5866456587528364e+03  3.4363691299335842e+03  3.2869657912565503e+03  3.1393877622457999e+03  2.9897513318479278e+03  2.1185788979402701e+03  2.0906199972059908e+03  2.0622314499423433e+03  2.0342325556127512e+03  2.0061926783960935e+03  1.9780940848235955e+03  1.9499525156762218e+03  1.9217800571900630e+03  1.8935854304616710e+03  1.8653745856133867e+03  1.8371516603121397e+03  1.8089195871244387e+03  1.7806804882570375e+03  1.7524359287228792e+03  1.7241870821338341e+03  1.6959348415269367e+03  1.6676798950597354e+03  1.6394227787764278e+03  1.6111639140994650e+03  1.5829036349427311e+03  1.5546422076396354e+03  1.5263798458082733e+03  1.4981167215892415e+03  1.4698529742438798e+03  1.4415887168036531e+03  1.4133240412611892e+03  1.3850590226564775e+03  1.3567937223165854e+03  1.3285281904402236e+03  1.3002624681706623e+03  1.2719965892658479e+03  1.2437305814491742e+03  1.2154644675055551e+03  1.1871982661732661e+03  1.1589319928713080e+03  1.1306656602937946e+03  1.1023992788964915e+03  1.0741328572956602e+03  1.0458664025954495e+03  1.0175999206569409e+03  9.8933341631953306e+02  9.6106689358333665e+02  9.3280035575966383e+02  9.0453380559543803e+02  8.7626724537629389e+02  8.4800067701231671e+02  8.1973410210968905e+02  7.9146752203098322e+02  7.6320093794640968e+02  7.3493435087799946e+02  7.0666776173844369e+02  6.7840117136616527e+02  6.5013458055808530e+02  6.2186799010156062e+02  5.9360140080701456e+02  5.6533481354305661e+02  5.3706822927619521e+02  5.0880164911788717e+02  4.8053507438261545e+02  4.5226850666217450e+02  4.2400194792366216e+02  3.9573540064236272e+02  3.6746886798662257e+02  3.3920235408151734e+02  3.1093586439430783e+02  2.8266940631226350e+02  2.5440299003259082e+02  2.2613662996385310e+02  1.9787034703918039e+02  1.6960417231529854e+02  1.4133815472479111e+02  1.1307236727826124e+02  8.4806938377328621e+01  5.6542509256373442e+01  2.8277085764730611e+01  -4.2735385160956005e-04  1.6869011303404892e+04  1.6718136384874040e+04  1.6566541879086973e+04  1.6414833533135225e+04  1.6263245786806250e+04  1.6111798339884990e+04  1.5960466814942452e+04  1.5809225535871827e+04  1.5658053813140688e+04  1.5506935925107726e+04  1.5355860035304244e+04  1.5204817184154928e+04  1.5053800523158796e+04  1.4902804762103700e+04  1.4751825773810549e+04  1.4600860309903856e+04  1.4449905794073327e+04  1.4298960169677248e+04  1.4148021785871981e+04  1.3997089311423624e+04  1.3846161668693761e+04  1.3695237982534787e+04  1.3544317540351914e+04  1.3393399760633180e+04  1.3242484167974060e+04  1.3091570373134455e+04  1.2940658057030496e+04  1.2789746957827865e+04  1.2638836860496896e+04  1.2487927588333501e+04  1.2337018996058221e+04  1.2186110964187705e+04  1.2035203394436292e+04  1.1884296205954093e+04  1.1733389332246501e+04  1.1582482718650135e+04  1.1431576320264359e+04  1.1280670100256482e+04  1.1129764028474501e+04  1.0978858080313341e+04  1.0827952235791066e+04  1.0677046478799453e+04  1.0526140796500491e+04  1.0375235178845734e+04  1.0224329618200361e+04  1.0073424109057676e+04  9.9225186478332980e+03  9.7716132327312880e+03  9.6207078636771257e+03  9.4698025423151175e+03  9.3188972720700167e+03  9.1679920582752948e+03  9.0170869083728448e+03  8.8661818321916944e+03  8.7152768423162597e+03  8.5643719545580698e+03  8.4134671885489443e+03  8.2625625684781517e+03  8.1116581240017904e+03  7.9607538913593389e+03  7.8098499147404509e+03  7.6589462479553022e+03  7.5080429564739125e+03  7.3571401199153379e+03  7.2062378350864947e+03  7.0553362196942444e+03  6.9044354168841937e+03  6.7535356007975424e+03  6.6026369833855797e+03  6.4517398227833528e+03  6.3008444336242555e+03  6.1499511997816571e+03  5.9990605901612807e+03  5.8481731783497180e+03  5.6972896671676390e+03  5.5464109195028077e+03  5.3955379972416295e+03  5.2446722107259056e+03  5.0938151820088751e+03  4.9429689264023127e+03  4.7921359586574154e+03  4.6413194332176399e+03  4.4905233341543526e+03  4.3397527453363809e+03  4.1890142713503828e+03  4.0383168188841823e+03  3.8876734936758571e+03  3.7371065270427111e+03  3.5866689851552487e+03  3.4365431068312014e+03  3.2871655081053127e+03  3.1388883284342942e+03  2.9879095364265681e+03  2.1179509924978065e+03  2.0908680543534228e+03  2.0624867293938578e+03  2.0343666130640704e+03  2.0062697174411824e+03  1.9781425013827065e+03  1.9499846597308745e+03  1.9218023531397673e+03  1.8936014041166466e+03  1.8653863258616334e+03  1.8371604671683733e+03  1.8089263041011707e+03  1.7806856814135226e+03  1.7524399889294248e+03  1.7241902859902884e+03  1.6959373889874530e+03  1.6676819333901337e+03  1.6394244182211849e+03  1.6111652383732307e+03  1.5829047084084971e+03  1.5546430803173807e+03  1.5263805569336232e+03  1.4981173021845743e+03  1.4698534490048619e+03  1.4415891055033276e+03  1.4133243598086899e+03  1.3850592839048361e+03  1.3567939366856986e+03  1.3285283664018730e+03  1.3002626126293235e+03  1.2719967078598979e+03  1.2437306787906664e+03  1.2154645473721498e+03  1.1871983316625931e+03  1.1589320465256135e+03  1.1306657042009285e+03  1.1023993147719559e+03  1.0741328865494265e+03  1.0458664263864632e+03  1.0175999399376443e+03  9.8933343187226728e+02  9.6106690605010863e+02  9.3280036566648550e+02  9.0453381337219935e+02  8.7626725137295307e+02  8.4800068151203482e+02  8.1973410533941069e+02  7.9146752416986067e+02  7.6320093913237872e+02  7.3493435121273308e+02  7.0666776129084155e+02  6.7840117017445266e+02  6.5013457863052952e+02  6.2186798741570385e+02  5.9360139730721585e+02  5.6533480913595758e+02  5.3706822382349287e+02  5.0880164242543333e+02  4.8053506618429805e+02  4.5226849659612895e+02  4.2400193