<?xml version="1.0"?>
<VTKFile type="UnstructuredGrid"  version="0.1"  >
<UnstructuredGrid>
<Piece  NumberOfPoints="21400" NumberOfCells="42336">
<Points>
<DataArray  type="Float64"  NumberOfComponents="3"  format="ascii">0 0 0  0.004583333333333333 0 0  0.009166666666666667 0 0  0.01375 0 0  0.01833333333333333 0 0  0.02291666666666667 0 0  0.0275 0 0  0.03208333333333334 0 0  0.03666666666666667 0 0  0.04125 0 0  0.04583333333333334 0 0  0.05041666666666667 0 0  0.055 0 0  0.05958333333333334 0 0  0.06416666666666668 0 0  0.06875000000000001 0 0  0.07333333333333333 0 0  0.07791666666666666 0 0  0.08249999999999999 0 0  0.08708333333333333 0 0  0.09166666666666667 0 0  0.09625000000000002 0 0  0.1008333333333333 0 0  0.1054166666666667 0 0  0.11 0 0  0.1145833333333333 0 0  0.1191666666666667 0 0  0.12375 0 0  0.1283333333333334 0 0  0.1329166666666667 0 0  0.1375 0 0  0.1420833333333333 0 0  0.1466666666666667 0 0  0.15125 0 0  0.1558333333333333 0 0  0.1604166666666667 0 0  0.165 0 0  0.1695833333333333 0 0  0.1741666666666667 0 0  0.17875 0 0  0.1833333333333333 0 0  0.1879166666666667 0 0  0.1925 0 0  0.1970833333333333 0 0  0.2016666666666667 0 0  0.20625 0 0  0.2108333333333333 0 0  0.2154166666666666 0 0  0.22 0 0  0.2245833333333334 0 0  0.2291666666666667 0 0  0.23375 0 0  0.2383333333333333 0 0  0.2429166666666667 0 0  0.2475 0 0  0.2520833333333333 0 0  0.2566666666666667 0 0  0.26125 0 0  0.2658333333333334 0 0  0.2704166666666666 0 0  0.275 0 0  0.2795833333333334 0 0  0.2841666666666667 0 0  0.28875 0 0  0.2933333333333333 0 0  0.2979166666666667 0 0  0.3025 0 0  0.3070833333333334 0 0  0.3116666666666666 0 0  0.31625 0 0  0.3208333333333333 0 0  0.3254166666666667 0 0  0.33 0 0  0.3345833333333333 0 0  0.3391666666666667 0 0  0.34375 0 0  0.3483333333333333 0 0  0.3529166666666667 0 0  0.3575 0 0  0.3620833333333333 0 0  0.3666666666666667 0 0  0.37125 0 0  0.3758333333333334 0 0  0.3804166666666667 0 0  0.3850000000000001 0 0  0.3895833333333333 0 0  0.3941666666666667 0 0  0.39875 0 0  0.4033333333333334 0 0  0.4079166666666666 0 0  0.4125 0 0  0.4170833333333334 0 0  0.4216666666666667 0 0  0.42625 0 0  0.4308333333333333 0 0  0.4354166666666667 0 0  0.44 0 0  0.4445833333333333 0 0  0.4491666666666667 0 0  0.45375 0 0  0.4583333333333333 0 0  0.4629166666666666 0 0  0.4675 0 0  0.4720833333333334 0 0  0.4766666666666667 0 0  0.4812500000000001 0 0  0.4858333333333333 0 0  0.4904166666666667 0 0  0.495 0 0  0.4995833333333334 0 0  0.5041666666666667 0 0  0.50875 0 0  0.5133333333333334 0 0  0.5179166666666667 0 0  0.5225 0 0  0.5270833333333333 0 0  0.5316666666666667 0 0  0.53625 0 0  0.5408333333333333 0 0  0.5454166666666667 0 0  0.55 0 0  0.5545833333333333 0 0  0.5591666666666667 0 0  0.5637500000000001 0 0  0.5683333333333334 0 0  0.5729166666666666 0 0  0.5775 0 0  0.5820833333333334 0 0  0.5866666666666667 0 0  0.5912499999999999 0 0  0.5958333333333334 0 0  0.6004166666666667 0 0  0.605 0 0  0.6095833333333334 0 0  0.6141666666666667 0 0  0.61875 0 0  0.6233333333333333 0 0  0.6279166666666667 0 0  0.6325000000000001 0 0  0.6370833333333333 0 0  0.6416666666666666 0 0  0.64625 0 0  0.6508333333333334 0 0  0.6554166666666666 0 0  0.6599999999999999 0 0  0.6645833333333334 0 0  0.6691666666666667 0 0  0.67375 0 0  0.6783333333333333 0 0  0.6829166666666667 0 0  0.6875 0 0  0.6920833333333333 0 0  0.6966666666666667 0 0  0.70125 0 0  0.7058333333333333 0 0  0.7104166666666667 0 0  0.7150000000000001 0 0  0.7195833333333334 0 0  0.7241666666666666 0 0  0.72875 0 0  0.7333333333333334 0 0  0.7379166666666667 0 0  0.7425 0 0  0.7470833333333333 0 0  0.7516666666666667 0 0  0.75625 0 0  0.7608333333333334 0 0  0.7654166666666666 0 0  0.7700000000000001 0 0  0 0.002380952380952381 0  0.004583333333333333 0.002380952380952381 0  0.009166666666666667 0.002380952380952381 0  0.01375 0.002380952380952381 0  0.01833333333333333 0.002380952380952381 0  0.02291666666666667 0.002380952380952381 0  0.0275 0.002380952380952381 0  0.03208333333333334 0.002380952380952381 0  0.03666666666666667 0.002380952380952381 0  0.04125 0.002380952380952381 0  0.04583333333333334 0.002380952380952381 0  0.05041666666666667 0.002380952380952381 0  0.055 0.002380952380952381 0  0.05958333333333334 0.002380952380952381 0  0.06416666666666668 0.002380952380952381 0  0.06875000000000001 0.002380952380952381 0  0.07333333333333333 0.002380952380952381 0  0.07791666666666666 0.002380952380952381 0  0.08249999999999999 0.002380952380952381 0  0.08708333333333333 0.002380952380952381 0  0.09166666666666667 0.002380952380952381 0  0.09625000000000002 0.002380952380952381 0  0.1008333333333333 0.002380952380952381 0  0.1054166666666667 0.002380952380952381 0  0.11 0.002380952380952381 0  0.1145833333333333 0.002380952380952381 0  0.1191666666666667 0.002380952380952381 0  0.12375 0.002380952380952381 0  0.1283333333333334 0.002380952380952381 0  0.1329166666666667 0.002380952380952381 0  0.1375 0.002380952380952381 0  0.1420833333333333 0.002380952380952381 0  0.1466666666666667 0.002380952380952381 0  0.15125 0.002380952380952381 0  0.1558333333333333 0.002380952380952381 0  0.1604166666666667 0.002380952380952381 0  0.165 0.002380952380952381 0  0.1695833333333333 0.002380952380952381 0  0.1741666666666667 0.002380952380952381 0  0.17875 0.002380952380952381 0  0.1833333333333333 0.002380952380952381 0  0.1879166666666667 0.002380952380952381 0  0.1925 0.002380952380952381 0  0.1970833333333333 0.002380952380952381 0  0.2016666666666667 0.002380952380952381 0  0.20625 0.002380952380952381 0  0.2108333333333333 0.002380952380952381 0  0.2154166666666666 0.002380952380952381 0  0.22 0.002380952380952381 0  0.2245833333333334 0.002380952380952381 0  0.2291666666666667 0.002380952380952381 0  0.23375 0.002380952380952381 0  0.2383333333333333 0.002380952380952381 0  0.2429166666666667 0.002380952380952381 0  0.2475 0.002380952380952381 0  0.2520833333333333 0.002380952380952381 0  0.2566666666666667 0.002380952380952381 0  0.26125 0.002380952380952381 0  0.2658333333333334 0.002380952380952381 0  0.2704166666666666 0.002380952380952381 0  0.275 0.002380952380952381 0  0.2795833333333334 0.002380952380952381 0  0.2841666666666667 0.002380952380952381 0  0.28875 0.002380952380952381 0  0.2933333333333333 0.002380952380952381 0  0.2979166666666667 0.002380952380952381 0  0.3025 0.002380952380952381 0  0.3070833333333334 0.002380952380952381 0  0.3116666666666666 0.002380952380952381 0  0.31625 0.002380952380952381 0  0.3208333333333333 0.002380952380952381 0  0.3254166666666667 0.002380952380952381 0  0.33 0.002380952380952381 0  0.3345833333333333 0.002380952380952381 0  0.3391666666666667 0.002380952380952381 0  0.34375 0.002380952380952381 0  0.3483333333333333 0.002380952380952381 0  0.3529166666666667 0.002380952380952381 0  0.3575 0.002380952380952381 0  0.3620833333333333 0.002380952380952381 0  0.3666666666666667 0.002380952380952381 0  0.37125 0.002380952380952381 0  0.3758333333333334 0.002380952380952381 0  0.3804166666666667 0.002380952380952381 0  0.3850000000000001 0.002380952380952381 0  0.3895833333333333 0.002380952380952381 0  0.3941666666666667 0.002380952380952381 0  0.39875 0.002380952380952381 0  0.4033333333333334 0.002380952380952381 0  0.4079166666666666 0.002380952380952381 0  0.4125 0.002380952380952381 0  0.4170833333333334 0.002380952380952381 0  0.4216666666666667 0.002380952380952381 0  0.42625 0.002380952380952381 0  0.4308333333333333 0.002380952380952381 0  0.4354166666666667 0.002380952380952381 0  0.44 0.002380952380952381 0  0.4445833333333333 0.002380952380952381 0  0.4491666666666667 0.002380952380952381 0  0.45375 0.002380952380952381 0  0.4583333333333333 0.002380952380952381 0  0.4629166666666666 0.002380952380952381 0  0.4675 0.002380952380952381 0  0.4720833333333334 0.002380952380952381 0  0.4766666666666667 0.002380952380952381 0  0.4812500000000001 0.002380952380952381 0  0.4858333333333333 0.002380952380952381 0  0.4904166666666667 0.002380952380952381 0  0.495 0.002380952380952381 0  0.4995833333333334 0.002380952380952381 0  0.5041666666666667 0.002380952380952381 0  0.50875 0.002380952380952381 0  0.5133333333333334 0.002380952380952381 0  0.5179166666666667 0.002380952380952381 0  0.5225 0.002380952380952381 0  0.5270833333333333 0.002380952380952381 0  0.5316666666666667 0.002380952380952381 0  0.53625 0.002380952380952381 0  0.5408333333333333 0.002380952380952381 0  0.5454166666666667 0.002380952380952381 0  0.55 0.002380952380952381 0  0.5545833333333333 0.002380952380952381 0  0.5591666666666667 0.002380952380952381 0  0.5637500000000001 0.002380952380952381 0  0.5683333333333334 0.002380952380952381 0  0.5729166666666666 0.002380952380952381 0  0.5775 0.002380952380952381 0  0.5820833333333334 0.002380952380952381 0  0.5866666666666667 0.002380952380952381 0  0.5912499999999999 0.002380952380952381 0  0.5958333333333334 0.002380952380952381 0  0.6004166666666667 0.002380952380952381 0  0.605 0.002380952380952381 0  0.6095833333333334 0.002380952380952381 0  0.6141666666666667 0.002380952380952381 0  0.61875 0.002380952380952381 0  0.6233333333333333 0.002380952380952381 0  0.6279166666666667 0.002380952380952381 0  0.6325000000000001 0.002380952380952381 0  0.6370833333333333 0.002380952380952381 0  0.6416666666666666 0.002380952380952381 0  0.64625 0.002380952380952381 0  0.6508333333333334 0.002380952380952381 0  0.6554166666666666 0.002380952380952381 0  0.6599999999999999 0.002380952380952381 0  0.6645833333333334 0.002380952380952381 0  0.6691666666666667 0.002380952380952381 0  0.67375 0.002380952380952381 0  0.6783333333333333 0.002380952380952381 0  0.6829166666666667 0.002380952380952381 0  0.6875 0.002380952380952381 0  0.6920833333333333 0.002380952380952381 0  0.6966666666666667 0.002380952380952381 0  0.70125 0.002380952380952381 0  0.7058333333333333 0.002380952380952381 0  0.7104166666666667 0.002380952380952381 0  0.7150000000000001 0.002380952380952381 
[...]
<PointData  Scalars="pressure"> 
<DataArray  type="Float64"  Name="pressure"  format="ascii">1.3857884266489325e+04  1.3695453425611509e+04  1.3541633705690276e+04  1.3389015587758488e+04  1.3237047730685103e+04  1.3085400629872860e+04  1.2933954606871363e+04  1.2782642016196351e+04  1.2631423261207696e+04  1.2480272938465268e+04  1.2329173895981316e+04  1.2178114063253135e+04  1.2027084676519939e+04  1.1876079215080834e+04  1.1725092732346720e+04  1.1574121417412780e+04  1.1423162297683248e+04  1.1272213031203139e+04  1.1121271757986458e+04  1.0970336991294122e+04  1.0819407536669656e+04  1.0668482430707751e+04  1.0517560894139890e+04  1.0366642295499605e+04  1.0215726122735961e+04  1.0064811960888896e+04  9.9138994744528718e+03  9.7629883934153622e+03  9.6120785022139444e+03  9.4611696310441912e+03  9.3102616490901801e+03  9.1593544593562383e+03  9.0084479948616063e+03  8.8575422160267008e+03  8.7066371091352103e+03  8.5557326858048618e+03  8.4048289834440584e+03  8.2539260667144681e+03  8.1030240300639025e+03  7.9521230014416151e+03  7.8012231473628517e+03  7.6503246795543673e+03  7.4994278634921056e+03  7.3485330292422223e+03  7.1976405851441641e+03  7.0467510350394496e+03  6.8958649999636364e+03  6.7449832454959824e+03  6.5941067163143653e+03  6.4432365799386043e+03  6.2923742821405021e+03  6.1415216169557971e+03  5.9906808143469207e+03  5.8398546475082221e+03  5.6890465574122127e+03  5.5382607789704070e+03  5.3875024149913761e+03  5.2367772832280898e+03  5.0860912505755487e+03  4.9354462957235846e+03  4.7848365678135360e+03  4.6341679798276255e+03  4.4836847445801395e+03  4.3261998939578962e+03  3.0454144026104691e+03  2.9459332690648462e+03  2.8896825836823286e+03  2.8517517381404537e+03  2.8247842577054807e+03  2.7972254510519865e+03  2.7692775855084478e+03  2.7412266091528554e+03  2.7131082795875413e+03  2.6849494488677128e+03  2.6567633062796749e+03  2.6285580488020269e+03  2.6003389487424902e+03  2.5721095772807457e+03  2.5438724353125917e+03  2.5156293231562381e+03  2.4873815660267719e+03  2.4591301576785809e+03  2.4308758549696886e+03  2.4026192419066265e+03  2.3743607740955777e+03  2.3461008102693290e+03  2.3178396350829339e+03  2.2895774758826278e+03  2.2613145152328016e+03  2.2330509004033038e+03  2.2047867506425478e+03  2.1765221628132067e+03  2.1482572158002272e+03  2.1199919739867937e+03  2.0917264900146456e+03  2.0634608069893420e+03  2.0351949602511820e+03  2.0069289788035271e+03  1.9786628864690867e+03  1.9503967028288682e+03  1.9221304439866467e+03  1.8938641231927099e+03  1.8655977513537418e+03  1.8373313374502309e+03  1.8090648888786206e+03  1.7807984117320575e+03  1.7525319110309663e+03  1.7242653909125358e+03  1.6959988547865535e+03  1.6677323054636079e+03  1.6394657452606207e+03  1.6111991760877272e+03  1.5829325995198474e+03  1.5546660168556411e+03  1.5263994291660872e+03  1.4981328373345327e+03  1.4698662420897049e+03  1.4415996440329338e+03  1.4133330436606118e+03  1.3850664413827280e+03  1.3567998375381749e+03  1.3285332324073963e+03  1.3002666262228493e+03  1.2720000191776860e+03  1.2437334114329567e+03  1.2154668031236181e+03  1.1872001943635692e+03  1.1589335852499050e+03  1.1306669758665369e+03  1.1024003662873263e+03  1.0741337565788451e+03  1.0458671468028690e+03  1.0176005370186873e+03  9.8933392728533124e+02  9.6106731766380449e+02  9.3280070821938830e+02  9.0453409902412875e+02  8.7626749015960127e+02  8.4800088172006849e+02  8.1973427381616068e+02  7.9146766657925093e+02  7.6320106016672048e+02  7.3493445476837690e+02  7.0666785061433688e+02  6.7840124798480690e+02  6.5013464722232186e+02  6.2186804874718666e+02  5.9360145307712935e+02  5.6533486085259551e+02  5.3706827286965131e+02  5.0880169012332601e+02  4.8053511386553453e+02  4.5226854568372016e+02  4.2400198760956056e+02  3.9573544227225341e+02  3.6746891311956927e+02  3.3920240474475776e+02  3.1093592338374731e+02  2.8266947769666814e+02  2.5440308003592915e+02  2.2613674864160137e+02  1.9787051120636951e+02  1.6960441451129213e+02  1.4133851892379511e+02  1.1307309739554650e+02  8.4807248962150027e+01  5.6551537991726050e+01  2.8205951006787824e+01  7.9925960187108624e-01  1.3849601702803817e+04  1.3695502795918374e+04  1.3541449973153831e+04  1.3388963727812807e+04  1.3237013715981211e+04  1.3085379923630991e+04  1.2933940561683035e+04  1.2782632088213582e+04  1.2631415987266946e+04  1.2480267473075019e+04  1.2329169709954964e+04  1.2178110809769631e+04  1.2027082118885306e+04  1.1876077186457458e+04  1.1725091111954483e+04  1.1574120115861198e+04  1.1423161247585584e+04  1.1272212180973655e+04  1.1121271067623471e+04  1.0970336429440251e+04  1.0819407078516262e+04  1.0668482056470984e+04  1.0517560587932347e+04  1.0366642044481334e+04  1.0215725916466055e+04  1.0064811790823527e+04  9.9138993335515770e+03  9.7629882758281674e+03  9.6120784030294235e+03  9.4611695460834708e+03  9.3102615747355412e+03  9.1593543924055066e+03  9.0084479324011500e+03  8.8575421553171436e+03  8.7066370475047224e+03  8.5557326205453701e+03  8.4048289117058339e+03  8.2539259853945696e+03  8.1030239356834545e+03  7.9521228900063816e+03  7.8012230142004801e+03  7.6503245191202259e+03  7.4994276691337218e+03  7.3485327929094974e+03  7.1976402970290110e+03  7.0467506831236742e+03  6.8958645694478737e+03  6.7449827180752063e+03  6.5941060692579158e+03  6.4432357849273403e+03  6.2923733038185246e+03  6.1415204111885232e+03  5.9906793262892825e+03  5.8398528099029845e+03  5.6890442904326901e+03  5.5382579949021820e+03  5.3874990357499382e+03  5.2367733279159020e+03  5.0860868183288476e+03  4.9354434047605992e+03  4.7848332371468668e+03  4.6342435263880843e+03  4.4832092496001633e+03  4.3321579720368109e+03  4.1855547411076759e+03  4.0476351912909995e+03  3.9614905231689090e+03  2.8509435034183834e+03  2.8250204325490326e+03  2.7972287504579172e+03  2.7692918684022516e+03  2.7412329653929660e+03  2.7131125680227192e+03  2.6849523143256620e+03  2.6567653304884707e+03  2.6285595201146793e+03  2.6003400446071018e+03  2.5721104092290680e+03  2.5438730768543242e+03  2.5156298243031056e+03  2.4873819617620975e+03  2.4591304730534639e+03  2.4308761082902456e+03  2.4026194467874734e+03  2.3743609408182206e+03  2.3461009467019308e+03  2.3178397473163413e+03  2.2895775686787342e+03  2.2613145923462262e+03  2.2330509648159750e+03  2.2047868047373368e+03  2.1765222085042074e+03  2.1482572546317424e+03  2.1199920072093728e+03  2.0917265186440904e+03  2.0634608318529049e+03  2.0351949820240075e+03  2.0069289980376097e+03  1.9786629036164013e+03  1.9503967182599522e+03  1.9221304580055785e+03  1.8938641360492443e+03  1.8655977632531553e+03  1.8373313485613405e+03  1.8090648993403238e+03  1.7807984216586826e+03  1.7525319205166461e+03  1.7242654000347964e+03  1.6959988636092569e+03  1.6677323140393701e+03  1.6394657536327963e+03  1.6111991842920440e+03  1.5829326075857500e+03  1.5546660248073949e+03  1.5263994370236908e+03  1.4981328451144655e+03  1.4698662498055444e+03  1.4415996516958648e+03  1.4133330512798429e+03  1.3850664489658359e+03  1.3567998450913892e+03  1.3285332399358292e+03  1.3002666337306900e+03  1.2720000266683548e+03  1.2437334189092330e+03  1.2154668105877445e+03  1.1872002018173348e+03  1.1589335926947119e+03  1.1306669833034528e+03  1.1024003737171247e+03  1.0741337640020326e+03  1.0458671542197046e+03  1.0176005444291910e+03  9.8933393468928546e+02  9.6106732506074241e+02  9.3280071560857664e+02  9.0453410640453671e+02  8.7626749752985916e+02  8.4800088907840973e+02  8.1973428116034836e+02  7.9146767390648108e+02  7.6320106747349962e+02  7.3493446205036298e+02  7.0666785786613605e+02  6.7840125519971161e+02  6.5013465439196614e+02  6.2186805586109608e+02  5.9360146012211965e+02  5.6533486781196120e+02  5.3706827972205394e+02  5.0880169684124758e+02  4.8053512041308227e+02  4.5226855201345268e+02  4.2400199365779520e+02  3.9573544795196005e+02  3.6746891830932685e+02  3.3920240927105721e+02  3.1093592699182318e+02  2.8266947999950520e+02  2.5440308043040514e+02  2.2613674608847512e+02  1.9787050431512978e+02  1.6960439734405975e+02  1.4133850850638791e+02  1.1307288684041437e+02  8.4808461685204307e+01  5.6540124273676369e+01  2.8309264634008876e+01  -4.3494475675973629e-02  1.3845932415225387e+04  1.3694002216844878e+04  1.3541070731158248e+04  1.3388762768828250e+04  1.3236901827199514e+04  1.3085308743837750e+04  1.2933892393562071e+04  1.2782597886125350e+04  1.2631390874886225e+04  1.2480248568009687e+04  1.2329155206360496e+04  1.2178099519494383e+04  1.2027073229206004e+04  1.1876070123447942e+04  1.1725085459537977e+04  1.1574115565750244e+04  1.1423157567171187e+04  1.1272209192061388e+04  1.1121268631952777e+04  1.0970334438575575e+04  1.0819405446632294e+04  1.0668480715100539e+04  1.0517559482074288e+04  1.0366641129669559e+04  1.0215725156529526e+04  1.0064811156150872e+04  9.9138987997289423e+03  9.7629878225560660e+03  9.6120780132495765e+03  9.4611692052641865e+03  9.3102612702763618e+03  9.1593541131303700e+03  9.0084476681154320e+03  8.8575418964079108e+03  8.7066367845662844e+03  8.5557323440137370e+03  8.4048286114862258e+03  8.2539256504656569e+03  8.1030235536607997e+03  7.9521224466449621e+03  7.8012224928126070e+03  7.6503238998797679e+03  7.4994269282302275e+03  7.3485319015058003e+03  7.1976392199623324e+03  7.0467493772724893e+03  6.8958629816637467e+03  6.7449807825505086e+03  6.5941037041689879e+03  6.4432328881662970e+03  6.2923697476299549e+03  6.1415160356220440e+03  5.9906739317270794e+03  5.8398461499384475e+03  5.6890360690797033e+03  5.5382478792123065e+03  5.3874867176101616e+03  5.2367587045409127e+03  5.0860706388857643e+03  4.9354286785866843e+03  4.7848360660805865e+03  4.6342689256709928e+03  4.4836810333083213e+03  4.3338438001775130e+03  4.1872045955774138e+03  4.0401838269490295e+03  2.8825409362617756e+03  2.8531484412792006e+03  2.8251166009538470e+03  2.7973207548349374e+03  2.7693290938460609e+03  2.7412558179219991e+03  2.7131270424834520e+03  2.6849621572575716e+03  2.6567722812213501e+03  2.6285645784692165e+03  2.6003438108395057e+03  2.5721132649291139e+03  2.5438752741395178e+03  2.5156315352451402e+03  2.4873833070095575e+03  2.4591315391751859e+03  2.4308769586536982e+03  2.4026201285883481e+03  2.3743614897417751e+03  2.3461013900859207e+03  2.3178401063423075e+03  2.2895778599193040e+03  2.2613148288769407e+03  2.2330511570271638e+03  2.2047869609357917e+03  2.1765223353651527e+03  2.1482573575425381e+03  2.1199920905338013e+03  2.0917265859275949e+03  2.0634608859833766e+03  2.0351950253587190e+03  2.0069290325041006e+03  1.9786629307931239e+03  1.9503967394410599e+03  1.9221304742531975e+03  1.8938641482357982e+03  1.8655977720957378e+03  1.8373313546497061e+03  1.8090649031597270e+03  1.7807984236085479e+03  1.7525319209258516e+03  1.7242653991742061e+03  1.6959988617019981e+03  1.6677323112692795e+03  1.6394657501513548e+03  1.6111991802240868e+03  1.5829326030341565e+03  1.5546660198569532e+03  1.5263994317442769e+03  1.4981328395636617e+03  1.4698662440307937e+03  1.4415996457362469e+03  1.4133330451675354e+03  1.3850664427273168e+03  1.3567998387484242e+03  1.3285332335062878e+03  1.3002666272292101e+03  1.2720000201068906e+03  1.2437334122975008e+03  1.2154668039335841e+03  1.1872001951270031e+03  1.1589335859731159e+03  1.1306669765543327e+03  1.1024003669431913e+03  1.0741337572050688e+03  1.0458671474006305e+03  1.0176005375880965e+03  9.8933392782543035e+02  9.6106731817252444e+02  9.3280070869346628e+02  9.0453409945897386e+02  8.7626749054910613e+02  8.4800088205635586e+02  8.1973427408925261e+02  7.9146766677663970e+02  7.6320106027281997e+02  7.3493445476381748e+02  7.0666785047505937e+02  6.7840124768089163e+02  6.5013464671646079e+02  6.2186804799267554e+02  5.9360145201519254e+02  5.6533485940878109e+02  5.3706827094889218e+02  5.0880168760307026e+02  4.8053511058601106e+02  4.5226854143387106e+02  4.2400198210626735e+02  3.9573543512892394e+02  3.6746890379737624e+02  3.3920239247470778e+02  3.1093590703805813e+02  2.8266945556810720e+02  2.5440304944672747e+02  2.2613670518581662e+02  1.9787044747012871e+02  1.6960431551406134e+02  1.4133836851733196e+02  1.1307274709008446e+02  8.4807457140459533e+01  5.6544055774776311e+01  2.8285121435700638e+01  5.6319887887733592e-03  1.3843760935917653e+04  1.3692574038802350e+04  1.3540461737093852e+04  1.3388454677088837e+04  1.3236719512205093e+04  1.3085191475252886e+04  1.2933812118206357e+04  1.2782540528168243e+04  1.2631348575500433e+04  1.2480216627632659e+04  1.2329130648310098e+04  1.2178080370860853e+04  1.2027058132915787e+04  1.1876058117105636e+04  1.1725075843146957e+04  1.1574107819317940e+04  1.1423151297549610e+04  1.1272204097578466e+04  1.1121264478232582e+04  1.0970331041603593e+04  1.0819402660635982e+04  1.0668478423706169e+04  1.0517557591740775e+04  1.0366639564735213e+04  1.0215723855421134e+04  1.0064810068442972e+04  9.9138978838330968e+03  9.7629870438815906e+03  9.6120773427196236e+03  9.4611686181002897e+03  9.3102607449850493e+03  9.1593536306398983e+03  9.0084472110207171e+03  8.8575414482886699e+03  8.7066363293479280e+03  8.5557318653430357e+03  8.4048280920947454e+03  8.2539250714932332e+03  8.1030228939089475e+03  7.9521216817260793e+03  7.8012215941543573e+03  7.6503228335351150e+03  7.4994256534308897e+03  7.3485303688798131e+03  7.1976373693132200e+03  7.0467471347868432e+03  6.8958602563740687e+03  6.7449774618303809e+03  6.5940996479804717e+03  6.4432279217266869e+03  6.2923636521513554e+03  6.1415085368958453e+03  5.9906646868155094e+03  5.8398347336994075e+03  5.6890219661930614e+03  5.5382304982141686e+03  5.3874654708514372e+03  5.2367332784499040e+03  5.0860418044281787e+03  4.9354009050826935e+03  4.7848232009816847e+03  4.6343282910787411e+03  4.4840517545005878e+03  4.3346484091023594e+03  4.1870703741904090e+03  4.0374339383775755e+03  2.8817774093030234e+03  2.8538185077611447e+03  2.8254299598280199e+03  2.7974310649556505e+03  2.7693911872921581e+03  2.7412925933506822e+03  2.7131510238984633e+03  2.6849785651602760e+03  2.6567839382233306e+03  2.6285730932022298e+03  2.6003501677574845e+03  2.5721180944502662e+03  2.5438789954828831e+03  2.5156344358645588e+03  2.4873855892040278e+03  2.4591333485356627e+03  2.4308784020147241e+03  2.4026212856834036e+03  2.3743624209623654e+03  2.3461021417638508e+03  2.3178407144197095e+03  2.2895783525465072e+03  2.2613152282832830e+03  2.2330514808897287e+03  2.2047872233955086e+03  2.1765225477912386e+03  2.1482575291146059e+03  2.1199922286899914e+03  2.0917266967129476e+03  2.0634609743229889e+03  2.0351950952735699e+03  2.0069290872826878e+03  1.9786629731287551e+03  1.9503967715421975e+03  1.9221304979325225e+03  1.8938641649823514e+03  1.8655977831335249e+03  1.8373313609854313e+03  1.8090649056217499e+03  1.7807984228787343e+03  1.7525319175656577e+03  1.7242653936460538e+03  1.6959988543868235e+03  1.6677323024809421e+03  1.6394657401484822e+03  1.6111991692198108e+03  1.5829325912041279e+03  1.5546660073459359e+03  1.5263994186715747e+03  1.4981328260275891e+03  1.4698662301123552e+03  1.4415996315021669e+03  1.4133330306727541e+03  1.3850664280170417e+03  1.3567998238598202e+03  1.3285332184698648e+03  1.3002666120699632e+03  1.2720000048452305e+03  1.2437333969500173e+03  1.2154667885136657e+03  1.1872001796453349e+03  1.1589335704380778e+03  1.1306669609723124e+03  1.1024003513188211e+03  1.0741337415413966e+03  1.0458671316992322e+03  1.0176005218491307e+03  9.8933391204763984e+02  9.6106730235318378e+02  9.3280069282826798e+02  9.0453408354185376e+02  8.7626747457199406e+02  8.4800086600884299e+02  8.1973425795815376e+02  7.9146765054542868e+02  7.6320104392090684e+02  7.3493443826562066e+02  7.0666783379881383e+02  6.7840123078711053e+02  6.5013462955593161e+02  6.2186803050382764e+02  5.9360143412060006e+02  5.6533484101045212e+02  5.3706825192183567e+02  5.0880166778636556e+02  4.8053508977018743e+02  4.5226851934272736e+02  4.2400195837012132e+02  3.9573540924433053e+02  3.6746887506490958e+02  3.3920235990010747e+02  3.1093586917020417e+02  2.8266941022358185e+02  2.5440299322520247e+02  2.2613663255682513e+02  1.9787034912921663e+02  1.6960417398034605e+02  1.4133815602694739e+02  1.1307236826609044e+02  8.4806939087673001e+01  5.6542509715731406e+01  2.8277085990225366e+01  -4.2735393646256288e-04  1.3842247778708996e+04  1.3691372860620002e+04  1.3539778356358378e+04  1.3388070013074845e+04  1.3236482270657127e+04  1.3085034829036173e+04  1.2933703310980794e+04  1.2782462040641225e+04  1.2631290328810848e+04  1.2480172454255189e+04  1.2329096581008516e+04  1.2178053750113426e+04  1.2027037113824817e+04  1.1876041382852669e+04  1.1725062431140619e+04  1.1574097011678467e+04  1.1423142549814720e+04  1.1272196990921910e+04  1.1121258686601290e+04  1.0970326308585833e+04  1.0819398782836781e+04  1.0668475238573417e+04  1.0517554968498265e+04  1.0366637397525086e+04  1.0215722058043737e+04  1.0064808570268673e+04  9.9138966265845465e+03  9.7629859790689497e+03  9.6120764295687386e+03  9.4611678218538873e+03  9.3102600354850456e+03  9.1593529811187473e+03  9.0084465970434958e+03  8.8575408467971902e+03  8.7066357177643185e+03  8.5557312206938077e+03  8.4048273901175289e+03  8.2539242856874171e+03  8.1030219944882010e+03  7.9521206344249304e+03  7.8012203588322782e+03  7.6503213625088511e+03  7.4994238894483524e+03  7.3485282426248568e+03  7.1976347962983627e+03  7.0467440114477758e+03  6.8958564551232557e+03  6.7449728247552594e+03  6.5940939787862999e+03  6.4432209754365485e+03  6.2923551220237523e+03  6.1414980381064333e+03  5.9906517369379026e+03  5.8398187315703717e+03  5.6890021750443902e+03  5.5382060502721879e+03  5.3874354401639894e+03  5.2366969485126610e+03  5.0859994813474268e+03  4.9353561438585111e+03  4.7847891669058081e+03  4.6343516162766482e+03  4.4842257304696714e+03  4.3348481252566762e+03  4.1865709398673307e+03  4.0355921425383081e+03  2.8811495036553497e+03  2.8540665647846563e+03  2.8256852391756765e+03  2.7975651223201780e+03  2.7694682262650817e+03  2.7413410098501295e+03  2.7131831679038942e+03  2.6850008610694408e+03  2.6567999118449752e+03  2.6285848334231305e+03  2.6003589745913459e+03  2.5721248114087730e+03  2.5438841886246141e+03  2.5156384960592727e+03  2.4873887930511360e+03  2.4591358959889699e+03  2.4308804403397799e+03  2.4026229251244881e+03  2.3743637452339908e+03  2.3461032152289299e+03  2.3178415870981944e+03  2.2895790636740544e+03  2.2613158088823498e+03  2.2330519556561208e+03  2.2047876121024724e+03  2.1765228663481794e+03  2.1482577903749070e+03  2.1199924430739957e+03  2.0917268726929929e+03  2.0634611188042377e+03  2.0351952138952420e+03  2.0069291846578685e+03  1.9786630530363639e+03  1.9503968370813982e+03  1.9221305516474267e+03  1.8938642089630757e+03  1.8655978190983305e+03  1.8373313903476389e+03  1.8090649295443770e+03  1.7807984423191740e+03  1.7525319333122679e+03  1.7242654063481625e+03  1.6959988645793524e+03  1.6677323106046319e+03  1.6394657465665205e+03  1.6111991742315031e+03  1.5829325950561470e+03  1.5546660102415808e+03  1.5263994207783924e+03  1.4981328274836490e+03  1.4698662310314182e+03  1.4415996319779410e+03  1.4133330307823962e+03  1.3850664278240426e+03  1.3567998234163749e+03  1.3285332178188221e+03  1.3002666112464253e+03  1.2720000038778651e+03  1.2437333958621239e+03  1.2154667873240469e+03  1.1872001783689984e+03  1.1589335690867945e+03  1.1306669595550543e+03  1.1024003498420957e+03  1.0741337400094874e+03  1.0458671301143559e+03  1.0176005202115144e+03  9.8933391035552472e+02  9.6106730060274867e+02  9.3280069101347385e+02  9.0453408165419762e+02  8.7626747260016271e+02  8.4800086393824358e+02  8.1973425577030548e+02  7.9146764821717420e+02  7.6320104142340347e+02  7.3493443556304601e+02  7.0666783084670988e+02  6.7840122753024264e+02  6.5013462592550923e+02  6.2186802641385998e+02  5.9360142946306280e+02  5.6533483564879748e+02  5.3706824568215302e+02  5.0880166044515141e+02  4.8053508103713011e+02  4.5226850883601730e+02  4.2400194