<?xml version="1.0"?>
<VTKFile type="UnstructuredGrid"  version="0.1"  >
<UnstructuredGrid>
<Piece  NumberOfPoints="21400" NumberOfCells="42336">
<Points>
<DataArray  type="Float64"  NumberOfComponents="3"  format="ascii">0 0 0  0.004583333333333333 0 0  0.009166666666666667 0 0  0.01375 0 0  0.01833333333333333 0 0  0.02291666666666667 0 0  0.0275 0 0  0.03208333333333334 0 0  0.03666666666666667 0 0  0.04125 0 0  0.04583333333333334 0 0  0.05041666666666667 0 0  0.055 0 0  0.05958333333333334 0 0  0.06416666666666668 0 0  0.06875000000000001 0 0  0.07333333333333333 0 0  0.07791666666666666 0 0  0.08249999999999999 0 0  0.08708333333333333 0 0  0.09166666666666667 0 0  0.09625000000000002 0 0  0.1008333333333333 0 0  0.1054166666666667 0 0  0.11 0 0  0.1145833333333333 0 0  0.1191666666666667 0 0  0.12375 0 0  0.1283333333333334 0 0  0.1329166666666667 0 0  0.1375 0 0  0.1420833333333333 0 0  0.1466666666666667 0 0  0.15125 0 0  0.1558333333333333 0 0  0.1604166666666667 0 0  0.165 0 0  0.1695833333333333 0 0  0.1741666666666667 0 0  0.17875 0 0  0.1833333333333333 0 0  0.1879166666666667 0 0  0.1925 0 0  0.1970833333333333 0 0  0.2016666666666667 0 0  0.20625 0 0  0.2108333333333333 0 0  0.2154166666666666 0 0  0.22 0 0  0.2245833333333334 0 0  0.2291666666666667 0 0  0.23375 0 0  0.2383333333333333 0 0  0.2429166666666667 0 0  0.2475 0 0  0.2520833333333333 0 0  0.2566666666666667 0 0  0.26125 0 0  0.2658333333333334 0 0  0.2704166666666666 0 0  0.275 0 0  0.2795833333333334 0 0  0.2841666666666667 0 0  0.28875 0 0  0.2933333333333333 0 0  0.2979166666666667 0 0  0.3025 0 0  0.3070833333333334 0 0  0.3116666666666666 0 0  0.31625 0 0  0.3208333333333333 0 0  0.3254166666666667 0 0  0.33 0 0  0.3345833333333333 0 0  0.3391666666666667 0 0  0.34375 0 0  0.3483333333333333 0 0  0.3529166666666667 0 0  0.3575 0 0  0.3620833333333333 0 0  0.3666666666666667 0 0  0.37125 0 0  0.3758333333333334 0 0  0.3804166666666667 0 0  0.3850000000000001 0 0  0.3895833333333333 0 0  0.3941666666666667 0 0  0.39875 0 0  0.4033333333333334 0 0  0.4079166666666666 0 0  0.4125 0 0  0.4170833333333334 0 0  0.4216666666666667 0 0  0.42625 0 0  0.4308333333333333 0 0  0.4354166666666667 0 0  0.44 0 0  0.4445833333333333 0 0  0.4491666666666667 0 0  0.45375 0 0  0.4583333333333333 0 0  0.4629166666666666 0 0  0.4675 0 0  0.4720833333333334 0 0  0.4766666666666667 0 0  0.4812500000000001 0 0  0.4858333333333333 0 0  0.4904166666666667 0 0  0.495 0 0  0.4995833333333334 0 0  0.5041666666666667 0 0  0.50875 0 0  0.5133333333333334 0 0  0.5179166666666667 0 0  0.5225 0 0  0.5270833333333333 0 0  0.5316666666666667 0 0  0.53625 0 0  0.5408333333333333 0 0  0.5454166666666667 0 0  0.55 0 0  0.5545833333333333 0 0  0.5591666666666667 0 0  0.5637500000000001 0 0  0.5683333333333334 0 0  0.5729166666666666 0 0  0.5775 0 0  0.5820833333333334 0 0  0.5866666666666667 0 0  0.5912499999999999 0 0  0.5958333333333334 0 0  0.6004166666666667 0 0  0.605 0 0  0.6095833333333334 0 0  0.6141666666666667 0 0  0.61875 0 0  0.6233333333333333 0 0  0.6279166666666667 0 0  0.6325000000000001 0 0  0.6370833333333333 0 0  0.6416666666666666 0 0  0.64625 0 0  0.6508333333333334 0 0  0.6554166666666666 0 0  0.6599999999999999 0 0  0.6645833333333334 0 0  0.6691666666666667 0 0  0.67375 0 0  0.6783333333333333 0 0  0.6829166666666667 0 0  0.6875 0 0  0.6920833333333333 0 0  0.6966666666666667 0 0  0.70125 0 0  0.7058333333333333 0 0  0.7104166666666667 0 0  0.7150000000000001 0 0  0.7195833333333334 0 0  0.7241666666666666 0 0  0.72875 0 0  0.7333333333333334 0 0  0.7379166666666667 0 0  0.7425 0 0  0.7470833333333333 0 0  0.7516666666666667 0 0  0.75625 0 0  0.7608333333333334 0 0  0.7654166666666666 0 0  0.7700000000000001 0 0  0 0.002380952380952381 0  0.004583333333333333 0.002380952380952381 0  0.009166666666666667 0.002380952380952381 0  0.01375 0.002380952380952381 0  0.01833333333333333 0.002380952380952381 0  0.02291666666666667 0.002380952380952381 0  0.0275 0.002380952380952381 0  0.03208333333333334 0.002380952380952381 0  0.03666666666666667 0.002380952380952381 0  0.04125 0.002380952380952381 0  0.04583333333333334 0.002380952380952381 0  0.05041666666666667 0.002380952380952381 0  0.055 0.002380952380952381 0  0.05958333333333334 0.002380952380952381 0  0.06416666666666668 0.002380952380952381 0  0.06875000000000001 0.002380952380952381 0  0.07333333333333333 0.002380952380952381 0  0.07791666666666666 0.002380952380952381 0  0.08249999999999999 0.002380952380952381 0  0.08708333333333333 0.002380952380952381 0  0.09166666666666667 0.002380952380952381 0  0.09625000000000002 0.002380952380952381 0  0.1008333333333333 0.002380952380952381 0  0.1054166666666667 0.002380952380952381 0  0.11 0.002380952380952381 0  0.1145833333333333 0.002380952380952381 0  0.1191666666666667 0.002380952380952381 0  0.12375 0.002380952380952381 0  0.1283333333333334 0.002380952380952381 0  0.1329166666666667 0.002380952380952381 0  0.1375 0.002380952380952381 0  0.1420833333333333 0.002380952380952381 0  0.1466666666666667 0.002380952380952381 0  0.15125 0.002380952380952381 0  0.1558333333333333 0.002380952380952381 0  0.1604166666666667 0.002380952380952381 0  0.165 0.002380952380952381 0  0.1695833333333333 0.002380952380952381 0  0.1741666666666667 0.002380952380952381 0  0.17875 0.002380952380952381 0  0.1833333333333333 0.002380952380952381 0  0.1879166666666667 0.002380952380952381 0  0.1925 0.002380952380952381 0  0.1970833333333333 0.002380952380952381 0  0.2016666666666667 0.002380952380952381 0  0.20625 0.002380952380952381 0  0.2108333333333333 0.002380952380952381 0  0.2154166666666666 0.002380952380952381 0  0.22 0.002380952380952381 0  0.2245833333333334 0.002380952380952381 0  0.2291666666666667 0.002380952380952381 0  0.23375 0.002380952380952381 0  0.2383333333333333 0.002380952380952381 0  0.2429166666666667 0.002380952380952381 0  0.2475 0.002380952380952381 0  0.2520833333333333 0.002380952380952381 0  0.2566666666666667 0.002380952380952381 0  0.26125 0.002380952380952381 0  0.2658333333333334 0.002380952380952381 0  0.2704166666666666 0.002380952380952381 0  0.275 0.002380952380952381 0  0.2795833333333334 0.002380952380952381 0  0.2841666666666667 0.002380952380952381 0  0.28875 0.002380952380952381 0  0.2933333333333333 0.002380952380952381 0  0.2979166666666667 0.002380952380952381 0  0.3025 0.002380952380952381 0  0.3070833333333334 0.002380952380952381 0  0.3116666666666666 0.002380952380952381 0  0.31625 0.002380952380952381 0  0.3208333333333333 0.002380952380952381 0  0.3254166666666667 0.002380952380952381 0  0.33 0.002380952380952381 0  0.3345833333333333 0.002380952380952381 0  0.3391666666666667 0.002380952380952381 0  0.34375 0.002380952380952381 0  0.3483333333333333 0.002380952380952381 0  0.3529166666666667 0.002380952380952381 0  0.3575 0.002380952380952381 0  0.3620833333333333 0.002380952380952381 0  0.3666666666666667 0.002380952380952381 0  0.37125 0.002380952380952381 0  0.3758333333333334 0.002380952380952381 0  0.3804166666666667 0.002380952380952381 0  0.3850000000000001 0.002380952380952381 0  0.3895833333333333 0.002380952380952381 0  0.3941666666666667 0.002380952380952381 0  0.39875 0.002380952380952381 0  0.4033333333333334 0.002380952380952381 0  0.4079166666666666 0.002380952380952381 0  0.4125 0.002380952380952381 0  0.4170833333333334 0.002380952380952381 0  0.4216666666666667 0.002380952380952381 0  0.42625 0.002380952380952381 0  0.4308333333333333 0.002380952380952381 0  0.4354166666666667 0.002380952380952381 0  0.44 0.002380952380952381 0  0.4445833333333333 0.002380952380952381 0  0.4491666666666667 0.002380952380952381 0  0.45375 0.002380952380952381 0  0.4583333333333333 0.002380952380952381 0  0.4629166666666666 0.002380952380952381 0  0.4675 0.002380952380952381 0  0.4720833333333334 0.002380952380952381 0  0.4766666666666667 0.002380952380952381 0  0.4812500000000001 0.002380952380952381 0  0.4858333333333333 0.002380952380952381 0  0.4904166666666667 0.002380952380952381 0  0.495 0.002380952380952381 0  0.4995833333333334 0.002380952380952381 0  0.5041666666666667 0.002380952380952381 0  0.50875 0.002380952380952381 0  0.5133333333333334 0.002380952380952381 0  0.5179166666666667 0.002380952380952381 0  0.5225 0.002380952380952381 0  0.5270833333333333 0.002380952380952381 0  0.5316666666666667 0.002380952380952381 0  0.53625 0.002380952380952381 0  0.5408333333333333 0.002380952380952381 0  0.5454166666666667 0.002380952380952381 0  0.55 0.002380952380952381 0  0.5545833333333333 0.002380952380952381 0  0.5591666666666667 0.002380952380952381 0  0.5637500000000001 0.002380952380952381 0  0.5683333333333334 0.002380952380952381 0  0.5729166666666666 0.002380952380952381 0  0.5775 0.002380952380952381 0  0.5820833333333334 0.002380952380952381 0  0.5866666666666667 0.002380952380952381 0  0.5912499999999999 0.002380952380952381 0  0.5958333333333334 0.002380952380952381 0  0.6004166666666667 0.002380952380952381 0  0.605 0.002380952380952381 0  0.6095833333333334 0.002380952380952381 0  0.6141666666666667 0.002380952380952381 0  0.61875 0.002380952380952381 0  0.6233333333333333 0.002380952380952381 0  0.6279166666666667 0.002380952380952381 0  0.6325000000000001 0.002380952380952381 0  0.6370833333333333 0.002380952380952381 0  0.6416666666666666 0.002380952380952381 0  0.64625 0.002380952380952381 0  0.6508333333333334 0.002380952380952381 0  0.6554166666666666 0.002380952380952381 0  0.6599999999999999 0.002380952380952381 0  0.6645833333333334 0.002380952380952381 0  0.6691666666666667 0.002380952380952381 0  0.67375 0.002380952380952381 0  0.6783333333333333 0.002380952380952381 0  0.6829166666666667 0.002380952380952381 0  0.6875 0.002380952380952381 0  0.6920833333333333 0.002380952380952381 0  0.6966666666666667 0.002380952380952381 0  0.70125 0.002380952380952381 0  0.7058333333333333 0.002380952380952381 0  0.7104166666666667 0.002380952380952381 0  0.7150000000000001 0.002380952380952381 
[...]
<PointData  Scalars="pressure"> 
<DataArray  type="Float64"  Name="pressure"  format="ascii">1.4352555161481740e+04  1.4190124320770352e+04  1.4036304601381036e+04  1.3883686484370097e+04  1.3731718628640900e+04  1.3580071529646148e+04  1.3428625509002966e+04  1.3277312921314720e+04  1.3126094170052258e+04  1.2974943851913888e+04  1.2823844815082930e+04  1.2672784989266696e+04  1.2521755610961198e+04  1.2370750159778680e+04  1.2219763689511059e+04  1.2068792389716695e+04  1.1917833288362250e+04  1.1766884044175367e+04  1.1615942797998205e+04  1.1465008064096084e+04  1.1314078649230511e+04  1.1163153591472923e+04  1.1012232113345062e+04  1.0861313585550693e+04  1.0710397498669499e+04  1.0559483440929944e+04  1.0408571080691012e+04  1.0257660152623723e+04  1.0106750446841465e+04  9.9558418004175674e+03  9.8049340908696158e+03  9.6540272312982925e+03  9.5031211669534132e+03  9.3522158730691062e+03  9.2013113538682446e+03  9.0504076426879183e+03  8.8995048032256982e+03  8.7486029319537047e+03  8.5977021617963655e+03  8.4468026672214855e+03  8.2959046709549475e+03  8.1450084526015326e+03  7.9941143595416188e+03  7.8432228205822812e+03  7.6923343629787796e+03  7.5414496336197462e+03  7.3905694254005975e+03  7.2396947101160467e+03  7.0888266796127318e+03  6.9379667974995200e+03  6.7871168644757954e+03  6.6362791013954393e+03  6.4854562556634328e+03  6.3346517386487867e+03  6.1838698047589896e+03  6.0331157870355210e+03  5.8823964101091306e+03  5.7317202097269928e+03  5.5810980993461990e+03  5.4305441387400533e+03  5.2800765716585220e+03  5.1297192104929927e+03  4.9795031111963199e+03  4.8294690349824405e+03  4.6796639709713281e+03  4.5301629275279620e+03  4.3809510897704349e+03  4.2322167943488012e+03  4.0770979099738247e+03  2.8669956058771622e+03  2.7762502071576182e+03  2.7386414972037269e+03  2.7104926796394088e+03  2.6829079764146913e+03  2.6551343208036560e+03  2.6272765095723107e+03  2.5993268083539042e+03  2.5713065500145472e+03  2.5432318507626824e+03  2.5151156983178876e+03  2.4869678504978851e+03  2.4587955997905997e+03  2.4306044029062191e+03  2.4023983737788667e+03  2.3741806433155316e+03  2.3459536179210577e+03  2.3177191647848085e+03  2.2894787454099269e+03  2.2612335127307151e+03  2.2329843825255180e+03  2.2047320865398819e+03  2.1764772124622928e+03  2.1482202343408535e+03  2.1199615359672857e+03  2.0917014290256466e+03  2.0634401672989106e+03  2.0351779578748033e+03  2.0069149700441512e+03  1.9786513424083505e+03  1.9503871885850888e+03  1.9221226018086597e+03  1.8938576586527170e+03  1.8655924220523161e+03  1.8373269437635972e+03  1.8090612663701950e+03  1.7807954249229515e+03  1.7525294482820282e+03  1.7242633602168264e+03  1.6959971803084325e+03  1.6677309246906539e+03  1.6394646066590058e+03  1.6111982371714623e+03  1.5829318252604314e+03  1.5546653783718289e+03  1.5263989026442543e+03  1.4981324031389197e+03  1.4698658840290668e+03  1.4415993487560402e+03  1.4133328001579171e+03  1.3850662405755386e+03  1.3567996719399366e+03  1.3285330958444226e+03  1.3002665136040550e+03  1.2719999263047180e+03  1.2437333348436359e+03  1.2154667399628388e+03  1.1872001422768451e+03  1.1589335422955844e+03  1.1306669404434131e+03  1.1024003370749413e+03  1.0741337324882620e+03  1.0458671269360793e+03  1.0176005206351326e+03  9.8933391377429734e+02  9.6106730652165356e+02  9.3280069903078743e+02  9.0453409144656450e+02  8.7626748391061415e+02  8.4800087656672315e+02  8.1973426956636320e+02  7.9146766307458677e+02  7.6320105727655175e+02  7.3493445238497031e+02  7.0666784864884949e+02  6.7840124636397456e+02  6.5013464588572697e+02  6.2186804764500766e+02  5.9360145216828175e+02  5.6533486010320189e+02  5.3706827225177756e+02  5.0880168961394065e+02  4.8053511344564993e+02  4.5226854533768523e+02  4.2400198732447654e+02  3.9573544203749384e+02  3.6746891292638372e+02  3.3920240458594520e+02  3.1093592325338778e+02  2.8266947758990284e+02  2.5440307994877804e+02  2.2613674857081605e+02  1.9787051114931162e+02  1.6960441446583471e+02  1.4133851888824381e+02  1.1307309736857606e+02  8.4807248942755294e+01  5.6551537979181902e+01  2.8205951000645801e+01  7.9925960169544019e-01  1.4344272597750383e+04  1.4190173691030452e+04  1.4036120868795433e+04  1.3883634624370936e+04  1.3731684613877220e+04  1.3580050823335961e+04  1.3428611463735251e+04  1.3277302993238553e+04  1.3126086896000616e+04  1.2974938386391139e+04  1.2823840628897540e+04  1.2672781735591705e+04  1.2521753053095523e+04  1.2370748130876098e+04  1.2219762068781094e+04  1.2068791087756304e+04  1.1917832237769499e+04  1.1766883193346124e+04  1.1615942106908487e+04  1.1465007501361515e+04  1.1314078190009735e+04  1.1163153215942421e+04  1.1012231805569378e+04  1.0861313332631606e+04  1.0710397290095510e+04  1.0559483268071663e+04  1.0408570936404276e+04  1.0257660030932901e+04  1.0106750342682861e+04  9.9558417094277866e+03  9.8049340092074090e+03  9.6540271554906776e+03  9.5031210937587548e+03  9.3522157993508154e+03  9.2013112764735542e+03  9.0504075583266003e+03  8.8995047083435911e+03  8.7486028225957161e+03  8.5977020334532808e+03  8.4468025146538330e+03  8.2959044879862740e+03  8.1450082318715386e+03  7.9941140922074865e+03  7.8432224959532559e+03  7.6923339680649724e+03  7.5414491525701260e+03  7.3905688387972550e+03  7.2396939940805178e+03  7.0888258046645788e+03  6.9379657270851758e+03  6.7871155530541173e+03  6.6362774919211506e+03  6.4854542762443871e+03  6.3346492980587391e+03  6.1838667863519267e+03  6.0331120404147659e+03  5.8823917396384104e+03  5.7317143586170150e+03  5.5810907277453407e+03  5.4305347937271381e+03  5.2800646494194525e+03  5.1297039034543186e+03  4.9794834620620131e+03  4.8294432200266783e+03  4.6796344242825189e+03  4.5301129470797405e+03  4.3809312801428105e+03  4.2317215878662082e+03  4.0826955152367000e+03  3.9402465449665015e+03  3.8097341688048095e+03  2.7373154840832599e+03  2.7106703493766081e+03  2.6828924730104950e+03  2.6551493566983413e+03  2.6272859072838569e+03  2.5993345713326207e+03  2.5713124336790261e+03  2.5432363377060910e+03  2.5151191298740550e+03  2.4869704960467743e+03  2.4587976570265419e+03  2.4306060163292263e+03  2.4023996491244934e+03  2.3741816585633219e+03  2.3459544311645286e+03  2.3177198197798530e+03  2.2894792754744435e+03  2.2612339434983605e+03  2.2329847339067755e+03  2.2047323741333589e+03  2.1764774485821081e+03  2.1482204287734489e+03  2.1199616965355190e+03  2.0917015620140414e+03  2.0634402777777195e+03  2.0351780499494382e+03  2.0069150470489574e+03  1.9786514070583880e+03  1.9503872430959204e+03  1.9221226479914956e+03  1.8938576979904376e+03  1.8655924557605022e+03  1.8373269728397481e+03  1.8090612916335556e+03  1.7807954470468474e+03  1.7525294678201781e+03  1.7242633776248149e+03  1.6959971959612471e+03  1.6677309388970498e+03  1.6394646196732708e+03  1.6111982492030720e+03  1.5829318364819774e+03  1.5546653889255342e+03  1.5263989126473298e+03  1.4981324126879690e+03  1.4698658932037160e+03  1.4415993576219207e+03  1.4133328087691254e+03  1.3850662489766614e+03  1.3567996801677166e+03  1.3285331039291323e+03  1.3002665215706281e+03  1.2719999341736820e+03  1.2437333426318753e+03  1.2154667476842285e+03  1.1872001499427656e+03  1.1589335499153478e+03  1.1306669480246096e+03  1.1024003446237223e+03  1.0741337400095706e+03  1.0458671344338322e+03  1.0176005281123664e+03  9.8933392123328133e+02  9.6106731396397311e+02  9.3280070645740022e+02  9.0453409885783560e+02  8.7626749130632390e+02  8.4800088394605393e+02  8.1973427692785992e+02  7.9146767041609144e+02  7.6320106459510214e+02  7.3493445967666378e+02  7.0666785590865402e+02  6.7840125358548050e+02  6.5013465306081514e+02  6.2186805476340612e+02  5.9360145921697381e+02  5.6533486706561985e+02  5.3706827910669676e+02  5.0880169633393689e+02  4.8053511999490780e+02  4.5226855166882706e+02  4.2400199337387227e+02  3.9573544771815682e+02  3.6746891811692814e+02  3.3920240911289136e+02  3.1093592686199463e+02  2.8266947989317464e+02  2.5440308034360902e+02  2.2613674601797820e+02  1.9787050425830427e+02  1.6960439729878749e+02  1.4133850847098142e+02  1.1307288681355381e+02  8.4808461665888245e+01  5.6540124261185703e+01  2.8309264627869645e+01  -4.3494475664464037e-02  1.4340603310030065e+04  1.4188673111812552e+04  1.4035741626647741e+04  1.3883433665220904e+04  1.3731572724910540e+04  1.3579979643331339e+04  1.3428563295368667e+04  1.3277268790861319e+04  1.3126061783276788e+04  1.2974919480915842e+04  1.2823826124811003e+04  1.2672770444724012e+04  1.2521744162701383e+04  1.2370741067002795e+04  1.2219756415319758e+04  1.2068786536380649e+04  1.1917828555823562e+04  1.1766880202578564e+04  1.1615939668989848e+04  1.1465005507772739e+04  1.1314076554824343e+04  1.1163151870570626e+04  1.1012230694861477e+04  1.0861312411941455e+04  1.0710396523033898e+04  1.0559482624762826e+04  1.0408570392114018e+04  1.0257659564973592e+04  1.0106749937525989e+04  9.9558413499720737e+03  9.8049336821625202e+03  9.6540268488451838e+03  9.5031207963066954e+03  9.3522155002552190e+03  9.2013109648477875e+03  9.0504072228156019e+03  8.8995043366874743e+03  8.7486024011574627e+03  8.5977015466905450e+03  8.4468019445122281e+03  8.2959038131872876e+03  8.1450074270626255e+03  7.9941131269339467e+03  7.8432213334008866e+03  7.6923325635078008e+03  7.5414474514377098e+03  7.3905667742483656e+03  7.2396914839319006e+03  7.0888227474698915e+03  6.9379619970834956e+03  6.7871109935997101e+03  6.6362719068517072e+03  6.4854474184225883e+03  6.3346408540011707e+03  6.1838563553980721e+03  6.0330991062334706e+03  5.8823756309639812e+03  5.7316941949471784e+03  5.5810653444552436e+03  5.4305026405167664e+03  5.2800236582861107e+03  5.1296513437909762e+03  4.9794157876994441e+03  4.8293564415073615e+03  4.6795246799687975e+03  4.5299814738733949e+03  4.3807798374720815e+03  4.2319255514087199e+03  4.0847073438816124e+03  3.9352527236962865e+03  2.7728565102529146e+03  2.7388380291783333e+03  2.7104476559713712e+03  2.6829543575346979e+03  2.6551872821262814e+03  2.6273202354352225e+03  2.5993610155770098e+03  2.5713326384432194e+03  2.5432517033719205e+03  2.5151308768330782e+03  2.4869795464699696e+03  2.4588046897999247e+03  2.4306115266475208e+03  2.4024039993187453e+03  2.3741851158874656e+03  2.3459571947883333e+03  2.3177220397799824e+03  2.2894810661759502e+03  2.2612353928954744e+03  2.2329859103735448e+03  2.2047333312549295e+03  2.1764782286733916e+03  2.1482210654723931e+03  2.1199622167369503e+03  2.0917019873282275e+03  2.0634406256423440e+03  2.0351783344858636e+03  2.0069152797276522e+03  1.9786515972203440e+03  1.9503873983642548e+03  1.9221227745984984e+03  1.8938578010389133e+03  1.8655925394336448e+03  1.8373270405703940e+03  1.8090613462411825e+03  1.7807954908488002e+03  1.7525295027222078e+03  1.7242634051949401e+03  1.6959972174901188e+03  1.6677309554473629e+03  1.6394646321202633e+03  1.6111982582677474e+03  1.5829318427583910e+03  1.5546653929032145e+03  1.5263989147297141e+03  1.4981324132075724e+03  1.4698658924346098e+03  1.4415993557900117e+03  1.4133328060606154e+03  1.3850662455450167e+03  1.3567996761394058e+03  1.3285330994083552e+03  1.3002665166432082e+03  1.2719999289102705e+03  1.2437333370905897e+03  1.2154667419128207e+03  1.1872001439804062e+03  1.1589335437940836e+03  1.1306669417705612e+03  1.1024003382580577e+03  1.0741337335492924e+03  1.0458671278924121e+03  1.0176005215002440e+03  9.8933391455825188e+02  9.6106730723147405e+02  9.3280069967070631e+02  9.0453409201817374e+02  8.7626748441290442e+02  8.4800087699602102e+02  8.1973426991615747e+02  7.9146766333522964e+02  7.6320105743481429e+02  7.3493445242342762e+02  7.0666784854504613e+02  6.7840124608931262e+02  6.5013464540398957e+02  6.2186804691038890e+02  5.9360145112274847e+02  5.6533485867291301e+02  5.3706827034217008e+02  5.0880168710287853e+02  4.8053511017370465e+02  4.5226854109408134e+02  4.2400198182632869e+02  3.9573543489840137e+02  3.6746890360767730e+02  3.3920239231876150e+02  3.1093590691005153e+02  2.8266945546326872e+02  2.5440304936114936e+02  2.2613670511630892e+02  1.9787044741410062e+02  1.6960431546942439e+02  1.4133836848242228e+02  1.1307274706360084e+02  8.4807457121414714e+01  5.6544055762460061e+01  2.8285121429652886e+01  5.6319887896072443e-03  1.4338431830484989e+04  1.4187244933528618e+04  1.4035132632329021e+04  1.3883125573204810e+04  1.3731390409606798e+04  1.3579862374393027e+04  1.3428483019602245e+04  1.3277211432420980e+04  1.3126019483317279e+04  1.2974887539853298e+04  1.2823801565937832e+04  1.2672751295099870e+04  1.2521729065215910e+04  1.2370729059216183e+04  1.2219746797181722e+04  1.2068778787833726e+04  1.1917822283641202e+04  1.1766875104993576e+04  1.1615935511511077e+04  1.1465002106246082e+04  1.1314073763308106e+04  1.1163149572486118e+04  1.1012228796419231e+04  1.0861310837178800e+04  1.0710395210012866e+04  1.0559481522615995e+04  1.0408569458717417e+04  1.0257658765087712e+04  1.0106749241287964e+04  9.9558407316513385e+03  9.8049331191125293e+03  9.6540263205980045e+03  9.5031202837670608e+03  9.3522149849573943e+03  9.2013104282426175e+03  9.0504066455574593e+03  8.8995036978911667e+03  8.7486016775941171e+03  8.5977007118885595e+03  8.4468009677247755e+03  8.2959026581808848e+03  8.1450060506716945e+03  7.9941114773129702e+03  7.8432193478877698e+03  7.6923301659874396e+03  7.5414445490612125e+03  7.3905632533170647e+03  7.2396872046910839e+03  7.0888175374673119e+03  6.9379556426208155e+03  6.7871032286245190e+03  6.6362623983791918e+03  6.4854357472035417e+03  6.3346264886156887e+03  6.1838386171801185e+03  6.0330771213269809e+03  5.8823482642738791e+03  5.7316599587265573e+03  5.5810222719464291e+03  5.4304481134628650e+03  5.2799541805859353e+03  5.1295622684974760e+03  4.9793010876792187e+03  4.8292088598564387e+03  4.6793368546112297e+03  4.5297529888103945e+03  4.3805516316828243e+03  4.2319999093725155e+03  4.0845542710301588e+03  3.9414363843223600e+03  3.8091389417981754e+03  2.7365983649414379e+03  2.7106499853312926e+03  2.6830110663772653e+03  2.6552607814567982e+03  2.6273783273407253e+03  2.5994060137601336e+03  2.5713668232610212e+03  2.5432776870582393e+03  2.5151507435177077e+03  2.4869948619070587e+03  2.4588165993016164e+03  2.4306208643730693e+03  2.4024113755359085e+03  2.3741909810226825e+03  2.3459618848472464e+03  2.3177258082211333e+03  2.2894841062865512e+03  2.2612378535965886e+03  2.2329879074879314e+03  2.2047349556281470e+03  2.1764795520956773e+03  2.1482221450485081e+03  2.1199630981487885e+03  2.0917027072984069e+03  2.0634412138144107e+03  2.0351788148735427e+03  2.0069156718420954e+03  1.9786519169541227e+03  1.9503876586896654e+03  1.9221229861227487e+03  1.8938579724480039e+03  1.8655926778489929e+03  1.8373271518365516e+03  1.8090614351587940e+03  1.7807955613637885e+03  1.7525295580798104e+03  1.7242634480653942e+03  1.6959972500714009e+03  1.6677309795492934e+03  1.6394646492334459e+03  1.6111982696201410e+03  1.5829318493617602e+03  1.5546653955913102e+03  1.5263989141896675e+03  1.4981324100057232e+03  1.4698658870377635e+03  1.4415993485829381e+03  1.4133327973604607e+03  1.3850662356131709e+03  1.3567996651912772e+03  1.3285330876214221e+03  1.3002665041636490e+03  1.2719999158584224e+03  1.2437333235654419e+03  1.2154667279957075e+03  1.1872001297380430e+03  1.1589335292810540e+03  1.1306669270313550e+03  1.1024003233287267e+03  1.0741337184587962e+03  1.0458671126636932e+03  1.0176005061510817e+03  9.8933389910192068e+02  9.6106729167723051e+02  9.3280068402412542e+02  9.0453407628134028e+02  8.7626746858446927e+02  8.4800086107111736e+02  8.1973425388617034e+02  7.9146764718740178e+02  7.6320104115166430e+02  7.3493443598193710e+02  7.0666783191556362e+02  6.7840122923409467e+02  6.5013462827526075e+02  6.2186802944776446e+02  5.9360143324977912e+02  5.6533484029241322e+02  5.3706825132981373e+02  5.0880166729829295e+02  4.8053508936787085e+02  4.5226851901117044e+02  4.2400195809696521e+02  3.9573540901939356e+02  3.6746887487980695e+02  3.3920235974793957e+02  3.1093586904529900e+02  2.8266941012128353e+02  2.5440299314169775e+02  2.2613663248900156e+02  1.9787034907454600e+02  1.6960417393679060e+02  1.4133815599288351e+02  1.1307236824024854e+02  8.4806939069089722e+01  5.6542509703713883e+01  2.8277085984325954e+01  -4.2735393440451405e-04  1.4336918672945832e+04  1.4186043755010141e+04  1.4034449251239423e+04  1.3882740908805567e+04  1.3731153167628134e+04  1.3579705727684172e+04  1.3428374211804801e+04  1.3277132944221090e+04  1.3125961235828840e+04  1.2974843365521305e+04  1.2823767497490589e+04  1.2672724672973090e+04  1.2521708044460644e+04  1.2370712322952137e+04  1.2219733382742821e+04  1.2068767977249838e+04  1.1917813532340659e+04  1.1766867994017690e+04  1.1615929714646338e+04  1.1464997366886395e+04  1.1314069877822989e+04  1.1163146378038076e+04  1.1012226161886214e+04  1.0861308656283862e+04  1.0710393396048510e+04  1.0559480004337192e+04  1.0408568177101186e+04  1.0257657670740804e+04  1.0106748292341808e+04  9.9558398920229993e+03  9.8049323570384440e+03  9.6540256073666133e+03  9.5031195925901120e+03  9.3522142899286646e+03  9.2013097033387476e+03  9.0504058636384343e+03  8.8995028296587607e+03  8.7486006904648857e+03  8.5976995687341041e+03  8.4467996254254467e+03  8.2959010659295473e+03  8.1450041479507508e+03  7.9941091914495637e+03  7.8432165910670774e+03  7.6923268315701471e+03  7.5414405070048660e+03  7.3905583444375006e+03  7.2396812334118331e+03  7.0888102625816991e+03  6.9379467654177324e+03  6.7870923774819694e+03  6.6362491085763677e+03  6.4854194341934890e+03  6.3346064122656489e+03  6.1838138334250289e+03  6.0330464161574664e+03  5.8823100628300372e+03  5.7316121993540473e+03  5.5809622314678163e+03  5.4303721665639850e+03  5.2798574764499244e+03  5.1294383230308576e+03  4.9791413598353838e+03  4.8290025644098569e+03  4.6790719728255035e+03  4.5294230967122630e+03  4.3801843587793601e+03  4.2316723422993455e+03  4.0842086983421054e+03  3.9409219860593939e+03  3.8087902922276467e+03  2.7365900656122626e+03  2.7107495716049793e+03  2.6831321086051585e+03  2.6553653707848111e+03  2.6274606409397948e+03  2.5994687524716005e+03  2.5714143123795602e+03  2.5433137525592483e+03  2.5151783386518541e+03  2.4870161633578464e+03  2.4588331889520900e+03  2.4306338919289306e+03  2.4024216822450171e+03  2.3741991885175889e+03  2.3459684575911319e+03  2.3177310971772486e+03  2.2894883795531791e+03  2.2612413180613412e+03  2.2329907242876893e+03  2.2047372513115279e+03  2.1764814267784282e+03  2.1482236784432794e+03  2.1199643540756601e+03  2.0917037370969106e+03  2.0634420589519268e+03  2.0351795089589107e+03  2.0069162421939786e+03  1.9786523858324326e+03  1.9503880442693678e+03  1.9221233032688085e+03  1.8938582333354716e+03  1.8655928924615475e+03  1.8373273283689493e+03  1.8090615803428857e+03  1.7807956807333935e+03  1.7525296561864573e+03  1.7242635286544046e+03  1.6959973162258595e+03  1.6677310338079346e+03  1.6394646936873019e+03  1.6111983059918484e+03  1.5829318790707089e+03  1.5546654198071799e+03  1.5263989338764600e+03  1.4981324259579881e+03  1.4698658999104157e+03  1.4415993589158049e+03  1.4133328055984969e+03  1.3850662421231070e+03  1.3567996702753351e+03  1.3285330915286063e+03  1.3002665070990513e+03  1.2719999179908791e+03  1.2437333250338368e+03  1.2154667289141560e+03  1.1872001302001477e+03  1.1589335293633992e+03  1.1306669267963596e+03  1.1024003228269733e+03  1.0741337177309140e+03  1.0458671117418714e+03  1.0176005050602656e+03  9.8933389786073394e+02  9.6106729029866221e+02  9.3280068251599835e+02  9.0453407464658289e+02  8.7626746682119528e+02  8.4800085917250851e+02  8.1973425184015707e+02  7.9146764497611389e+02  7.6320103875061875e+02  7.3493443335890743e+02  7.0666782902905686e+02  6.7840122603132102e+02  6.5013462468944624e+02  6.2186802539458120e+02  5.9360142862257419e+02  5.6533483495576911e+02  5.3706824511075217e+02  5.0880165997407903e+02  4.8053508064882681e+02  4.5226850851600915e+02  4.2400194