<?xml version="1.0"?>
<VTKFile type="UnstructuredGrid"  version="0.1"  >
<UnstructuredGrid>
<Piece  NumberOfPoints="21400" NumberOfCells="42336">
<Points>
<DataArray  type="Float64"  NumberOfComponents="3"  format="ascii">0 0 0  0.004583333333333333 0 0  0.009166666666666667 0 0  0.01375 0 0  0.01833333333333333 0 0  0.02291666666666667 0 0  0.0275 0 0  0.03208333333333334 0 0  0.03666666666666667 0 0  0.04125 0 0  0.04583333333333334 0 0  0.05041666666666667 0 0  0.055 0 0  0.05958333333333334 0 0  0.06416666666666668 0 0  0.06875000000000001 0 0  0.07333333333333333 0 0  0.07791666666666666 0 0  0.08249999999999999 0 0  0.08708333333333333 0 0  0.09166666666666667 0 0  0.09625000000000002 0 0  0.1008333333333333 0 0  0.1054166666666667 0 0  0.11 0 0  0.1145833333333333 0 0  0.1191666666666667 0 0  0.12375 0 0  0.1283333333333334 0 0  0.1329166666666667 0 0  0.1375 0 0  0.1420833333333333 0 0  0.1466666666666667 0 0  0.15125 0 0  0.1558333333333333 0 0  0.1604166666666667 0 0  0.165 0 0  0.1695833333333333 0 0  0.1741666666666667 0 0  0.17875 0 0  0.1833333333333333 0 0  0.1879166666666667 0 0  0.1925 0 0  0.1970833333333333 0 0  0.2016666666666667 0 0  0.20625 0 0  0.2108333333333333 0 0  0.2154166666666666 0 0  0.22 0 0  0.2245833333333334 0 0  0.2291666666666667 0 0  0.23375 0 0  0.2383333333333333 0 0  0.2429166666666667 0 0  0.2475 0 0  0.2520833333333333 0 0  0.2566666666666667 0 0  0.26125 0 0  0.2658333333333334 0 0  0.2704166666666666 0 0  0.275 0 0  0.2795833333333334 0 0  0.2841666666666667 0 0  0.28875 0 0  0.2933333333333333 0 0  0.2979166666666667 0 0  0.3025 0 0  0.3070833333333334 0 0  0.3116666666666666 0 0  0.31625 0 0  0.3208333333333333 0 0  0.3254166666666667 0 0  0.33 0 0  0.3345833333333333 0 0  0.3391666666666667 0 0  0.34375 0 0  0.3483333333333333 0 0  0.3529166666666667 0 0  0.3575 0 0  0.3620833333333333 0 0  0.3666666666666667 0 0  0.37125 0 0  0.3758333333333334 0 0  0.3804166666666667 0 0  0.3850000000000001 0 0  0.3895833333333333 0 0  0.3941666666666667 0 0  0.39875 0 0  0.4033333333333334 0 0  0.4079166666666666 0 0  0.4125 0 0  0.4170833333333334 0 0  0.4216666666666667 0 0  0.42625 0 0  0.4308333333333333 0 0  0.4354166666666667 0 0  0.44 0 0  0.4445833333333333 0 0  0.4491666666666667 0 0  0.45375 0 0  0.4583333333333333 0 0  0.4629166666666666 0 0  0.4675 0 0  0.4720833333333334 0 0  0.4766666666666667 0 0  0.4812500000000001 0 0  0.4858333333333333 0 0  0.4904166666666667 0 0  0.495 0 0  0.4995833333333334 0 0  0.5041666666666667 0 0  0.50875 0 0  0.5133333333333334 0 0  0.5179166666666667 0 0  0.5225 0 0  0.5270833333333333 0 0  0.5316666666666667 0 0  0.53625 0 0  0.5408333333333333 0 0  0.5454166666666667 0 0  0.55 0 0  0.5545833333333333 0 0  0.5591666666666667 0 0  0.5637500000000001 0 0  0.5683333333333334 0 0  0.5729166666666666 0 0  0.5775 0 0  0.5820833333333334 0 0  0.5866666666666667 0 0  0.5912499999999999 0 0  0.5958333333333334 0 0  0.6004166666666667 0 0  0.605 0 0  0.6095833333333334 0 0  0.6141666666666667 0 0  0.61875 0 0  0.6233333333333333 0 0  0.6279166666666667 0 0  0.6325000000000001 0 0  0.6370833333333333 0 0  0.6416666666666666 0 0  0.64625 0 0  0.6508333333333334 0 0  0.6554166666666666 0 0  0.6599999999999999 0 0  0.6645833333333334 0 0  0.6691666666666667 0 0  0.67375 0 0  0.6783333333333333 0 0  0.6829166666666667 0 0  0.6875 0 0  0.6920833333333333 0 0  0.6966666666666667 0 0  0.70125 0 0  0.7058333333333333 0 0  0.7104166666666667 0 0  0.7150000000000001 0 0  0.7195833333333334 0 0  0.7241666666666666 0 0  0.72875 0 0  0.7333333333333334 0 0  0.7379166666666667 0 0  0.7425 0 0  0.7470833333333333 0 0  0.7516666666666667 0 0  0.75625 0 0  0.7608333333333334 0 0  0.7654166666666666 0 0  0.7700000000000001 0 0  0 0.002380952380952381 0  0.004583333333333333 0.002380952380952381 0  0.009166666666666667 0.002380952380952381 0  0.01375 0.002380952380952381 0  0.01833333333333333 0.002380952380952381 0  0.02291666666666667 0.002380952380952381 0  0.0275 0.002380952380952381 0  0.03208333333333334 0.002380952380952381 0  0.03666666666666667 0.002380952380952381 0  0.04125 0.002380952380952381 0  0.04583333333333334 0.002380952380952381 0  0.05041666666666667 0.002380952380952381 0  0.055 0.002380952380952381 0  0.05958333333333334 0.002380952380952381 0  0.06416666666666668 0.002380952380952381 0  0.06875000000000001 0.002380952380952381 0  0.07333333333333333 0.002380952380952381 0  0.07791666666666666 0.002380952380952381 0  0.08249999999999999 0.002380952380952381 0  0.08708333333333333 0.002380952380952381 0  0.09166666666666667 0.002380952380952381 0  0.09625000000000002 0.002380952380952381 0  0.1008333333333333 0.002380952380952381 0  0.1054166666666667 0.002380952380952381 0  0.11 0.002380952380952381 0  0.1145833333333333 0.002380952380952381 0  0.1191666666666667 0.002380952380952381 0  0.12375 0.002380952380952381 0  0.1283333333333334 0.002380952380952381 0  0.1329166666666667 0.002380952380952381 0  0.1375 0.002380952380952381 0  0.1420833333333333 0.002380952380952381 0  0.1466666666666667 0.002380952380952381 0  0.15125 0.002380952380952381 0  0.1558333333333333 0.002380952380952381 0  0.1604166666666667 0.002380952380952381 0  0.165 0.002380952380952381 0  0.1695833333333333 0.002380952380952381 0  0.1741666666666667 0.002380952380952381 0  0.17875 0.002380952380952381 0  0.1833333333333333 0.002380952380952381 0  0.1879166666666667 0.002380952380952381 0  0.1925 0.002380952380952381 0  0.1970833333333333 0.002380952380952381 0  0.2016666666666667 0.002380952380952381 0  0.20625 0.002380952380952381 0  0.2108333333333333 0.002380952380952381 0  0.2154166666666666 0.002380952380952381 0  0.22 0.002380952380952381 0  0.2245833333333334 0.002380952380952381 0  0.2291666666666667 0.002380952380952381 0  0.23375 0.002380952380952381 0  0.2383333333333333 0.002380952380952381 0  0.2429166666666667 0.002380952380952381 0  0.2475 0.002380952380952381 0  0.2520833333333333 0.002380952380952381 0  0.2566666666666667 0.002380952380952381 0  0.26125 0.002380952380952381 0  0.2658333333333334 0.002380952380952381 0  0.2704166666666666 0.002380952380952381 0  0.275 0.002380952380952381 0  0.2795833333333334 0.002380952380952381 0  0.2841666666666667 0.002380952380952381 0  0.28875 0.002380952380952381 0  0.2933333333333333 0.002380952380952381 0  0.2979166666666667 0.002380952380952381 0  0.3025 0.002380952380952381 0  0.3070833333333334 0.002380952380952381 0  0.3116666666666666 0.002380952380952381 0  0.31625 0.002380952380952381 0  0.3208333333333333 0.002380952380952381 0  0.3254166666666667 0.002380952380952381 0  0.33 0.002380952380952381 0  0.3345833333333333 0.002380952380952381 0  0.3391666666666667 0.002380952380952381 0  0.34375 0.002380952380952381 0  0.3483333333333333 0.002380952380952381 0  0.3529166666666667 0.002380952380952381 0  0.3575 0.002380952380952381 0  0.3620833333333333 0.002380952380952381 0  0.3666666666666667 0.002380952380952381 0  0.37125 0.002380952380952381 0  0.3758333333333334 0.002380952380952381 0  0.3804166666666667 0.002380952380952381 0  0.3850000000000001 0.002380952380952381 0  0.3895833333333333 0.002380952380952381 0  0.3941666666666667 0.002380952380952381 0  0.39875 0.002380952380952381 0  0.4033333333333334 0.002380952380952381 0  0.4079166666666666 0.002380952380952381 0  0.4125 0.002380952380952381 0  0.4170833333333334 0.002380952380952381 0  0.4216666666666667 0.002380952380952381 0  0.42625 0.002380952380952381 0  0.4308333333333333 0.002380952380952381 0  0.4354166666666667 0.002380952380952381 0  0.44 0.002380952380952381 0  0.4445833333333333 0.002380952380952381 0  0.4491666666666667 0.002380952380952381 0  0.45375 0.002380952380952381 0  0.4583333333333333 0.002380952380952381 0  0.4629166666666666 0.002380952380952381 0  0.4675 0.002380952380952381 0  0.4720833333333334 0.002380952380952381 0  0.4766666666666667 0.002380952380952381 0  0.4812500000000001 0.002380952380952381 0  0.4858333333333333 0.002380952380952381 0  0.4904166666666667 0.002380952380952381 0  0.495 0.002380952380952381 0  0.4995833333333334 0.002380952380952381 0  0.5041666666666667 0.002380952380952381 0  0.50875 0.002380952380952381 0  0.5133333333333334 0.002380952380952381 0  0.5179166666666667 0.002380952380952381 0  0.5225 0.002380952380952381 0  0.5270833333333333 0.002380952380952381 0  0.5316666666666667 0.002380952380952381 0  0.53625 0.002380952380952381 0  0.5408333333333333 0.002380952380952381 0  0.5454166666666667 0.002380952380952381 0  0.55 0.002380952380952381 0  0.5545833333333333 0.002380952380952381 0  0.5591666666666667 0.002380952380952381 0  0.5637500000000001 0.002380952380952381 0  0.5683333333333334 0.002380952380952381 0  0.5729166666666666 0.002380952380952381 0  0.5775 0.002380952380952381 0  0.5820833333333334 0.002380952380952381 0  0.5866666666666667 0.002380952380952381 0  0.5912499999999999 0.002380952380952381 0  0.5958333333333334 0.002380952380952381 0  0.6004166666666667 0.002380952380952381 0  0.605 0.002380952380952381 0  0.6095833333333334 0.002380952380952381 0  0.6141666666666667 0.002380952380952381 0  0.61875 0.002380952380952381 0  0.6233333333333333 0.002380952380952381 0  0.6279166666666667 0.002380952380952381 0  0.6325000000000001 0.002380952380952381 0  0.6370833333333333 0.002380952380952381 0  0.6416666666666666 0.002380952380952381 0  0.64625 0.002380952380952381 0  0.6508333333333334 0.002380952380952381 0  0.6554166666666666 0.002380952380952381 0  0.6599999999999999 0.002380952380952381 0  0.6645833333333334 0.002380952380952381 0  0.6691666666666667 0.002380952380952381 0  0.67375 0.002380952380952381 0  0.6783333333333333 0.002380952380952381 0  0.6829166666666667 0.002380952380952381 0  0.6875 0.002380952380952381 0  0.6920833333333333 0.002380952380952381 0  0.6966666666666667 0.002380952380952381 0  0.70125 0.002380952380952381 0  0.7058333333333333 0.002380952380952381 0  0.7104166666666667 0.002380952380952381 0  0.7150000000000001 0.002380952380952381 
[...]
<PointData  Scalars="pressure"> 
<DataArray  type="Float64"  Name="pressure"  format="ascii">1.2671020553069133e+04  1.2508589723368850e+04  1.2354770041243011e+04  1.2202151989259793e+04  1.2050184228758781e+04  1.1898537258744209e+04  1.1747091405642692e+04  1.1595779030305412e+04  1.1444560544122487e+04  1.1293410553678612e+04  1.1142311919379836e+04  1.0991252585949132e+04  1.0840223808252387e+04  1.0689219088312750e+04  1.0538233507212784e+04  1.0387263287703041e+04  1.0236305498088184e+04  1.0085357846093255e+04  9.9344185320584493e+03  9.7834861424872997e+03  9.6325595718443328e+03  9.4816379646849146e+03  9.3307206728339024e+03  9.1798072240387755e+03  9.0288972996668454e+03  8.8779907198097953e+03  8.7270874347322697e+03  8.5761875220386773e+03  8.4252911892896736e+03  8.2743987821166520e+03  8.1235107981909869e+03  7.9726279077338249e+03  7.8217509816316751e+03  7.6708811286892796e+03  7.5200197441505989e+03  7.3691685724150284e+03  7.2183297879594611e+03  7.0675060999766856e+03  6.9167008883439412e+03  6.7659183815097704e+03  6.6151638911126556e+03  6.4644441241321420e+03  6.3137676017537233e+03  6.1631452254166779e+03  6.0125910449704306e+03  5.8621232959639365e+03  5.7117657840040065e+03  5.5615495594222648e+03  5.4115153787655790e+03  5.2617102272656448e+03  5.1122091100420812e+03  4.9629972094600353e+03  4.8142628598671154e+03  4.6591439260204706e+03  3.2909948403075423e+03  3.2002494176738542e+03  3.1626406986559041e+03  3.1344918754682599e+03  3.1069071677665179e+03  3.0791335084674834e+03  3.0512756942096075e+03  3.0233259904994916e+03  2.9953057301073513e+03  2.9672310291634376e+03  2.9391148753235916e+03  2.9109670263532457e+03  2.8827947746973309e+03  2.8546035770306321e+03  2.8263975472580983e+03  2.7981798162626687e+03  2.7699527904293550e+03  2.7417183369311656e+03  2.7134779172577582e+03  2.6852326843323090e+03  2.6569835539239807e+03  2.6287312577707512e+03  2.6004763835548606e+03  2.5722194053192552e+03  2.5439607068514015e+03  2.5157005998318396e+03  2.4874393380406432e+03  2.4591771285631312e+03  2.4309141406881404e+03  2.4026505130154137e+03  2.3743863591612612e+03  2.3461217723588252e+03  2.3178568291807906e+03  2.2895915925613886e+03  2.2613261142560491e+03  2.2330604368477893e+03  2.2047945953868993e+03  2.1765286187330257e+03  2.1482625306550940e+03  2.1199963507337097e+03  2.0917300951021998e+03  2.0634637770555660e+03  2.0351974075512242e+03  2.0069309956209559e+03  1.9786645487099588e+03  1.9503980729559976e+03  1.9221315734193020e+03  1.8938650542719420e+03  1.8655985189538642e+03  1.8373319703014647e+03  1.8090654106535637e+03  1.7807988419387450e+03  1.7525322657473662e+03  1.7242656833909098e+03  1.6959990959509282e+03  1.6677325043193950e+03  1.6394659092319798e+03  1.6111993112954870e+03  1.5829327110104889e+03  1.5546661087899947e+03  1.5263995049748476e+03  1.4981328998464378e+03  1.4698662936371961e+03  1.4415996865392569e+03  1.4133330787116215e+03  1.3850664702860893e+03  1.3567998613721688e+03  1.3285332520611644e+03  1.3002666424295762e+03  1.2720000325419526e+03  1.2437334224533045e+03  1.2154668122111443e+03  1.1872002018572678e+03  1.1589335914293140e+03  1.1306669809621658e+03  1.1024003704892557e+03  1.0741337600438169e+03  1.0458671496601355e+03  1.0176005393748306e+03  9.8933392922824135e+02  9.6106731926595614e+02  9.3280070954054486e+02  9.0453410011357244e+02  8.7626749105797080e+02  8.4800088246087455e+02  8.1973427442703780e+02  7.9146766708298549e+02  7.6320106058210342e+02  7.3493445511090238e+02  7.0666785089678194e+02  6.7840124821770769e+02  6.5013464741436599e+02  6.2186804890553810e+02  5.9360145320769527e+02  5.6533486096024649e+02  5.3706827295840299e+02  5.0880169019648935e+02  4.8053511392583800e+02  4.5226854573341387e+02  4.2400198765049799e+02  3.9573544230596150e+02  3.6746891314730601e+02  3.3920240476755782e+02  3.1093592340246090e+02  2.8266947771199381e+02  2.5440308004843828e+02  2.2613674865176063e+02  1.9787051121455812e+02  1.6960441451781557e+02  1.4133851892889666e+02  1.1307309739941650e+02  8.4807248964932882e+01  5.6551537993525841e+01  2.8205951007669071e+01  7.9925960189467549e-01  1.2662737986501859e+04  1.2508639090754183e+04  1.2354586305638162e+04  1.2202100125977751e+04  1.2050150210326365e+04  1.1898516548242475e+04  1.1747077355504291e+04  1.1595769096497732e+04  1.1444553263264688e+04  1.1293405080021119e+04  1.1142307723427517e+04  1.0991249320510462e+04  1.0840221236187024e+04  1.0689217042244103e+04  1.0538231865708893e+04  1.0387261960584199e+04  1.0236304417011263e+04  1.0085356958312837e+04  9.9344177961658970e+03  9.7834855254174890e+03  9.6325590467148249e+03  9.4816375091923346e+03  9.3307202680282644e+03  9.1798068533551632e+03  9.0288969481306794e+03  8.8779903733547890e+03  8.7270870795845076e+03  8.5761871441286985e+03  8.4252907736585894e+03  8.2743983122831887e+03  8.1235102554441091e+03  7.9726272703100867e+03  7.8217502237271501e+03  7.6708802192416770e+03  7.5200186453059396e+03  7.3691672375625758e+03  7.2183281591738196e+03  7.0675041046412807e+03  6.9166984346360705e+03  6.7659153522922825e+03  6.6151601355844068e+03  6.4644394463237859e+03  6.3137617446017184e+03  6.1631378488436440e+03  6.0125816958694440e+03  5.8621113703681785e+03  5.7117504742145857e+03  5.5615299080403092e+03  5.4114895619808340e+03  5.2616806790991777e+03  5.1121591284067708e+03  4.9629773988995048e+03  4.8137676525328479e+03  4.6647415323800651e+03  4.5222925212890186e+03  4.3917801107104706e+03  3.1613146850882749e+03  3.1346695451385899e+03  3.1068916642684599e+03  3.0791485442923695e+03  3.0512850918634085e+03  3.0233337534309553e+03  2.9953116137329625e+03  2.9672355160748439e+03  2.9391183068533887e+03  2.9109696718803971e+03  2.8827968319153506e+03  2.8546051904388605e+03  2.8263988225915377e+03  2.7981808315004082e+03  2.7699536036645372e+03  2.7417189919193765e+03  2.7134784473166401e+03  2.6852331150953082e+03  2.6569839053014080e+03  2.6287315453610718e+03  2.6004766196720752e+03  2.5722195997497083e+03  2.5439608674178703e+03  2.5157007328187847e+03  2.4874394485182602e+03  2.4591772206367891e+03  2.4309142176921473e+03  2.4026505776648014e+03  2.3743864136715665e+03  2.3461218185412399e+03  2.3178568685181776e+03  2.2895916262693186e+03  2.2613261433320104e+03  2.2330604621110206e+03  2.2047946175107199e+03  2.1765286382711533e+03  2.1482625480631100e+03  2.1199963663866047e+03  2.0917301093087308e+03  2.0634637900700259e+03  2.0351974195830969e+03  2.0069310068428431e+03  1.9786645592640946e+03  1.9503980829596094e+03  1.9221315829690141e+03  1.8938650634474050e+03  1.8655985278207397e+03  1.8373319789138870e+03  1.8090654190561631e+03  1.7807988501683208e+03  1.7525322738342572e+03  1.7242656913601315e+03  1.6959991038231069e+03  1.6677325121115357e+03  1.6394659169581025e+03  1.6111993189671493e+03  1.5829327186372179e+03  1.5546661163796412e+03  1.5263995125338806e+03  1.4981329073801846e+03  1.4698663011500407e+03  1.4415996940348039e+03  1.4133330861928312e+03  1.3850664777553866e+03  1.3567998688315361e+03  1.3285332595122125e+03  1.3002666498736046e+03  1.2720000399800024e+03  1.2437334298861904e+03  1.2154668196394905e+03  1.1872002092815294e+03  1.1589335988497917e+03  1.1306669883790200e+03  1.1024003779025104e+03  1.0741337674533625e+03  1.0458671570657216e+03  1.0176005467760581e+03  9.8933393662454614e+02  9.6106732665658603e+02  9.3280071692453168e+02  9.0453410748969145e+02  8.7626749842469178e+02  8.4800088981629926e+02  8.1973428176882032e+02  7.9146767440823260e+02  7.6320106788724706e+02  7.3493446239153980e+02  7.0666785814746925e+02  6.7840125543169529e+02  6.5013465458325436e+02  6.2186805601882440e+02  5.9360146025217159e+02  5.6533486791918835e+02  5.3706827981045615e+02  5.0880169691412272e+02  4.8053512047314837e+02  4.5226855206295062e+02  4.2400199369857131e+02  3.9573544798553570e+02  3.6746891833695435e+02  3.3920240929376735e+02  3.1093592701046327e+02  2.8266948001477039e+02  2.5440308044286502e+02  2.2613674609859450e+02  1.9787050432328618e+02  1.6960439735055743e+02  1.4133850851146937e+02  1.1307288684426914e+02  8.4808461687976234e+01  5.6540124275468749e+01  2.8309264634889729e+01  -4.3494475677656297e-02  1.2659068689064030e+04  1.2507138501653613e+04  1.2354207053090267e+04  1.2201899155520467e+04  1.2050038308723124e+04  1.1898445353800656e+04  1.1747029170361368e+04  1.1595734874379248e+04  1.1444528127098232e+04  1.1293386146527126e+04  1.1142293185700602e+04  1.0991237989124971e+04  1.0840212296884785e+04  1.0689209919245597e+04  1.0538226140695897e+04  1.0387257322555370e+04  1.0236300630068981e+04  1.0085353840274980e+04  9.9344152039340152e+03  9.7834833446838584e+03  9.6325571845233771e+03  9.4816358884126821e+03  9.3307188231288819e+03  9.1798055270624118e+03  9.0288956886857632e+03  8.8779891321595078e+03  8.7270858090755919e+03  8.5761857957495467e+03  8.4252892958115644e+03  8.2743966481485531e+03  8.1235083405441110e+03  7.9726250296779826e+03  7.8217475685091986e+03  7.6708770425112325e+03  7.5200148167967482e+03  7.3691625969231591e+03  7.2183225071925453e+03  7.0674971916708446e+03  6.9166899451265199e+03  6.7659048838813878e+03  6.6151471705396352e+03  6.4644233122253936e+03  6.3137415599972082e+03  6.1631124483259755e+03  6.0125495284950439e+03  5.8620703676052171e+03  5.7116979050214668e+03  5.5614622258914269e+03  5.4114027771271603e+03  5.2615709296654768e+03  5.1120276511023485e+03  4.9628259529954375e+03  4.8139716136922907e+03  4.6667533597816455e+03  4.5172986974358628e+03  3.1968557191907917e+03  3.1628372300984388e+03  3.1344468512977837e+03  3.1069535484959160e+03  3.0791864694751162e+03  3.0513194198152355e+03  3.0233601975115712e+03  2.9953318183624765e+03  2.9672508816297668e+03  2.9391300537210195e+03  2.9109787222282525e+03  2.8828038646266145e+03  2.8546107007059309e+03  2.8264031727435477e+03  2.7981842887897178e+03  2.7699563672596173e+03  2.7417212118958200e+03  2.7134802379986168e+03  2.6852345644763191e+03  2.6569850817549027e+03  2.6287325024717020e+03  2.6004773997543434e+03  2.5722202364412269e+03  2.5439613876131889e+03  2.5157011581279426e+03  2.4874397963787542e+03  2.4591775051698278e+03  2.4309144503680745e+03  2.4026507678245021e+03  2.3743865689380755e+03  2.3461219451467809e+03  2.3178569715654994e+03  2.2895917099415701e+03  2.2613262110619980e+03  2.2330605167181961e+03  2.2047946613124109e+03  2.1765286731731017e+03  2.1482625756333314e+03  2.1199963879157531e+03  2.0917301258595130e+03  2.0634638025176960e+03  2.0351974286486839e+03  2.0069310131204359e+03  1.9786645632432665e+03  1.9503980850438525e+03  1.9221315834909130e+03  1.8938650626811170e+03  1.8655985259922766e+03  1.8373319762095794e+03  1.8090654156296337e+03  1.7807988461462296e+03  1.7525322693210362e+03  1.7242656864418864e+03  1.6959990985708303e+03  1.6677325065837617e+03  1.6394659112030893e+03  1.6111993130246788e+03  1.5829327125400821e+03  1.5546661101548639e+03  1.5263995062037268e+03  1.4981329009629908e+03  1.4698662946608963e+03  1.4415996874861164e+03  1.4133330795947888e+03  1.3850664711163365e+03  1.3567998621582965e+03  1.3285332528103283e+03  1.3002666431475516e+03  1.2720000332333543e+03  1.2437334231217544e+03  1.2154668128594099e+03  1.1872002024873627e+03  1.1589335920425726e+03  1.1306669815592938e+03  1.1024003710703550e+03  1.0741337606083878e+03  1.0458671502070574e+03  1.0176005399023170e+03  9.8933392973376976e+02  9.6106731974616866e+02  9.3280070999111535e+02  9.0453410052903280e+02  8.7626749143149095e+02  8.4800088278398107e+02  8.1973427468926036e+02  7.9146766727141153e+02  7.6320106068081179e+02  7.3493445510024844e+02  7.0666785075247890e+02  6.7840124790964830e+02  6.5013464690508818e+02  6.2186804814820971e+02  5.9360145214343549e+02  5.6533485951451667e+02  5.3706827103606463e+02  5.0880168767493160e+02  4.8053511064524145e+02  4.5226854148268023e+02  4.2400198214647628e+02  3.9573543516203233e+02  3.6746890382461947e+02  3.3920239249710215e+02  3.1093590705643896e+02  2.8266945558316007e+02  2.5440304945901397e+02  2.2613670519579523e+02  1.9787044747817160e+02  1.6960431552046865e+02  1.4133836852234273e+02  1.1307274709388561e+02  8.4807457143192849e+01  5.6544055776543885e+01  2.8285121436568513e+01  5.6319887886250742e-03  1.2656897192955112e+04  1.2505710306540726e+04  1.2353598041056079e+04  1.2201591044243074e+04  1.2049855971893641e+04  1.1898328060269292e+04  1.1746948866017327e+04  1.1595677482310748e+04  1.1444485787205525e+04  1.1293354157736392e+04  1.1142268569523103e+04  1.0991218770481371e+04  1.0840197116087695e+04  1.0689197810743493e+04  1.0538216400675181e+04  1.0387249426402068e+04  1.0236294179035023e+04  1.0085348525897960e+04  9.9344107836000658e+03  9.7834796243796900e+03  9.6325540063349745e+03  9.4816331212161604e+03  9.3307163554547078e+03  9.1798032614447802e+03  9.0288935370159925e+03  8.8779870116930106e+03  8.7270836388232819e+03  8.5761834930325294e+03  8.4252867727821413e+03  8.2743938080850858e+03  8.1235050737145757e+03  7.9726212085355264e+03  7.8217430419297198e+03  7.6708716287010502e+03  7.5200082943775078e+03  7.3691546935251718e+03  7.2183128846325317e+03  7.0674854264204459e+03  6.9166755022426050e+03  6.7658870817966308e+03  6.6151251330086643e+03  6.4643959021855117e+03  6.3137072880813712e+03  6.1630693464428723e+03  6.0124949772904947e+03  5.8620008700758808e+03  5.7116088134793508e+03  5.5613475125955456e+03  5.4112551846764800e+03  5.2613830955787853e+03  5.1117991590533111e+03  4.9625977417101112e+03  4.8140459675186285e+03  4.6666002838333352e+03  4.5234823574887123e+03  4.3911848815886979e+03  3.1605975645355111e+03  3.1346491800548752e+03  3.1070102568210332e+03  3.0792599683901576e+03  3.0513775113807092e+03  3.0234051954156275e+03  2.9953660029506991e+03  2.9672768651270021e+03  2.9391499202498208e+03  2.9109940375368778e+03  2.8828157740223828e+03  2.8546200383441328e+03  2.8264105488886812e+03  2.7981901538655352e+03  2.7699610572695483e+03  2.7417249802965794e+03  2.7134832780759139e+03  2.6852370251499751e+03  2.6569870788466528e+03  2.6287341268262617e+03  2.6004787231612568e+03  2.5722213160046795e+03  2.5439622690146043e+03  2.5157018780895501e+03  2.4874403845437791e+03  2.4591779855517334e+03  2.4309148424777954e+03  2.4026510875544359e+03  2.3743868292603765e+03  2.3461221566685376e+03  2.3178571429726212e+03  2.2895918483554005e+03  2.2613263223270324e+03  2.2330606056350375e+03  2.2047947318269535e+03  2.1765287285305658e+03  2.1482626185039494e+03  2.1199964204975086e+03  2.0917301499622422e+03  2.0634638196320338e+03  2.0351974400026313e+03  2.0069310197258158e+03  1.9786645659339049e+03  1.9503980845069757e+03  1.9221315802929780e+03  1.8938650572890760e+03  1.8655985187910785e+03  1.8373319675165897e+03  1.8090654057065099e+03  1.7807988352087054e+03  1.7525322575469861e+03  1.7242656739779688e+03  1.6959990855379679e+03  1.6677324930816524e+03  1.6394658973139271e+03  1.6111992988162258e+03  1.5829326980681910e+03  1.5546660954655647e+03  1.5263994913349425e+03  1.4981328859459509e+03  1.4698662795213036e+03  1.4415996722451050e+03  1.4133330642697103e+03  1.3850664557214088e+03  1.3567998467051336e+03  1.3285332373083718e+03  1.3002666276044254e+03  1.2720000176551468e+03  1.2437334075132449e+03  1.2154667972242473e+03  1.1872001868282025e+03  1.1589335763611732e+03  1.1306669658565827e+03  1.1024003553464613e+03  1.0741337448626473e+03  1.0458671344379845e+03  1.0176005241075459e+03  9.8933391390996189e+02  9.6106730388888116e+02  9.3280069409462556e+02  9.0453408458610920e+02  8.7626747543310114e+02  8.4800086671892223e+02  8.1973425854369293e+02  7.9146765102826930e+02  7.6320104431906043e+02  7.3493443859393869e+02  7.0666783406954380e+02  6.7840123101035113e+02  6.5013462974001050e+02  6.2186803065561151e+02  5.9360143424575028e+02  5.6533484111363794e+02  5.3706825200690594e+02  5.0880166785649385e+02  4.8053508982798940e+02  4.5226851939035942e+02  4.2400195840936044e+02  3.9573540927664061e+02  3.6746887509149565e+02  3.3920235992196166e+02  3.1093586918814168e+02  2.8266941023827178e+02  2.5440299323719265e+02  2.2613663256656309e+02  1.9787034913706555e+02  1.6960417398659882e+02  1.4133815603183729e+02  1.1307236826979988e+02  8.4806939090340421e+01  5.6542509717456298e+01  2.8277085991072095e+01  -4.2735393679030218e-04  1.2655384012172080e+04  1.2504509104410279e+04  1.2352914635110410e+04  1.2201206352818168e+04  1.2049618699711944e+04  1.1898171379053612e+04  1.1746840018122282e+04  1.1595598946926862e+04  1.1444427483686506e+04  1.1293309916436729e+04  1.1142234420672050e+04  1.0991192051513513e+04  1.0840175978438436e+04  1.0689180933166750e+04  1.0538202815224979e+04  1.0387238408715628e+04  1.0236285176794363e+04  1.0085341110751709e+04  9.9344046179398301e+03  9.7834744377690313e+03  9.6325495783496390e+03  9.4816292686171309e+03  9.3307129223232096e+03  9.1798001113478604e+03  9.0288905465483003e+03  8.8779840649156813e+03  8.7270806222304709e+03  8.5761802907410056e+03  8.4252832616715805e+03  8.2743898526229350e+03  8.1235005201813201e+03  7.9726158783231267e+03  7.8217367235125803e+03  7.6708640677668018e+03  7.5199991814393206e+03  7.3691436480967050e+03  7.2182994346981195e+03  7.0674689814280237e+03  6.9166553171149180e+03  6.7658622083968176e+03  6.6150943539739992e+03  6.4643576398945115e+03  6.3136594786057785e+03  6.1630092647334259e+03  6.0124189964929301e+03  5.8619041381071056e+03  5.7114848452059541e+03  5.5611877661181625e+03  5.4110488740718774e+03  5.2611182015416534e+03  5.1114692571500518e+03  4.9622304610849042e+03  4.8137183945267661e+03  4.6662547067595369e+03  4.5229679560730847e+03  4.3908362294625249e+03  3.1605892640697602e+03  3.1347487654377046e+03  3.1071312983338976e+03  3.0793645571362308e+03  3.0514598245033635e+03  3.0234679337357111e+03  2.9954134917471306e+03  2.9673129303626642e+03  2.9391775151652623e+03  2.9110153388073545e+03  2.8828323635241773e+03  2.8546330657773897e+03  2.8264208554966854e+03  2.7981983612770646e+03  2.7699676299446783e+03  2.7417302691959990e+03  2.7134875512957942e+03  2.6852404895761852e+03  2.6569898956146380e+03  2.6287364224834550e+03  2.6004805978224276e+03  2.5722228493816774e+03  2.5439635249268454e+03  2.5157029078760197e+03  2.4874412296714099e+03  2.4591786796289953e+03  2.4309154128230521e+03  2.4026515564273500e+03  2.3743872148357118e+03  2.3461224738110964e+03  2.3178574038573247e+03  2.2895920629658244e+03  2.2613264988578544e+03  2.2330607508180487e+03  2.2047948511959326e+03  2.1765288266370194e+03  2.1482626990931908e+03  2.1199964866526302e+03  2.0917302042220053e+03  2.0634638640875100e+03  2.0351974763765197e+03  2.0069310494375864e+03  1.9786645901533432e+03  1.9503981041982172e+03  1.9221315962507383e+03  1.8938650701684739e+03  1.8655985291321931e+03  1.8373319757646836e+03  1.8090654122286894e+03  1.7807988403076481e+03  1.7525322614722529e+03  1.7242656769353268e+03  1.6959990876970730e+03  1.6677324945823843e+03  1.6394658982716098e+03  1.6111992993259282e+03  1.5829326982082778e+03  1.5546660953006176e+03  1.5263994909181686e+03  1.4981328853211674e+03  1.4698662787245730e+03  1.4415996713060779e+03  1.4133330632127327e+03  1.3850664545664283e+03  1.3567998454684453e+03  1.3285332360032235e+03  1.3002666262415121e+03  1.2720000162430101e+03  1.2437334060585902e+03  1.2154667957321954e+03  1.1872001853024767e+03  1.1589335748042411e+03  1.1306669642697441e+03  1.1024003537298977e+03  1.0741337432154266e+03  1.0458671327580205e+03  1.0176005223915190e+03  9.8933391215318818e+02  9.6106730208512749e+02  9.3280069223586429e+02  9.0453408266219776e+02  8.7626747343137242e+02  8.4800086462366937e+02  8.1973425633551483e+02  7.9146764868325101e+02  7.6320104180773296e+02  7.3493443587996524e+02  7.0666783110804022e+02  6.7840122774573240e+02  6.5013462610319698e+02  6.2186802656037366e+02  5.9360142958386803e+02  5.6533483574840079e+02  5.3706824576426970e+02  5.0880166051284476e+02  4.8053508109292522e+02  4.5226850888199567e+02  4.2400194