<?xml version="1.0"?>
<VTKFile type="UnstructuredGrid"  version="0.1"  >
<UnstructuredGrid>
<Piece  NumberOfPoints="21400" NumberOfCells="42336">
<Points>
<DataArray  type="Float64"  NumberOfComponents="3"  format="ascii">0 0 0  0.004583333333333333 0 0  0.009166666666666667 0 0  0.01375 0 0  0.01833333333333333 0 0  0.02291666666666667 0 0  0.0275 0 0  0.03208333333333334 0 0  0.03666666666666667 0 0  0.04125 0 0  0.04583333333333334 0 0  0.05041666666666667 0 0  0.055 0 0  0.05958333333333334 0 0  0.06416666666666668 0 0  0.06875000000000001 0 0  0.07333333333333333 0 0  0.07791666666666666 0 0  0.08249999999999999 0 0  0.08708333333333333 0 0  0.09166666666666667 0 0  0.09625000000000002 0 0  0.1008333333333333 0 0  0.1054166666666667 0 0  0.11 0 0  0.1145833333333333 0 0  0.1191666666666667 0 0  0.12375 0 0  0.1283333333333334 0 0  0.1329166666666667 0 0  0.1375 0 0  0.1420833333333333 0 0  0.1466666666666667 0 0  0.15125 0 0  0.1558333333333333 0 0  0.1604166666666667 0 0  0.165 0 0  0.1695833333333333 0 0  0.1741666666666667 0 0  0.17875 0 0  0.1833333333333333 0 0  0.1879166666666667 0 0  0.1925 0 0  0.1970833333333333 0 0  0.2016666666666667 0 0  0.20625 0 0  0.2108333333333333 0 0  0.2154166666666666 0 0  0.22 0 0  0.2245833333333334 0 0  0.2291666666666667 0 0  0.23375 0 0  0.2383333333333333 0 0  0.2429166666666667 0 0  0.2475 0 0  0.2520833333333333 0 0  0.2566666666666667 0 0  0.26125 0 0  0.2658333333333334 0 0  0.2704166666666666 0 0  0.275 0 0  0.2795833333333334 0 0  0.2841666666666667 0 0  0.28875 0 0  0.2933333333333333 0 0  0.2979166666666667 0 0  0.3025 0 0  0.3070833333333334 0 0  0.3116666666666666 0 0  0.31625 0 0  0.3208333333333333 0 0  0.3254166666666667 0 0  0.33 0 0  0.3345833333333333 0 0  0.3391666666666667 0 0  0.34375 0 0  0.3483333333333333 0 0  0.3529166666666667 0 0  0.3575 0 0  0.3620833333333333 0 0  0.3666666666666667 0 0  0.37125 0 0  0.3758333333333334 0 0  0.3804166666666667 0 0  0.3850000000000001 0 0  0.3895833333333333 0 0  0.3941666666666667 0 0  0.39875 0 0  0.4033333333333334 0 0  0.4079166666666666 0 0  0.4125 0 0  0.4170833333333334 0 0  0.4216666666666667 0 0  0.42625 0 0  0.4308333333333333 0 0  0.4354166666666667 0 0  0.44 0 0  0.4445833333333333 0 0  0.4491666666666667 0 0  0.45375 0 0  0.4583333333333333 0 0  0.4629166666666666 0 0  0.4675 0 0  0.4720833333333334 0 0  0.4766666666666667 0 0  0.4812500000000001 0 0  0.4858333333333333 0 0  0.4904166666666667 0 0  0.495 0 0  0.4995833333333334 0 0  0.5041666666666667 0 0  0.50875 0 0  0.5133333333333334 0 0  0.5179166666666667 0 0  0.5225 0 0  0.5270833333333333 0 0  0.5316666666666667 0 0  0.53625 0 0  0.5408333333333333 0 0  0.5454166666666667 0 0  0.55 0 0  0.5545833333333333 0 0  0.5591666666666667 0 0  0.5637500000000001 0 0  0.5683333333333334 0 0  0.5729166666666666 0 0  0.5775 0 0  0.5820833333333334 0 0  0.5866666666666667 0 0  0.5912499999999999 0 0  0.5958333333333334 0 0  0.6004166666666667 0 0  0.605 0 0  0.6095833333333334 0 0  0.6141666666666667 0 0  0.61875 0 0  0.6233333333333333 0 0  0.6279166666666667 0 0  0.6325000000000001 0 0  0.6370833333333333 0 0  0.6416666666666666 0 0  0.64625 0 0  0.6508333333333334 0 0  0.6554166666666666 0 0  0.6599999999999999 0 0  0.6645833333333334 0 0  0.6691666666666667 0 0  0.67375 0 0  0.6783333333333333 0 0  0.6829166666666667 0 0  0.6875 0 0  0.6920833333333333 0 0  0.6966666666666667 0 0  0.70125 0 0  0.7058333333333333 0 0  0.7104166666666667 0 0  0.7150000000000001 0 0  0.7195833333333334 0 0  0.7241666666666666 0 0  0.72875 0 0  0.7333333333333334 0 0  0.7379166666666667 0 0  0.7425 0 0  0.7470833333333333 0 0  0.7516666666666667 0 0  0.75625 0 0  0.7608333333333334 0 0  0.7654166666666666 0 0  0.7700000000000001 0 0  0 0.002380952380952381 0  0.004583333333333333 0.002380952380952381 0  0.009166666666666667 0.002380952380952381 0  0.01375 0.002380952380952381 0  0.01833333333333333 0.002380952380952381 0  0.02291666666666667 0.002380952380952381 0  0.0275 0.002380952380952381 0  0.03208333333333334 0.002380952380952381 0  0.03666666666666667 0.002380952380952381 0  0.04125 0.002380952380952381 0  0.04583333333333334 0.002380952380952381 0  0.05041666666666667 0.002380952380952381 0  0.055 0.002380952380952381 0  0.05958333333333334 0.002380952380952381 0  0.06416666666666668 0.002380952380952381 0  0.06875000000000001 0.002380952380952381 0  0.07333333333333333 0.002380952380952381 0  0.07791666666666666 0.002380952380952381 0  0.08249999999999999 0.002380952380952381 0  0.08708333333333333 0.002380952380952381 0  0.09166666666666667 0.002380952380952381 0  0.09625000000000002 0.002380952380952381 0  0.1008333333333333 0.002380952380952381 0  0.1054166666666667 0.002380952380952381 0  0.11 0.002380952380952381 0  0.1145833333333333 0.002380952380952381 0  0.1191666666666667 0.002380952380952381 0  0.12375 0.002380952380952381 0  0.1283333333333334 0.002380952380952381 0  0.1329166666666667 0.002380952380952381 0  0.1375 0.002380952380952381 0  0.1420833333333333 0.002380952380952381 0  0.1466666666666667 0.002380952380952381 0  0.15125 0.002380952380952381 0  0.1558333333333333 0.002380952380952381 0  0.1604166666666667 0.002380952380952381 0  0.165 0.002380952380952381 0  0.1695833333333333 0.002380952380952381 0  0.1741666666666667 0.002380952380952381 0  0.17875 0.002380952380952381 0  0.1833333333333333 0.002380952380952381 0  0.1879166666666667 0.002380952380952381 0  0.1925 0.002380952380952381 0  0.1970833333333333 0.002380952380952381 0  0.2016666666666667 0.002380952380952381 0  0.20625 0.002380952380952381 0  0.2108333333333333 0.002380952380952381 0  0.2154166666666666 0.002380952380952381 0  0.22 0.002380952380952381 0  0.2245833333333334 0.002380952380952381 0  0.2291666666666667 0.002380952380952381 0  0.23375 0.002380952380952381 0  0.2383333333333333 0.002380952380952381 0  0.2429166666666667 0.002380952380952381 0  0.2475 0.002380952380952381 0  0.2520833333333333 0.002380952380952381 0  0.2566666666666667 0.002380952380952381 0  0.26125 0.002380952380952381 0  0.2658333333333334 0.002380952380952381 0  0.2704166666666666 0.002380952380952381 0  0.275 0.002380952380952381 0  0.2795833333333334 0.002380952380952381 0  0.2841666666666667 0.002380952380952381 0  0.28875 0.002380952380952381 0  0.2933333333333333 0.002380952380952381 0  0.2979166666666667 0.002380952380952381 0  0.3025 0.002380952380952381 0  0.3070833333333334 0.002380952380952381 0  0.3116666666666666 0.002380952380952381 0  0.31625 0.002380952380952381 0  0.3208333333333333 0.002380952380952381 0  0.3254166666666667 0.002380952380952381 0  0.33 0.002380952380952381 0  0.3345833333333333 0.002380952380952381 0  0.3391666666666667 0.002380952380952381 0  0.34375 0.002380952380952381 0  0.3483333333333333 0.002380952380952381 0  0.3529166666666667 0.002380952380952381 0  0.3575 0.002380952380952381 0  0.3620833333333333 0.002380952380952381 0  0.3666666666666667 0.002380952380952381 0  0.37125 0.002380952380952381 0  0.3758333333333334 0.002380952380952381 0  0.3804166666666667 0.002380952380952381 0  0.3850000000000001 0.002380952380952381 0  0.3895833333333333 0.002380952380952381 0  0.3941666666666667 0.002380952380952381 0  0.39875 0.002380952380952381 0  0.4033333333333334 0.002380952380952381 0  0.4079166666666666 0.002380952380952381 0  0.4125 0.002380952380952381 0  0.4170833333333334 0.002380952380952381 0  0.4216666666666667 0.002380952380952381 0  0.42625 0.002380952380952381 0  0.4308333333333333 0.002380952380952381 0  0.4354166666666667 0.002380952380952381 0  0.44 0.002380952380952381 0  0.4445833333333333 0.002380952380952381 0  0.4491666666666667 0.002380952380952381 0  0.45375 0.002380952380952381 0  0.4583333333333333 0.002380952380952381 0  0.4629166666666666 0.002380952380952381 0  0.4675 0.002380952380952381 0  0.4720833333333334 0.002380952380952381 0  0.4766666666666667 0.002380952380952381 0  0.4812500000000001 0.002380952380952381 0  0.4858333333333333 0.002380952380952381 0  0.4904166666666667 0.002380952380952381 0  0.495 0.002380952380952381 0  0.4995833333333334 0.002380952380952381 0  0.5041666666666667 0.002380952380952381 0  0.50875 0.002380952380952381 0  0.5133333333333334 0.002380952380952381 0  0.5179166666666667 0.002380952380952381 0  0.5225 0.002380952380952381 0  0.5270833333333333 0.002380952380952381 0  0.5316666666666667 0.002380952380952381 0  0.53625 0.002380952380952381 0  0.5408333333333333 0.002380952380952381 0  0.5454166666666667 0.002380952380952381 0  0.55 0.002380952380952381 0  0.5545833333333333 0.002380952380952381 0  0.5591666666666667 0.002380952380952381 0  0.5637500000000001 0.002380952380952381 0  0.5683333333333334 0.002380952380952381 0  0.5729166666666666 0.002380952380952381 0  0.5775 0.002380952380952381 0  0.5820833333333334 0.002380952380952381 0  0.5866666666666667 0.002380952380952381 0  0.5912499999999999 0.002380952380952381 0  0.5958333333333334 0.002380952380952381 0  0.6004166666666667 0.002380952380952381 0  0.605 0.002380952380952381 0  0.6095833333333334 0.002380952380952381 0  0.6141666666666667 0.002380952380952381 0  0.61875 0.002380952380952381 0  0.6233333333333333 0.002380952380952381 0  0.6279166666666667 0.002380952380952381 0  0.6325000000000001 0.002380952380952381 0  0.6370833333333333 0.002380952380952381 0  0.6416666666666666 0.002380952380952381 0  0.64625 0.002380952380952381 0  0.6508333333333334 0.002380952380952381 0  0.6554166666666666 0.002380952380952381 0  0.6599999999999999 0.002380952380952381 0  0.6645833333333334 0.002380952380952381 0  0.6691666666666667 0.002380952380952381 0  0.67375 0.002380952380952381 0  0.6783333333333333 0.002380952380952381 0  0.6829166666666667 0.002380952380952381 0  0.6875 0.002380952380952381 0  0.6920833333333333 0.002380952380952381 0  0.6966666666666667 0.002380952380952381 0  0.70125 0.002380952380952381 0  0.7058333333333333 0.002380952380952381 0  0.7104166666666667 0.002380952380952381 0  0.7150000000000001 0.002380952380952381 
[...]
<PointData  Scalars="pressure"> 
<DataArray  type="Float64"  Name="pressure"  format="ascii">1.2334714071167828e+04  1.2172283250597486e+04  1.2018463599369059e+04  1.1865845601304700e+04  1.1713877919764755e+04  1.1562231056699506e+04  1.1410785342525354e+04  1.1259473143276960e+04  1.1108254876915407e+04  1.0957105158229779e+04  1.0806006857771259e+04  1.0654947932729017e+04  1.0503919653224077e+04  1.0352915539897012e+04  1.0201930696510963e+04  1.0050961373415803e+04  9.9000046724779095e+03  9.7490583422194195e+03  9.5981206325659696e+03  9.4471901902906684e+03  9.2962659831281599e+03  9.1453472447385266e+03  8.9944334353588110e+03  8.8435242147203098e+03  8.6926194249943783e+03  8.5417190823755427e+03  8.3908233765545319e+03  8.2399326778639988e+03  8.0890475523626164e+03  7.9381687856107765e+03  7.7872974164345187e+03  7.6364347826297490e+03  7.4855825813962065e+03  7.3347429484047580e+03  7.1839185609247043e+03  7.0331127725584547e+03  6.8823297901193446e+03  6.7315749074235464e+03  6.5808548167631525e+03  6.4301780272143069e+03  6.2795554302273295e+03  6.1290010674065361e+03  5.9785331674894642e+03  5.8281755304495455e+03  5.6779592019520333e+03  5.5279249346702572e+03  5.3781197106092550e+03  5.2286185321958528e+03  5.0794065795112456e+03  4.9306721849929891e+03  4.7755532101190875e+03  3.3757947274585281e+03  3.2850492849929701e+03  3.2474405584582732e+03  3.2192917306072850e+03  3.1917070191928356e+03  3.1639333568354336e+03  3.1360755400677458e+03  3.1081258342913384e+03  3.0801055721969033e+03  3.0520308698498488e+03  3.0239147148531570e+03  2.9957668649289008e+03  2.9675946124863563e+03  2.9394034141709508e+03  2.9111973838634412e+03  2.8829796524268272e+03  2.8547526262296747e+03  2.8265181724314352e+03  2.7982777525105807e+03  2.7700325193810681e+03  2.7417833888044511e+03  2.7135310925124386e+03  2.6852762181820958e+03  2.6570192398521044e+03  2.6287605413064107e+03  2.6005004342226521e+03  2.5722391723785113e+03  2.5439769628573304e+03  2.5157139749463208e+03  2.4874503472438801e+03  2.4591861933652144e+03  2.4309216065425485e+03  2.4026566633478155e+03  2.3743914267146224e+03  2.3461259483978874e+03  2.3178602709801999e+03  2.2895944295114973e+03  2.2613284528511385e+03  2.2330623647678058e+03  2.2047961848419045e+03  2.1765299292065897e+03  2.1482636111567253e+03  2.1199972416496053e+03  2.0917308297169061e+03  2.0634643828037356e+03  2.0351979070477787e+03  2.0069314075091893e+03  1.9786648883599673e+03  1.9503983530399892e+03  1.9221318043855829e+03  1.8938652447354907e+03  1.8655986760182157e+03  1.8373320998240226e+03  1.8090655174642920e+03  1.7807989300204506e+03  1.7525323383843327e+03  1.7242657432914325e+03  1.6959991453483524e+03  1.6677325450554169e+03  1.6394659428253415e+03  1.6111993389986094e+03  1.5829327338561825e+03  1.5546661276299671e+03  1.5263995205114636e+03  1.4981329126589064e+03  1.4698663042031653e+03  1.4415996952526241e+03  1.4133330858972174e+03  1.3850664762117879e+03  1.3567998662588789e+03  1.3285332560910576e+03  1.3002666457528837e+03  1.2720000352825655e+03  1.2437334247133895e+03  1.2154668140749554e+03  1.1872002033942867e+03  1.1589335926968390e+03  1.1306669820074483e+03  1.1024003713512627e+03  1.0741337607546834e+03  1.0458671502463619e+03  1.0176005398582705e+03  9.8933392962691664e+02  9.6106731959472904e+02  9.3280070981167228e+02  9.0453410033716091e+02  8.7626749124235596e+02  8.4800088261293001e+02  8.1973427455243177e+02  7.9146766718639276e+02  7.6320106066737890e+02  7.3493445518122473e+02  7.0666785095477303e+02  6.7840124826552949e+02  6.5013464745380122e+02  6.2186804893805686e+02  5.9360145323450979e+02  5.6533486098235630e+02  5.3706827297663233e+02  5.0880169021151755e+02  4.8053511393822572e+02  4.5226854574362272e+02  4.2400198765890866e+02  3.9573544231288747e+02  3.6746891315300519e+02  3.3920240477224297e+02  3.1093592340630653e+02  2.8266947771514333e+02  2.5440308005100920e+02  2.2613674865384885e+02  1.9787051121624128e+02  1.6960441451915645e+02  1.4133851892994537e+02  1.1307309740021208e+02  8.4807248965505011e+01  5.6551537993895842e+01  2.8205951007850242e+01  7.9925960189981804e-01  1.2326431502249148e+04  1.2172332615599180e+04  1.2018279861260731e+04  1.1865793735300507e+04  1.1713843898290117e+04  1.1562210342721855e+04  1.1410771288347602e+04  1.1259463204715677e+04  1.1108247590412209e+04  1.0957099677824153e+04  1.0806002653715797e+04  1.0654944657529066e+04  1.0503917069373854e+04  1.0352913479578323e+04  1.0201929037757272e+04  1.0050960025399418e+04  9.9000035660694084e+03  9.7490574237183700e+03  9.5981198594027628e+03  9.4471895279876044e+03  9.2962654030824488e+03  9.1453467225493350e+03  8.9944329495157508e+03  8.8435237455284350e+03  8.6926189536461152e+03  8.5417185901012308e+03  8.3908228437949474e+03  8.2399320834132232e+03  8.0890468724289576e+03  7.9381679927373771e+03  7.7872964782092758e+03  7.6364336600945535e+03  7.4855812270359038e+03  7.3347413035522914e+03  7.1839165523547153e+03  7.0331103079482091e+03  6.8823267519207111e+03  6.7315711444974713e+03  6.5808501328623852e+03  6.4301721650467225e+03  6.2795480495275615e+03  6.1289917149130924e+03  5.9785212391085179e+03  5.8281602183779432e+03  5.6779395487054480e+03  5.5278991163683067e+03  5.3780901612170856e+03  5.2285685495759080e+03  5.0793867681769407e+03  4.9301769769523562e+03  4.7811508173881521e+03  4.6387017724443922e+03  4.5081893333241333e+03  3.2461145445198135e+03  3.2194694002221599e+03  3.1916915156169393e+03  3.1639483926024350e+03  3.1360849376736578e+03  3.1081335971836143e+03  3.0801114557902811e+03  3.0520353567347152e+03  3.0239181463610848e+03  2.9957695104380241e+03  2.9675966696895102e+03  2.9394050275669215e+03  2.9111986591867721e+03  2.8829806676562312e+03  2.8547534394579839e+03  2.8265188274139764e+03  2.7982782825647864e+03  2.7700329501402107e+03  2.7417837401786992e+03  2.7135313801001366e+03  2.6852764542971490e+03  2.6570194342807745e+03  2.6287607018714089e+03  2.6005005672083844e+03  2.5722392828551283e+03  2.5439770549301634e+03  2.5157140519496484e+03  2.4874504118927080e+03  2.4591862478750572e+03  2.4309216527245826e+03  2.4026567026848888e+03  2.3743914604222937e+03  2.3461259774736359e+03  2.3178602962432565e+03  2.2895944516351751e+03  2.2613284723891497e+03  2.2330623821757267e+03  2.2047962004947221e+03  2.1765299434130598e+03  2.1482636241711371e+03  2.1199972536814403e+03  2.0917308409387651e+03  2.0634643933578527e+03  2.0351979170513798e+03  2.0069314170588987e+03  1.9786648975354344e+03  1.9503983619068772e+03  1.9221318129980250e+03  1.8938652531381185e+03  1.8655986842478296e+03  1.8373321079109639e+03  1.8090655254335763e+03  1.7807989378927082e+03  1.7525323461765699e+03  1.7242657510176737e+03  1.6959991530201596e+03  1.6677325526823231e+03  1.6394659504152039e+03  1.6111993465579055e+03  1.5829327413902481e+03  1.5546661351431990e+03  1.5263995280074807e+03  1.4981329201406861e+03  1.4698663116731548e+03  1.4415997027128299e+03  1.4133330933492828e+03  1.3850664836570520e+03  1.3567998736984255e+03  1.3285332635257610e+03  1.3002666531834336e+03  1.2720000427094997e+03  1.2437334321371093e+03  1.2154668214957430e+03  1.1872002108123145e+03  1.1589336001121758e+03  1.1306669894200629e+03  1.1024003787610216e+03  1.0741337681613461e+03  1.0458671576495703e+03  1.0176005472575371e+03  9.8933393702160447e+02  9.6106732698402584e+02  9.3280071719455918e+02  9.0453410771237304e+02  8.7626749860832899e+02  8.4800088996773820e+02  8.1973428189370588e+02  7.9146767451122071e+02  7.6320106797217659e+02  7.3493446246157703e+02  7.0666785820522523e+02  6.7840125547932314e+02  6.5013465462252964e+02  6.2186805605121128e+02  5.9360146027887754e+02  5.6533486794120847e+02  5.3706827982861159e+02  5.0880169692909010e+02  4.8053512048548583e+02  4.5226855207311814e+02  4.2400199370694787e+02  3.9573544799243342e+02  3.6746891834263050e+02  3.3920240929843345e+02  3.1093592701429327e+02  2.8266948001790718e+02  2.5440308044542556e+02  2.2613674610067415e+02  1.9787050432496252e+02  1.6960439735189297e+02  1.4133850851251381e+02  1.1307288684506149e+02  8.4808461688545975e+01  5.6540124275837208e+01  2.8309264635070811e+01  -4.3494475677996955e-02  1.2322762196754018e+04  1.2170832018304309e+04  1.2017900600089271e+04  1.1865592755467296e+04  1.1713731986208304e+04  1.1562139136307724e+04  1.1410723089291749e+04  1.1259428966224199e+04  1.1108222434801188e+04  1.0957080721087485e+04  1.0805988088079181e+04  1.0654933292522812e+04  1.0503908089481152e+04  1.0352906307498704e+04  1.0201923253331383e+04  1.0050955315394212e+04  9.8999996918792713e+03  9.7490541998721656e+03  9.5981171388038820e+03  9.4471871914638159e+03  9.2962633517534705e+03  9.1453448720623310e+03  8.9944312255231634e+03  8.8435220799798972e+03  8.6926172815869068e+03  8.5417168467423508e+03  8.3908209616601926e+03  8.2399299893858806e+03  8.0890444845183456e+03  7.9381652163649860e+03  7.7872932017731673e+03  7.6364297495038791e+03  7.4855765188062078e+03  7.3347355959026299e+03  7.1839095935287969e+03  7.0331017806636937e+03  6.8823162523915380e+03  6.7315581538203842e+03  6.5808339776548019e+03  6.4301519630641915e+03  6.2795226347117150e+03  6.1289595357848502e+03  5.9784802266960287e+03  5.8281076412783941e+03  5.6778718600971297e+03  5.5278123262600702e+03  5.3779804075364173e+03  5.2284370688723247e+03  5.0792353195910691e+03  4.9303809361352723e+03  4.7831626437584919e+03  4.6337079464491344e+03  3.2816555852009565e+03  3.2476370894595498e+03  3.2192467060201334e+03  3.1917533995983017e+03  3.1639863175818437e+03  3.1361192654600081e+03  3.1081600411284135e+03  3.0801316603081073e+03  3.0520507221976636e+03  3.0239298931529233e+03  2.9957785607233982e+03  2.9676037023492572e+03  2.9394105377915098e+03  2.9112030093037497e+03  2.8829841249166484e+03  2.8547562030292361e+03  2.8265210473707707e+03  2.7982800732305591e+03  2.7700343995078574e+03  2.7417849166211722e+03  2.7135323372016778e+03  2.6852772343719221e+03  2.6570200709661117e+03  2.6287612220616311e+03  2.6005009925133404e+03  2.5722396307121571e+03  2.5439773394603458e+03  2.5157142846232186e+03  2.4874506020504673e+03  2.4591864031399664e+03  2.4309217793288044e+03  2.4026568057311242e+03  2.3743915440936526e+03  2.3461260452028887e+03  2.3178603508498272e+03  2.2895944954363713e+03  2.2613285072906933e+03  2.2330624097456189e+03  2.2047962220236045e+03  2.1765299599636278e+03  2.1482636366186384e+03  2.1199972627468965e+03  2.0917308472162617e+03  2.0634643973369584e+03  2.0351979191355852e+03  2.0069314175807851e+03  1.9786648967691606e+03  1.9503983600784552e+03  1.9221318102937862e+03  1.8938652497116884e+03  1.8655986802258715e+03  1.8373321033979153e+03  1.8090655205155490e+03  1.7807989326407035e+03  1.7525323406491316e+03  1.7242657452630724e+03  1.6959991470781924e+03  1.6677325465858014e+03  1.6394659441911740e+03  1.6111993402286610e+03  1.5829327349741588e+03  1.5546661286553956e+03  1.5263995214604208e+03  1.4981329135446190e+03  1.4698663050365003e+03  1.4415996960424973e+03  1.4133330866509241e+03  1.3850664769352750e+03  1.3567998669569649e+03  1.3285332567676166e+03  1.3002666464109850e+03  1.2720000359245910e+03  1.2437334253411213e+03  1.2154668146896424e+03  1.1872002039966906e+03  1.1589335932872616e+03  1.1306669825857439e+03  1.1024003719168318e+03  1.0741337613064472e+03  1.0458671507827219e+03  1.0176005403770471e+03  9.8933393012526267e+02  9.6106732006901859e+02  9.3280071025735811e+02  9.0453410074859335e+02  8.7626749161255407e+02  8.4800088293329691e+02  8.1973427481239537e+02  7.9146766737295582e+02  7.6320106076455102e+02  7.3493445516930410e+02  7.0666785080942543e+02  6.7840124795660904e+02  6.5013464694381287e+02  6.2186804818014230e+02  5.9360145216976707e+02  5.6533485953622824e+02  5.3706827105396565e+02  5.0880168768968940e+02  4.8053511065740605e+02  4.5226854149270531e+02  4.2400198215473534e+02  3.9573543516883348e+02  3.6746890383021605e+02  3.3920239250170278e+02  3.1093590706021524e+02  2.8266945558625281e+02  2.5440304946153861e+02  2.2613670519784571e+02  1.9787044747982446e+02  1.6960431552178542e+02  1.4133836852337254e+02  1.1307274709466682e+02  8.4807457143754647e+01  5.6544055776907200e+01  2.8285121436746920e+01  5.6319887886005521e-03  1.2320590686911122e+04  1.2169403809237567e+04  1.2017291573365930e+04  1.1865284628218560e+04  1.1713549631529146e+04  1.1562021822382212e+04  1.1410642761247880e+04  1.1259371546265378e+04  1.1108180061786034e+04  1.0957048692704622e+04  1.0805963424359832e+04  1.0654914016609306e+04  1.0503892839542310e+04  1.0352894115392462e+04  1.0201913412108335e+04  1.0050947296639508e+04  9.8999930922329459e+03  9.7490487052706885e+03  9.5981124998250016e+03  9.4471832058111449e+03  9.2962598514263536e+03  9.1453417136411026e+03  8.9944282825314131e+03  8.8435192366101164e+03  8.6926144272753208e+03  8.5417138711988773e+03  8.3908177500263919e+03  8.2399264172218645e+03  8.0890404123157741e+03  7.9381604832485937e+03  7.7872876179842287e+03  7.6364230871473319e+03  7.4855685001734264e+03  7.3347258784314854e+03  7.1838977500963210e+03  7.0330872733738252e+03  6.8822983972498123e+03  6.7315360725856772e+03  6.5808065316229795e+03  6.4301176615180684e+03  6.2794795084495399e+03  6.1289049645394598e+03  5.9784107127138768e+03  5.8280185362556485e+03  5.6777571357880042e+03  5.5276647248506870e+03  5.3777925662090520e+03  5.2282085710287220e+03  5.0790071037471898e+03  4.9304552865300102e+03  4.7830095652417212e+03  4.6398916060264783e+03  4.5075941024482172e+03  3.2453974227969379e+03  3.2194490342772924e+03  3.1918101074942965e+03  3.1640598161523330e+03  3.1361773567434989e+03  3.1082050388010443e+03  3.0801658447059413e+03  3.0520767055380943e+03  3.0239497595524977e+03  2.9957938759254880e+03  2.9676156116571815e+03  2.9394198753572737e+03  2.9112103853891458e+03  2.8829899899432012e+03  2.8547608929985390e+03  2.8265248157380238e+03  2.7982831132802226e+03  2.7700368601587256e+03  2.7417869136941304e+03  2.7135339615407411e+03  2.6852785577660543e+03  2.6570211505190264e+03  2.6287621034543549e+03  2.6005017124677806e+03  2.5722402188712722e+03  2.5439778198373779e+03  2.5157146767289232e+03  2.4874509217770901e+03  2.4591866634595381e+03  2.4309219908483124e+03  2.4026569771363938e+03  2.3743916825059582e+03  2.3461261564666684e+03  2.3178604397656391e+03  2.2895945659500690e+03  2.2613285626474667e+03  2.2330624526156748e+03  2.2047962546049039e+03  2.1765299840659923e+03  2.1482636537326889e+03  2.1199972741006227e+03  2.0917308538214775e+03  2.0634644000274843e+03  2.0351979185986427e+03  2.0069314143828306e+03  1.9786648913771437e+03  1.9503983528773265e+03  1.9221318016009138e+03  1.8938652397887333e+03  1.8655986692885747e+03  1.8373320916241594e+03  1.8090655080520037e+03  1.7807989196083045e+03  1.7525323271475945e+03  1.7242657313746133e+03  1.6959991328705989e+03  1.6677325321149583e+03  1.6394659295031506e+03  1.6111993253614266e+03  1.5829327199590027e+03  1.5546661135180893e+03  1.5263995062221848e+03  1.4981328982229077e+03  1.4698662896456583e+03  1.4415996805942902e+03  1.4133330711549797e+03  1.3850664613994406e+03  1.3567998513876018e+03  1.3285332411698344e+03  1.3002666307888351e+03  1.2720000202812157e+03  1.2437334096788697e+03  1.2154667990101614e+03  1.1872001883009821e+03  1.1589335775757213e+03  1.1306669668581771e+03  1.1024003561724405e+03  1.0741337455438033e+03  1.0458671349997096e+03  1.0176005245707805e+03  9.8933391429197479e+02  9.6106730420391341e+02  9.3280069435442147e+02  9.0453408480035318e+02  8.7626747560977992e+02  8.4800086686462294e+02  8.1973425866384594e+02  7.9146765112735500e+02  7.6320104440077171e+02  7.3493443866132236e+02  7.0666783412511165e+02  6.7840123105617465e+02  6.5013462977779761e+02  6.2186803068677102e+02  5.9360143427144453e+02  5.6533484113482348e+02  5.3706825202437335e+02  5.0880166787089411e+02  4.8053508983985944e+02  4.5226851940014177e+02  4.2400195841741964e+02  3.9573540928327702e+02  3.6746887509695682e+02  3.3920235992645092e+02  3.1093586919182667e+02  2.8266941024128971e+02  2.5440299323965613e+02  2.2613663256856398e+02  1.9787034913867839e+02  1.6960417398788374e+02  1.4133815603284219e+02  1.1307236827056222e+02  8.4806939090888605e+01  5.6542509717810809e+01  2.8277085991246132e+01  -4.2735393685264922e-04  1.2319077486855394e+04  1.2168202587529137e+04  1.2016608146810398e+04  1.1864899914384248e+04  1.1713312334302482e+04  1.1561865112551437e+04  1.1410533880099623e+04  1.1259292971748720e+04  1.1108121711793268e+04  1.0957004395853946e+04  1.0805929208804044e+04  1.0654887217288122e+04  1.0503871604883600e+04  1.0352877120516021e+04  1.0201899684669314e+04  1.0050936106943584e+04  9.8999838814933591e+03  9.7490410372803617e+03  9.5981060274274569e+03  9.4471776469550186e+03  9.2962549715452988e+03  9.1453373122593712e+03  8.9944241826969537e+03  8.8435152761885874e+03  8.6926104514046619e+03  8.5417097253651191e+03  8.3908132733110506e+03  8.2399214353087882e+03  8.0890347298394181e+03  7.9381538750177924e+03  7.7872798185210768e+03  7.6364137778276272e+03  7.4855572930234530e+03  7.3347122952936779e+03  7.1838811953760560e+03  7.0330669978509959e+03  6.8822734493820844e+03  6.7315052322099200e+03  6.5807682188143344e+03  6.4300698104535722e+03  6.2794193925215677e+03  6.1288289556124355e+03  5.9783139576518533e+03  5.8278945490609158e+03  5.6775973738527400e+03  5.5274584016721956e+03  5.3775276620096483e+03  5.2278786609926656e+03  5.0786398167174502e+03  4.9301277086292293e+03  4.7826639845305117e+03  4.6393772019961916e+03  4.5072454482025842e+03  3.2453891213886100e+03  3.2195486189213289e+03  3.1919311484141895e+03  3.1641644044158088e+03  3.1362596694710674e+03  3.1082677767965592e+03  3.0802133332352546e+03  3.0521127705537060e+03  3.0239773542865696e+03  2.9958151770464337e+03  2.9676322010356757e+03  2.9394329026888508e+03  2.9112206919132959e+03  2.8829981972855785e+03  2.8547674656166382e+03  2.8265301045904116e+03  2.7982873864613157e+03  2.7700403245529483e+03  2.7417897304357352e+03  2.7135362571761798e+03  2.6852804324092867e+03  2.6570226838812296e+03  2.6287633593543969e+03  2.6005027422441904e+03  2.5722410639906075e+03  2.5439785139078008e+03  2.5157152470685401e+03  2.4874513906453553e+03  2.4591870490310430e+03  2.4309223079877156e+03  2.4026572380184994e+03  2.3743918971142421e+03  2.3461263329957305e+03  2.3178605849472037e+03  2.2895946853178630e+03  2.2613286607529512e+03  2.2330625332041259e+03  2.2047963207593871e+03  2.1765300383252443e+03  2.1482636981877608e+03  2.1199973104741994e+03  2.0917308835330182e+03  2.0634644242467648e+03  2.0351979382897925e+03  2.0069314303405613e+03  1.9786649042565753e+03  1.9503983632185384e+03  1.9221318098491715e+03  1.8938652463111498e+03  1.8655986743878368e+03  1.8373320955498386e+03  1.8090655110098835e+03  1.7807989217680602e+03  1.7525323286491298e+03  1.7242657323332819e+03  1.6959991333815074e+03  1.6677325322565166e+03  1.6394659293399943e+03  1.6111993249468296e+03  1.5829327193368631e+03  1.5546661127245686e+03  1.5263995052870532e+03  1.4981328971706571e+03  1.4698662884964126e+03  1.4415996793645581e+03  1.4133330698582688e+03  1.3850664600467624e+03  1.3567998499878788e+03  1.3285332397302379e+03  1.3002666293150473e+03  1.2720000187776445e+03  1.2437334081488129e+03  1.2154667974559275e+03  1.1872001867239774e+03  1.1589335759765015e+03  1.1306669652364651e+03  1.1024003545271187e+03  1.0741337438728660e+03  1.0458671333001871e+03  1.0176005228386246e+03  9.8933391252190029e+02  9.6106730238919124e+02  9.3280069248661471e+02  9.0453408286898184e+02  8.7626747360189984e+02  8.4800086476429681e+02  8.1973425645148473e+02  7.9146764877888677e+02  7.6320104188659957e+02  7.3493443594500275e+02  7.0666783116167335e+02  6.7840122778996033e+02  6.5013462613966851e+02  6.2186802659044861e+02  5.9360142960866733e+02  5.6533483576884873e+02  5.3706824578112889e+02  5.0880166052674355e+02  4.8053508110438196e+02  4.5226850889143736e+02  4.2400194