<?xml version="1.0"?>
<VTKFile type="UnstructuredGrid"  version="0.1"  >
<UnstructuredGrid>
<Piece  NumberOfPoints="21400" NumberOfCells="42336">
<Points>
<DataArray  type="Float64"  NumberOfComponents="3"  format="ascii">0 0 0  0.004583333333333333 0 0  0.009166666666666667 0 0  0.01375 0 0  0.01833333333333333 0 0  0.02291666666666667 0 0  0.0275 0 0  0.03208333333333334 0 0  0.03666666666666667 0 0  0.04125 0 0  0.04583333333333334 0 0  0.05041666666666667 0 0  0.055 0 0  0.05958333333333334 0 0  0.06416666666666668 0 0  0.06875000000000001 0 0  0.07333333333333333 0 0  0.07791666666666666 0 0  0.08249999999999999 0 0  0.08708333333333333 0 0  0.09166666666666667 0 0  0.09625000000000002 0 0  0.1008333333333333 0 0  0.1054166666666667 0 0  0.11 0 0  0.1145833333333333 0 0  0.1191666666666667 0 0  0.12375 0 0  0.1283333333333334 0 0  0.1329166666666667 0 0  0.1375 0 0  0.1420833333333333 0 0  0.1466666666666667 0 0  0.15125 0 0  0.1558333333333333 0 0  0.1604166666666667 0 0  0.165 0 0  0.1695833333333333 0 0  0.1741666666666667 0 0  0.17875 0 0  0.1833333333333333 0 0  0.1879166666666667 0 0  0.1925 0 0  0.1970833333333333 0 0  0.2016666666666667 0 0  0.20625 0 0  0.2108333333333333 0 0  0.2154166666666666 0 0  0.22 0 0  0.2245833333333334 0 0  0.2291666666666667 0 0  0.23375 0 0  0.2383333333333333 0 0  0.2429166666666667 0 0  0.2475 0 0  0.2520833333333333 0 0  0.2566666666666667 0 0  0.26125 0 0  0.2658333333333334 0 0  0.2704166666666666 0 0  0.275 0 0  0.2795833333333334 0 0  0.2841666666666667 0 0  0.28875 0 0  0.2933333333333333 0 0  0.2979166666666667 0 0  0.3025 0 0  0.3070833333333334 0 0  0.3116666666666666 0 0  0.31625 0 0  0.3208333333333333 0 0  0.3254166666666667 0 0  0.33 0 0  0.3345833333333333 0 0  0.3391666666666667 0 0  0.34375 0 0  0.3483333333333333 0 0  0.3529166666666667 0 0  0.3575 0 0  0.3620833333333333 0 0  0.3666666666666667 0 0  0.37125 0 0  0.3758333333333334 0 0  0.3804166666666667 0 0  0.3850000000000001 0 0  0.3895833333333333 0 0  0.3941666666666667 0 0  0.39875 0 0  0.4033333333333334 0 0  0.4079166666666666 0 0  0.4125 0 0  0.4170833333333334 0 0  0.4216666666666667 0 0  0.42625 0 0  0.4308333333333333 0 0  0.4354166666666667 0 0  0.44 0 0  0.4445833333333333 0 0  0.4491666666666667 0 0  0.45375 0 0  0.4583333333333333 0 0  0.4629166666666666 0 0  0.4675 0 0  0.4720833333333334 0 0  0.4766666666666667 0 0  0.4812500000000001 0 0  0.4858333333333333 0 0  0.4904166666666667 0 0  0.495 0 0  0.4995833333333334 0 0  0.5041666666666667 0 0  0.50875 0 0  0.5133333333333334 0 0  0.5179166666666667 0 0  0.5225 0 0  0.5270833333333333 0 0  0.5316666666666667 0 0  0.53625 0 0  0.5408333333333333 0 0  0.5454166666666667 0 0  0.55 0 0  0.5545833333333333 0 0  0.5591666666666667 0 0  0.5637500000000001 0 0  0.5683333333333334 0 0  0.5729166666666666 0 0  0.5775 0 0  0.5820833333333334 0 0  0.5866666666666667 0 0  0.5912499999999999 0 0  0.5958333333333334 0 0  0.6004166666666667 0 0  0.605 0 0  0.6095833333333334 0 0  0.6141666666666667 0 0  0.61875 0 0  0.6233333333333333 0 0  0.6279166666666667 0 0  0.6325000000000001 0 0  0.6370833333333333 0 0  0.6416666666666666 0 0  0.64625 0 0  0.6508333333333334 0 0  0.6554166666666666 0 0  0.6599999999999999 0 0  0.6645833333333334 0 0  0.6691666666666667 0 0  0.67375 0 0  0.6783333333333333 0 0  0.6829166666666667 0 0  0.6875 0 0  0.6920833333333333 0 0  0.6966666666666667 0 0  0.70125 0 0  0.7058333333333333 0 0  0.7104166666666667 0 0  0.7150000000000001 0 0  0.7195833333333334 0 0  0.7241666666666666 0 0  0.72875 0 0  0.7333333333333334 0 0  0.7379166666666667 0 0  0.7425 0 0  0.7470833333333333 0 0  0.7516666666666667 0 0  0.75625 0 0  0.7608333333333334 0 0  0.7654166666666666 0 0  0.7700000000000001 0 0  0 0.002380952380952381 0  0.004583333333333333 0.002380952380952381 0  0.009166666666666667 0.002380952380952381 0  0.01375 0.002380952380952381 0  0.01833333333333333 0.002380952380952381 0  0.02291666666666667 0.002380952380952381 0  0.0275 0.002380952380952381 0  0.03208333333333334 0.002380952380952381 0  0.03666666666666667 0.002380952380952381 0  0.04125 0.002380952380952381 0  0.04583333333333334 0.002380952380952381 0  0.05041666666666667 0.002380952380952381 0  0.055 0.002380952380952381 0  0.05958333333333334 0.002380952380952381 0  0.06416666666666668 0.002380952380952381 0  0.06875000000000001 0.002380952380952381 0  0.07333333333333333 0.002380952380952381 0  0.07791666666666666 0.002380952380952381 0  0.08249999999999999 0.002380952380952381 0  0.08708333333333333 0.002380952380952381 0  0.09166666666666667 0.002380952380952381 0  0.09625000000000002 0.002380952380952381 0  0.1008333333333333 0.002380952380952381 0  0.1054166666666667 0.002380952380952381 0  0.11 0.002380952380952381 0  0.1145833333333333 0.002380952380952381 0  0.1191666666666667 0.002380952380952381 0  0.12375 0.002380952380952381 0  0.1283333333333334 0.002380952380952381 0  0.1329166666666667 0.002380952380952381 0  0.1375 0.002380952380952381 0  0.1420833333333333 0.002380952380952381 0  0.1466666666666667 0.002380952380952381 0  0.15125 0.002380952380952381 0  0.1558333333333333 0.002380952380952381 0  0.1604166666666667 0.002380952380952381 0  0.165 0.002380952380952381 0  0.1695833333333333 0.002380952380952381 0  0.1741666666666667 0.002380952380952381 0  0.17875 0.002380952380952381 0  0.1833333333333333 0.002380952380952381 0  0.1879166666666667 0.002380952380952381 0  0.1925 0.002380952380952381 0  0.1970833333333333 0.002380952380952381 0  0.2016666666666667 0.002380952380952381 0  0.20625 0.002380952380952381 0  0.2108333333333333 0.002380952380952381 0  0.2154166666666666 0.002380952380952381 0  0.22 0.002380952380952381 0  0.2245833333333334 0.002380952380952381 0  0.2291666666666667 0.002380952380952381 0  0.23375 0.002380952380952381 0  0.2383333333333333 0.002380952380952381 0  0.2429166666666667 0.002380952380952381 0  0.2475 0.002380952380952381 0  0.2520833333333333 0.002380952380952381 0  0.2566666666666667 0.002380952380952381 0  0.26125 0.002380952380952381 0  0.2658333333333334 0.002380952380952381 0  0.2704166666666666 0.002380952380952381 0  0.275 0.002380952380952381 0  0.2795833333333334 0.002380952380952381 0  0.2841666666666667 0.002380952380952381 0  0.28875 0.002380952380952381 0  0.2933333333333333 0.002380952380952381 0  0.2979166666666667 0.002380952380952381 0  0.3025 0.002380952380952381 0  0.3070833333333334 0.002380952380952381 0  0.3116666666666666 0.002380952380952381 0  0.31625 0.002380952380952381 0  0.3208333333333333 0.002380952380952381 0  0.3254166666666667 0.002380952380952381 0  0.33 0.002380952380952381 0  0.3345833333333333 0.002380952380952381 0  0.3391666666666667 0.002380952380952381 0  0.34375 0.002380952380952381 0  0.3483333333333333 0.002380952380952381 0  0.3529166666666667 0.002380952380952381 0  0.3575 0.002380952380952381 0  0.3620833333333333 0.002380952380952381 0  0.3666666666666667 0.002380952380952381 0  0.37125 0.002380952380952381 0  0.3758333333333334 0.002380952380952381 0  0.3804166666666667 0.002380952380952381 0  0.3850000000000001 0.002380952380952381 0  0.3895833333333333 0.002380952380952381 0  0.3941666666666667 0.002380952380952381 0  0.39875 0.002380952380952381 0  0.4033333333333334 0.002380952380952381 0  0.4079166666666666 0.002380952380952381 0  0.4125 0.002380952380952381 0  0.4170833333333334 0.002380952380952381 0  0.4216666666666667 0.002380952380952381 0  0.42625 0.002380952380952381 0  0.4308333333333333 0.002380952380952381 0  0.4354166666666667 0.002380952380952381 0  0.44 0.002380952380952381 0  0.4445833333333333 0.002380952380952381 0  0.4491666666666667 0.002380952380952381 0  0.45375 0.002380952380952381 0  0.4583333333333333 0.002380952380952381 0  0.4629166666666666 0.002380952380952381 0  0.4675 0.002380952380952381 0  0.4720833333333334 0.002380952380952381 0  0.4766666666666667 0.002380952380952381 0  0.4812500000000001 0.002380952380952381 0  0.4858333333333333 0.002380952380952381 0  0.4904166666666667 0.002380952380952381 0  0.495 0.002380952380952381 0  0.4995833333333334 0.002380952380952381 0  0.5041666666666667 0.002380952380952381 0  0.50875 0.002380952380952381 0  0.5133333333333334 0.002380952380952381 0  0.5179166666666667 0.002380952380952381 0  0.5225 0.002380952380952381 0  0.5270833333333333 0.002380952380952381 0  0.5316666666666667 0.002380952380952381 0  0.53625 0.002380952380952381 0  0.5408333333333333 0.002380952380952381 0  0.5454166666666667 0.002380952380952381 0  0.55 0.002380952380952381 0  0.5545833333333333 0.002380952380952381 0  0.5591666666666667 0.002380952380952381 0  0.5637500000000001 0.002380952380952381 0  0.5683333333333334 0.002380952380952381 0  0.5729166666666666 0.002380952380952381 0  0.5775 0.002380952380952381 0  0.5820833333333334 0.002380952380952381 0  0.5866666666666667 0.002380952380952381 0  0.5912499999999999 0.002380952380952381 0  0.5958333333333334 0.002380952380952381 0  0.6004166666666667 0.002380952380952381 0  0.605 0.002380952380952381 0  0.6095833333333334 0.002380952380952381 0  0.6141666666666667 0.002380952380952381 0  0.61875 0.002380952380952381 0  0.6233333333333333 0.002380952380952381 0  0.6279166666666667 0.002380952380952381 0  0.6325000000000001 0.002380952380952381 0  0.6370833333333333 0.002380952380952381 0  0.6416666666666666 0.002380952380952381 0  0.64625 0.002380952380952381 0  0.6508333333333334 0.002380952380952381 0  0.6554166666666666 0.002380952380952381 0  0.6599999999999999 0.002380952380952381 0  0.6645833333333334 0.002380952380952381 0  0.6691666666666667 0.002380952380952381 0  0.67375 0.002380952380952381 0  0.6783333333333333 0.002380952380952381 0  0.6829166666666667 0.002380952380952381 0  0.6875 0.002380952380952381 0  0.6920833333333333 0.002380952380952381 0  0.6966666666666667 0.002380952380952381 0  0.70125 0.002380952380952381 0  0.7058333333333333 0.002380952380952381 0  0.7104166666666667 0.002380952380952381 0  0.7150000000000001 0.002380952380952381 
[...]
<PointData  Scalars="pressure"> 
<DataArray  type="Float64"  Name="pressure"  format="ascii">8.8134613453532238e+03  8.6510333920663197e+03  8.4972236506353238e+03  8.3446230355902662e+03  8.1926809368887680e+03  8.0410689306313043e+03  7.8896688262261068e+03  7.7384149486434444e+03  7.5872702511765256e+03  7.4362125755291154e+03  7.2852288285718478e+03  7.1343118794910652e+03  6.9834586257288574e+03  6.8326682573295448e+03  6.6819376436062948e+03  6.5312569460457435e+03  6.3805288909095225e+03  6.2299951977994779e+03  6.0724649332951967e+03  4.3174775475717024e+03  4.2179734020164242e+03  4.1617106800135398e+03  4.1237726358882010e+03  4.0968011200900946e+03  4.0692389526803850e+03  4.0412882812343069e+03  4.0132349907643215e+03  3.9851147525597257e+03  3.9569543484497690e+03  3.9287669088854914e+03  3.9005605822745856e+03  3.8723406008625161e+03  3.8441105028136726e+03  3.8158727618201742e+03  3.7876291557851901e+03  3.7593809914531284e+03  3.7311292473565873e+03  3.7028746678080447e+03  3.6746178264733348e+03  3.6463591704346322e+03  3.6180990513977877e+03  3.5898377482247311e+03  3.5615754834855243e+03  3.5333124358066570e+03  3.5050487492111147e+03  3.4767845402701437e+03  3.4485199036389372e+03  3.4202549163822064e+03  3.3919896413821907e+03  3.3637241300429491e+03  3.3354584244494386e+03  3.3071925591003414e+03  3.2789265623049996e+03  3.2506604573138025e+03  3.2223942632357989e+03  3.1941279957855409e+03  3.1658616678923440e+03  3.1375952901981677e+03  3.1093288714651744e+03  3.0810624189097271e+03  3.0527959384764258e+03  3.0245294350631411e+03  2.9962629127059340e+03  2.9679963747311140e+03  2.9397298238803337e+03  2.9114632624135415e+03  2.8831966921937537e+03  2.8549301147568549e+03  2.8266635313691004e+03  2.7983969430744937e+03  2.7701303507338184e+03  2.7418637550568183e+03  2.7135971566287094e+03  2.6853305559320388e+03  2.6570639533647004e+03  2.6287973492547926e+03  2.6005307438728605e+03  2.5722641374420018e+03  2.5439975301461764e+03  2.5157309221370842e+03  2.4874643135398178e+03  2.4591977044575310e+03  2.4309310949752871e+03  2.4026644851632336e+03  2.3743978750792112e+03  2.3461312647709233e+03  2.3178646542777064e+03  2.2895980436319987e+03  2.2613314328605538e+03  2.2330648219854334e+03  2.2047982110248340e+03  2.1765315999937625e+03  2.1482649889045997e+03  2.1199983777675579e+03  2.0917317665910659e+03  2.0634651553820786e+03  2.0351985441463405e+03  2.0069319328885995e+03  1.9786653216127797e+03  1.9503987103221352e+03  1.9221320990193628e+03  1.8938654877067102e+03  1.8655988763860553e+03  1.8373322650589773e+03  1.8090656537268171e+03  1.7807990423907254e+03  1.7525324310517055e+03  1.7242658197106525e+03  1.6959992083683849e+03  1.6677325970256766e+03  1.6394659856832845e+03  1.6111993743419782e+03  1.5829327630025668e+03  1.5546661516659306e+03  1.5263995403330528e+03  1.4981329290050571e+03  1.4698663176832490e+03  1.4415997063691659e+03  1.4133330950646330e+03  1.3850664837718296e+03  1.3567998724933755e+03  1.3285332612324266e+03  1.3002666499927884e+03  1.2720000387790662e+03  1.2437334275968301e+03  1.2154668164528275e+03  1.1872002053552344e+03  1.1589335943139636e+03  1.1306669833410344e+03  1.1024003724510251e+03  1.0741337616616192e+03  1.0458671509942799e+03  1.0176005404750530e+03  9.8933393013555622e+02  9.6106732001418686e+02  9.3280071015758460e+02  9.0453410062242313e+02  8.7626749147760165e+02  8.4800088280692898e+02  8.1973427471241621e+02  7.9146766731832599e+02  7.6320106077617936e+02  7.3493445527094821e+02  7.0666785102876406e+02  6.7840124832654578e+02  6.5013464750411777e+02  6.2186804897954914e+02  5.9360145326872350e+02  5.6533486101056803e+02  5.3706827299989288e+02  5.0880169023069442e+02  4.8053511395403342e+02  4.5226854575665038e+02  4.2400198766964178e+02  3.9573544232172623e+02  3.6746891316027904e+02  3.3920240477822256e+02  3.1093592341121507e+02  2.8266947771916375e+02  2.5440308005429108e+02  2.2613674865651450e+02  1.9787051121839016e+02  1.6960441452086843e+02  1.4133851893128431e+02  1.1307309740122788e+02  8.4807248966235463e+01  5.6551537994368331e+01  2.8205951008081595e+01  7.9925960190638490e-01  8.8051780569284056e+03  8.6510820284203037e+03  8.4970391436981554e+03  8.3445703268402194e+03  8.1926459630993395e+03  8.0410471135753305e+03  7.8896534695880400e+03  7.7384034500229500e+03  7.5872610773564738e+03  7.4362047991868794e+03  7.2852218315118016e+03  7.1343052361739337e+03  6.9834521185922258e+03  6.8326618193258892e+03  6.6819331739680601e+03  6.5312523763661866e+03  6.3806034922401022e+03  6.2295188377519617e+03  6.0784239895043065e+03  5.9317834143714517e+03  5.7938319213644781e+03  5.7076688291773062e+03  4.1229641406524943e+03  4.0970372556425536e+03  4.0692421852418770e+03  4.0413025118352416e+03  4.0132413031919500e+03  3.9851190048897083e+03  3.9569571841306088e+03  3.9287689085520847e+03  3.9005620333602651e+03  3.8723416800563677e+03  3.8441113210213998e+03  3.8158733920357063e+03  3.7876296475954114e+03  3.7593813794914349e+03  3.7311295563858148e+03  3.7028749158968249e+03  3.6746180270405994e+03  3.6463593336006311e+03  3.6180991848977819e+03  3.5898378580400231e+03  3.5615755742877100e+03  3.5333125112759171e+03  3.5050488122680094e+03  3.4767845932469509e+03  3.4485199484080358e+03  3.4202549544535041e+03  3.3919896739778787e+03  3.3637241581554458e+03  3.3354584488867135e+03  3.3071925805216401e+03  3.2789265812492063e+03  3.2506604742220857e+03  3.2223942784697756e+03  3.1941280096419450e+03  3.1658616806148652e+03  3.1375953019870885e+03  3.1093288824851888e+03  3.0810624292963375e+03  3.0527959483411601e+03  3.0245294444978249e+03  2.9962629217861913e+03  2.9679963835192393e+03  2.9397298324276535e+03  2.9114632707623514e+03  2.8831967003789105e+03  2.8549301228070881e+03  2.8266635393080915e+03  2.7983969509217641e+03  2.7701303585054634e+03  2.7418637627661060e+03  2.7135971642865811e+03  2.6853305635475126e+03  2.6570639609452141e+03  2.6287973568064781e+03  2.6005307514007759e+03  2.5722641449503149e+03  2.5439975376383254e+03  2.5157309296159046e+03  2.4874643210076470e+03  2.4591977119162962e+03  2.4309311024265785e+03  2.4026644926083604e+03  2.3743978825192562e+03  2.3461312722067764e+03  2.3178646617101031e+03  2.2895980510615450e+03  2.2613314402877495e+03  2.2330648294106909e+03  2.2047982184484918e+03  2.1765316074161010e+03  2.1482649963258496e+03  2.1199983851879101e+03  2.0917317740106769e+03  2.0634651628010774e+03  2.0351985515648339e+03  2.0069319403066743e+03  1.9786653290305082e+03  1.9503987177395754e+03  1.9221321064365638e+03  1.8938654951237108e+03  1.8655988838028875e+03  1.8373322724756665e+03  1.8090656611433840e+03  1.7807990498071845e+03  1.7525324384680694e+03  1.7242658271269288e+03  1.6959992157845786e+03  1.6677326044417882e+03  1.6394659930993143e+03  1.6111993817579209e+03  1.5829327704184147e+03  1.5546661590816727e+03  1.5263995477486742e+03  1.4981329364205376e+03  1.4698663250985635e+03  1.4415997137842844e+03  1.4133331024795157e+03  1.3850664911864299e+03  1.3567998799076365e+03  1.3285332686462768e+03  1.3002666574061423e+03  1.2720000461918185e+03  1.2437334350088547e+03  1.2154668238639706e+03  1.1872002127653086e+03  1.1589336017227413e+03  1.1306669907482401e+03  1.1024003798563231e+03  1.0741337690646030e+03  1.0458671583944551e+03  1.0176005478718181e+03  9.8933393752818108e+02  9.6106732740178234e+02  9.3280071753906873e+02  9.0453410799647838e+02  8.7626749884262085e+02  8.4800089016095046e+02  8.1973428205304128e+02  7.9146767464261859e+02  7.6320106808053572e+02  7.3493446255093647e+02  7.0666785827891579e+02  6.7840125554009217e+02  6.5013465467264200e+02  6.2186805609253497e+02  5.9360146031295290e+02  5.6533486796930583e+02  5.3706827985177813e+02  5.0880169694818909e+02  4.8053512050122941e+02  4.5226855208609294e+02  4.2400199371763745e+02  3.9573544800123642e+02  3.6746891834987468e+02  3.3920240930438894e+02  3.1093592701918186e+02  2.8266948002191128e+02  2.5440308044869411e+02  2.2613674610332905e+02  1.9787050432710262e+02  1.6960439735359802e+02  1.4133850851384736e+02  1.1307288684607316e+02  8.4808461689273543e+01  5.6540124276307679e+01  2.8309264635302071e+01  -4.3494475678431684e-02  8.8015061919847049e+03  8.6495788248776335e+03  8.4966571263698133e+03  8.3443663251726139e+03  8.1925306347121714e+03  8.0409719477321996e+03  7.8896005918490737e+03  7.7383636017902345e+03  7.5872291258093355e+03  7.4361775586830645e+03  7.2851971585199890e+03  7.1342816320372140e+03  6.9834286676971115e+03  6.8326386992316266e+03  6.6819129831493410e+03  6.5312509191732915e+03  6.3806255608058018e+03  6.2299881861512913e+03  6.0801083511740208e+03  5.9334322902851327e+03  5.7863779660987902e+03  4.1545667171277973e+03  4.1251691181313345e+03  4.0971331527369366e+03  4.0693339734162091e+03  4.0413395536966759e+03  4.0132640040277474e+03  3.9851333541221011e+03  3.9569669238225410e+03  3.9287757741937830e+03  3.9005670215865748e+03  3.8723453884904102e+03  3.8441141290822075e+03  3.8158755500524662e+03  3.7876313261668647e+03  3.7593826980529393e+03  3.7311306005068068e+03  3.7028757481214038e+03  3.6746186938860201e+03  3.6463598701930723e+03  3.6180996181142218e+03  3.5898382086822126e+03  3.5615758586152115e+03  3.5333127421061922e+03  3.5050489997786221e+03  3.4767847455692777e+03  3.4485200720726734e+03  3.4202550547285673e+03  3.3919897551288245e+03  3.3637242236466468e+03  3.3354585015392090e+03  3.3071926226375795e+03  3.2789266147106778e+03  3.2506605005700585e+03  3.2223942989675002e+03  3.1941280253260611e+03  3.1658616923367836e+03  3.1375953104465780e+03  3.1093288882577185e+03  3.0810624328553859e+03  3.0527959500764405e+03  3.0245294447302163e+03  2.9962629207799637e+03  2.9679963814920920e+03  2.9397298295589494e+03  2.9114632671998966e+03  2.8831966962445199e+03  2.8549301182011627e+03  2.8266635343133948e+03  2.7983969456065211e+03  2.7701303529259208e+03  2.7418637569686352e+03  2.7135971583094142e+03  2.6853305574221740e+03  2.6570639546976954e+03  2.6287973504582096e+03  2.6005307449694310e+03  2.5722641384504623e+03  2.5439975310819827e+03  2.5157309230129777e+03  2.4874643143663056e+03  2.4591977052432785e+03  2.4309310957274392e+03  2.4026644858876798e+03  2.3743978757808122e+03  2.3461312654536841e+03  2.3178646549449304e+03  2.2895980442864116e+03  2.2613314335043988e+03  2.2330648226205644e+03  2.2047982116527764e+03  2.1765316006157759e+03  2.1482649895217205e+03  2.1199983783806429e+03  2.0917317672008189e+03  2.0634651559890799e+03  2.0351985447510692e+03  2.0069319334914469e+03  1.9786653222140703e+03  1.9503987109221323e+03  1.9221320996182844e+03  1.8938654883047323e+03  1.8655988769833198e+03  1.8373322656556004e+03  1.8090656543228888e+03  1.7807990429863150e+03  1.7525324316468671e+03  1.7242658203054209e+03  1.6959992089627819e+03  1.6677325976197098e+03  1.6394659862769490e+03  1.6111993749352534e+03  1.5829327635954187e+03  1.5546661522583097e+03  1.5263995409248912e+03  1.4981329295962664e+03  1.4698663182737187e+03  1.4415997069587575e+03  1.4133330956531743e+03  1.3850664843591105e+03  1.3567998730791383e+03  1.3285332618163559e+03  1.3002666505745019e+03  1.2720000393580965e+03  1.2437334281726123e+03  1.2154668170246734e+03  1.1872002059223089e+03  1.1589335948752514e+03  1.1306669838953042e+03  1.1024003729967801e+03  1.0741337621970433e+03  1.0458671515171659e+03  1.0176005409827175e+03  9.8933393062473829e+02  9.6106732048091931e+02  9.3280071059703869e+02  9.0453410102871624e+02  8.7626749184356197e+02  8.4800088312380115e+02  8.1973427496949716e+02  7.9146766750251209e+02  7.6320106087139141e+02  7.3493445525741106e+02  7.0666785088208326e+02  6.7840124801652587e+02  6.5013464699322287e+02  6.2186804822088709e+02  5.9360145220336494e+02  5.6533485956393179e+02  5.3706827107680726e+02  5.0880168770852066e+02  4.8053511067292897e+02  4.5226854150549821e+02  4.2400198216527514e+02  3.9573543517751301e+02  3.6746890383735877e+02  3.3920239250757487e+02  3.1093590706503556e+02  2.8266945559020081e+02  2.5440304946476138e+02  2.2613670520046335e+02  1.9787044748193458e+02  1.6960431552346662e+02  1.4133836852468741e+02  1.1307274709566437e+02  8.4807457144472011e+01  5.6544055777371135e+01  2.8285121436974727e+01  5.6319887885695665e-03  8.7993302941156071e+03  8.6481461524970000e+03  8.4960433782282944e+03  8.3440530215288218e+03  8.1923424283528875e+03  8.0408478522625628e+03  7.8895122504646606e+03  7.7382965728588824e+03  7.5871751080626182e+03  7.4361313247721191e+03  7.2851551321515844e+03  7.1342412485086979e+03  6.9833882561140363e+03  6.8325980719874642e+03  6.6818759181910873e+03  6.5312307588771391e+03  6.3806792639665682e+03  6.2303546566396535e+03  6.0809099370112972e+03  5.9332957517450914e+03  5.7836262601618801e+03  4.1538024984297535e+03  4.1258386874514572e+03  4.0974460823813233e+03  4.0694439064520479e+03  4.0414013342208950e+03  4.0133005205483100e+03  3.9851571219680359e+03  3.9569831556680510e+03  3.9287872860958473e+03  3.9005754167363207e+03  3.8723516468502644e+03  3.8441188773683693e+03  3.8158792044345200e+03  3.7876341715870526e+03  3.7593849347415539e+03  3.7311323723506880e+03  3.7028771605511238e+03  3.6746198254782162e+03  3.6463607803859140e+03  3.6181003524538019e+03  3.5898388024630417e+03  3.5615763394537753e+03  3.5333131317917391e+03  3.5050493156254201e+03  3.4767850014191317e+03  3.4485202790481749e+03  3.4202552218059805e+03  3.3919898895786255e+03  3.3637243313756212e+03  3.3354585873584601e+03  3.3071926904740849e+03  3.2789266677754249e+03  3.2506605414924406e+03  3.2223943299032762e+03  3.1941280480444570e+03  3.1658617082910046e+03  3.1375953208310848e+03  3.1093288940548555e+03  3.0810624348734273e+03  3.0527959489807022e+03  3.0245294410685060e+03  2.9962629150034618e+03  2.9679963739724731e+03  2.9397298206024511e+03  2.9114632570588751e+03  2.8831966851269553e+03  2.8549301062784839e+03  2.8266635217269104e+03  2.7983969324727195e+03  2.7701303393408398e+03  2.7418637430114522e+03  2.7135971440454086e+03  2.6853305429051688e+03  2.6570639399720717e+03  2.6287973355605614e+03  2.6005307299299288e+03  2.5722641232939886e+03  2.5439975158290504e+03  2.5157309076805063e+03  2.4874642989682438e+03  2.4591976897911295e+03  2.4309310802306877e+03  2.4026644703541483e+03  2.3743978602169495e+03  2.3461312498648103e+03  2.3178646393354293e+03  2.2895980286598997e+03  2.2613314178638589e+03  2.2330648069684539e+03  2.2047981959911235e+03  2.1765315849462518e+03  2.1482649738457026e+03  2.1199983626992657e+03  2.0917317515150189e+03  2.0634651402996283e+03  2.0351985290585985e+03  2.0069319177964803e+03  1.9786653065170356e+03  1.9503986952233815e+03  1.9221320839181049e+03  1.8938654726033581e+03  1.8655988612809415e+03  1.8373322499523695e+03  1.8090656386189264e+03  1.7807990272817144e+03  1.7525324159416969e+03  1.7242658045997300e+03  1.6959991932565988e+03  1.6677325819130451e+03  1.6394659705697950e+03  1.6111993592275835e+03  1.5829327478871887e+03  1.5546661365494533e+03  1.5263995252153190e+03  1.4981329138858625e+03  1.4698663025623357e+03  1.4415996912462126e+03  1.4133330799392400e+03  1.3850664686435080e+03  1.3567998573615266e+03  1.3285332460963191e+03  1.3002666348515327e+03  1.2720000236315786e+03  1.2437334124417962e+03  1.2154668012886493e+03  1.1872001901799713e+03  1.1589335791252588e+03  1.1306669681360263e+03  1.1024003572262384e+03  1.0741337464128339e+03  1.0458671357163687e+03  1.0176005251617846e+03  9.8933391477935584e+02  9.6106730460583992e+02  9.3280069468587646e+02  9.0453408507369306e+02  8.7626747583519398e+02  8.4800086705051376e+02  8.1973425881714388e+02  7.9146765125377397e+02  7.6320104450502515e+02  7.3493443874729587e+02  7.0666783419601006e+02  6.7840123111464084e+02  6.5013462982601118e+02  6.2186803072652913e+02  5.9360143430422863e+02  5.6533484116185639e+02  5.3706825204666222e+02  5.0880166788926959e+02  4.8053508985500656e+02  4.5226851941262504e+02  4.2400195842770432e+02  3.9573540929174646e+02  3.6746887510392662e+02  3.3920235993218097e+02  3.1093586919653023e+02  2.8266941024514210e+02  2.5440299324280090e+02  2.2613663257111821e+02  1.9787034914073749e+02  1.6960417398952421e+02  1.4133815603412521e+02  1.1307236827153561e+02  8.4806939091588603e+01  5.6542509718263510e+01  2.8277085991468365e+01  -4.2735393692955895e-04  8.7978109265660678e+03  8.6469386588082725e+03  8.4953533176149303e+03  8.3436610354094191e+03  8.1920969118789617e+03  8.0406816192454207e+03  7.8893921184281753e+03  7.7382045079610934e+03  7.5871004059652405e+03  7.4360670636511477e+03  7.2850964655262160e+03  7.1341845850422415e+03  6.9833310339736308e+03  6.8325392856269036e+03  6.6818181714572856e+03  6.5311865187236881e+03  6.3806946519805151e+03  6.2305225975551111e+03  6.0811051918900193e+03  5.9327930710800083e+03  5.7817818568731063e+03  4.1531733224610552e+03  4.1260859800190856e+03  4.0977007236698955e+03  4.0695774326411133e+03  4.0414779326776857e+03  4.0133485734213323e+03  3.9851889661300929e+03  3.9570052044444828e+03  3.9288030560501547e+03  3.9005869891084799e+03  3.8723603153464678e+03  3.8441254803035154e+03  3.8158843035870141e+03  3.7876381543015768e+03  3.7593880747140643e+03  3.7311348671432288e+03  3.7028791554587137e+03  3.6746214291214296e+03  3.6463620751411740e+03  3.6181014015811920e+03  3.5898396550734960e+03  3.5615770340336221e+03  3.5333136987457096e+03  3.5050497791400512e+03  3.4767853808477935e+03  3.4485205899540902e+03  3.4202554767570982e+03  3.3919900987599340e+03  3.3637245030653980e+03  3.3354587283018486e+03  3.3071928061783597e+03  3.2789267627448671e+03  3.2506606194162523e+03  3.2223943938066441e+03  3.1941281004104894e+03  3.1658617511595216e+03  3.1375953558788701e+03  3.1093289226610382e+03  3.0810624581728348e+03  3.0527959679074861e+03  3.0245294563918728e+03  2.9962629273569573e+03  2.9679963838780195e+03  2.9397298284900899e+03  2.9114632632829916e+03  2.8831966899796244e+03  2.8549301100004486e+03  2.8266635245166194e+03  2.7983969344937718e+03  2.7701303407281052e+03  2.7418637438761280e+03  2.7135971444791753e+03  2.6853305429836169e+03  2.6570639397575283e+03  2.6287973351044179e+03  2.6005307292745620e+03  2.5722641224743415e+03  2.5439975148739359e+03  2.5157309066136822e+03  2.4874642978093020e+03  2.4591976885562249e+03  2.4309310789331430e+03  2.4026644690049470e+03  2.3743978588251503e+03  2.3461312484378832e+03  2.3178646378795347e+03  2.2895980271801141e+03  2.2613314163643722e+03  2.2330648054527178e+03  2.2047981944619842e+03  2.1765315834060566e+03  2.1482649722963879e+03  2.1199983611424250e+03  2.0917317499519663e+03  2.0634651387314452e+03  2.0351985274861765e+03  2.0069319162205522e+03  1.9786653049382037e+03  1.9503986936421395e+03  1.9221320823348565e+03  1.8938654710184333e+03  1.8655988596946056e+03  1.8373322483648365e+03  1.8090656370303659e+03  1.7807990256922571e+03  1.7525324143514401e+03  1.7242658030087416e+03  1.6959991916649196e+03  1.6677325803206893e+03  1.6394659689767514e+03  1.6111993576338173e+03  1.5829327462926356e+03  1.5546661349540207e+03  1.5263995236188816e+03  1.4981329122882580e+03  1.4698663009633576e+03  1.4415996896456022e+03  1.4133330783366800e+03  1.3850664670386066e+03  1.3567998557538046e+03  1.3285332444851929e+03  1.3002666332362910e+03  1.2720000220113561e+03  1.2437334108155408e+03  1.2154667996550836e+03  1.1872001885375446e+03  1.1589335774720873e+03  1.1306669664698231e+03  1.1024003555442259e+03  1.0741337447116389e+03  1.0458671339918947e+03  1.0176005234090516e+03  9.8933391299231187e+02  9.6106730277712359e+02  9.3280069280652947e+02  9.0453408313280488e+02  8.7626747381946575e+02  8.4800086494371590e+02  8.1973425659944530e+02  7.9146764890090446e+02  7.6320104198722311e+02  7.3493443602798288e+02  7.0666783123010327e+02  6.7840122784639095e+02  6.5013462618620315e+02  6.2186802662882224e+02  5.9360142964031047e+02  5.6533483579494043e+02  5.3706824580264174e+02  5.0880166054447932e+02  4.8053508111900169e+02  4.5226850890348607e+02  4.2400194