<?xml version="1.0"?>
<VTKFile type="UnstructuredGrid"  version="0.1"  >
<UnstructuredGrid>
<Piece  NumberOfPoints="8545" NumberOfCells="16538">
<Points>
<DataArray  type="Float64"  NumberOfComponents="3"  format="ascii">0 0 0  2 0 0  2 0.2 0  0 0.2 0  0.007999999999984813 0 0  0.01599999999996964 0 0  0.02399999999995461 0 0  0.03199999999993959 0 0  0.03999999999992457 0 0  0.04799999999990945 0 0  0.05599999999989373 0 0  0.06399999999987775 0 0  0.07199999999986065 0 0  0.07999999999984338 0 0  0.08799999999982558 0 0  0.09599999999980778 0 0  0.10399999999979 0 0  0.1119999999997726 0 0  0.1199999999997562 0 0  0.1279999999997408 0 0  0.1359999999997272 0 0  0.1439999999997141 0 0  0.1519999999997019 0 0  0.1599999999996896 0 0  0.1679999999996774 0 0  0.1759999999996651 0 0  0.1839999999996529 0 0  0.1919999999996407 0 0  0.1999999999996284 0 0  0.2079999999996162 0 0  0.2159999999996039 0 0  0.2239999999995916 0 0  0.2319999999995794 0 0  0.2399999999995652 0 0  0.2479999999995501 0 0  0.2559999999995309 0 0  0.2639999999995103 0 0  0.2719999999994875 0 0  0.2799999999994642 0 0  0.2879999999994408 0 0  0.2959999999994175 0 0  0.3039999999993941 0 0  0.3119999999993708 0 0  0.3199999999993474 0 0  0.3279999999993241 0 0  0.3359999999993007 0 0  0.3439999999992774 0 0  0.351999999999254 0 0  0.3599999999992307 0 0  0.3679999999992074 0 0  0.375999999999184 0 0  0.3839999999991606 0 0  0.3919999999991373 0 0  0.3999999999991139 0 0  0.4079999999990906 0 0  0.4159999999990672 0 0  0.4239999999990439 0 0  0.4319999999990204 0 0  0.4399999999989971 0 0  0.4479999999989738 0 0  0.4559999999989504 0 0  0.463999999998927 0 0  0.4719999999989037 0 0  0.4799999999988804 0 0  0.487999999998857 0 0  0.4959999999988337 0 0  0.5039999999988103 0 0  0.511999999998787 0 0  0.5199999999987636 0 0  0.5279999999987403 0 0  0.5359999999987169 0 0  0.5439999999986936 0 0  0.5519999999986703 0 0  0.559999999998647 0 0  0.5679999999986237 0 0  0.5759999999986004 0 0  0.583999999998577 0 0  0.5919999999985537 0 0  0.5999999999985304 0 0  0.6079999999985071 0 0  0.6159999999984838 0 0  0.6239999999984605 0 0  0.6319999999984371 0 0  0.6399999999984138 0 0  0.6479999999983904 0 0  0.6559999999983671 0 0  0.6639999999983438 0 0  0.6719999999983205 0 0  0.6799999999982972 0 0  0.6879999999982739 0 0  0.6959999999982506 0 0  0.7039999999982272 0 0  0.7119999999982038 0 0  0.7199999999981805 0 0  0.7279999999981572 0 0  0.7359999999981339 0 0  0.7439999999981106 0 0  0.7519999999980873 0 0  0.759999999998064 0 0  0.7679999999980406 0 0  0.7759999999980173 0 0  0.783999999997994 0 0  0.7919999999979707 0 0  0.7999999999979474 0 0  0.807999999997924 0 0  0.8159999999979007 0 0  0.8239999999978773 0 0  0.831999999997854 0 0  0.8399999999978307 0 0  0.8479999999978074 0 0  0.855999999997784 0 0  0.8639999999977607 0 0  0.8719999999977374 0 0  0.8799999999977141 0 0  0.8879999999976906 0 0  0.8959999999976673 0 0  0.903999999997644 0 0  0.9119999999976207 0 0  0.9199999999975974 0 0  0.9279999999975741 0 0  0.9359999999975508 0 0  0.9439999999975274 0 0  0.9519999999975041 0 0  0.9599999999974808 0 0  0.9679999999974574 0 0  0.9759999999974341 0 0  0.9839999999974108 0 0  0.9919999999973981 0 0  0.9999999999973858 0 0  1.007999999997396 0 0  1.015999999997406 0 0  1.023999999997427 0 0  1.031999999997449 0 0  1.039999999997469 0 0  1.04799999999749 0 0  1.055999999997512 0 0  1.063999999997533 0 0  1.071999999997554 0 0  1.079999999997575 0 0  1.087999999997596 0 0  1.095999999997617 0 0  1.103999999997638 0 0  1.111999999997659 0 0  1.11999999999768 0 0  1.127999999997702 0 0  1.135999999997722 0 0  1.143999999997744 0 0  1.151999999997765 0 0  1.159999999997786 0 0  1.167999999997807 0 0  1.175999999997828 0 0  1.183999999997849 0 0  1.19199999999787 0 0  1.199999999997891 0 0  1.207999999997912 0 0  1.215999999997933 0 0  1.223999999997955 0 0  1.231999999997976 0 0  1.239999999997997 0 0  1.247999999998018 0 0  1.255999999998039 0 0  1.26399999999806 0 0  1.271999999998081 0 0  1.279999999998102 0 0  1.287999999998123 0 0  1.295999999998144 0 0  1.303999999998166 0 0  1.311999999998186 0 0  1.319999999998208 0 0  1.327999999998229 0 0  1.33599999999825 0 0  1.343999999998271 0 0  1.351999999998292 0 0  1.359999999998313 0 0  1.367999999998334 0 0  1.375999999998355 0 0  1.383999999998376 0 0  1.391999999998397 0 0  1.399999999998418 0 0  1.40799999999844 0 0  1.41599999999846 0 0  1.423999999998482 0 0  1.431999999998503 0 0  1.439999999998524 0 0  1.447999999998545 0 0  1.455999999998566 0 0  1.463999999998587 0 0  1.471999999998608 0 0  1.479999999998629 0 0  1.48799999999865 0 0  1.495999999998672 0 0  1.503999999998693 0 0  1.511999999998714 0 0  1.519999999998735 0 0  1.527999999998756 0 0  1.535999999998777 0 0  1.543999999998798 0 0  1.551999999998819 0 0  1.55999999999884 0 0  1.567999999998861 0 0  1.575999999998882 0 0  1.583999999998904 0 0  1.591999999998924 0 0  1.599999999998946 0 0  1.607999999998967 0 0  1.615999999998988 0 0  1.623999999999009 0 0  1.63199999999903 0 0  1.639999999999051 0 0  1.647999999999072 0 0  1.655999999999093 0 0  1.663999999999114 0 0  1.671999999999136 0 0  1.679999999999157 0 0  1.687999999999177 0 0  1.695999999999199 0 0  1.70399999999922 0 0  1.711999999999241 0 0  1.719999999999262 0 0  1.727999999999283 0 0  1.735999999999304 0 0  1.743999999999325 0 0  1.751999999999346 0 0  1.759999999999367 0 0  1.767999999999389 0 0  1.775999999999409 0 0  1.783999999999431 0 0  1.791999999999452 0 0  1.799999999999473 0 0  1.807999999999494 0 0  1.815999999999515 0 0  1.823999999999536 0 0  1.831999999999557 0 0  1.839999999999578 0 0  1.847999999999599 0 0  1.85599999999962 0 0  1.863999999999641 0 0  1.871999999999663 0 0  1.879999999999684 0 0  1.887999999999705 0 0  1.895999999999726 0 0  1.903999999999747 0 0  1.911999999999768 0 0  1.919999999999789 0 0  1.92799999999981 0 0  1.935999999999831 0 0  1.943999999999853 0 0  1.951999999999873 0 0  1.959999999999895 0 0  1.967999999999916 0 0  1.975999999999937 0 0  1.983999999999958 0 0  1.991999999999979 0 0  2 0.007999999999985056 0  2 0.01599999999997076 0  2 0.02399999999995914 0  2 0.03199999999993772 0  2 0.03999999999991205 0  2 0.04799999999988908 0  2 0.05599999999986612 0  2 0.06399999999984315 0  2 0.07199999999982019 0  2 0.07999999999979179 0  2 0.08799999999976883 0  2 0.09599999999974587 0  2 0.1039999999997452 0  2 0.1119999999997669 0  2 0.1199999999997886 0  2 0.1279999999998103 0  2 0.135999999999832 0  2 0.1439999999998537 0  2 0.1519999999998738 0  2 0.1599999999998949 0  2 0.1679999999999159 0  2 0.175999999999937 0  2 0.183999999999958 0  2 0.191999999999979 0  1.991999999999967 0.2 0  1.983999999999933 0.2 0  1.9759999999999 0.2 0  1.967999999999867 0.2 0  1.959999999999834 0.2 0  1.9519999999998 0.2 0  1.943999999999767 0.2 0  1.935999999999734 0.2 0  1.9279999999997 0.2 0  1.919999999999667 0.2 0  1.911999999999634 0.2 0  1.9039999999996 0.2 0  1.895999999999567 0.2 0  1.887999999999534 0.2 0  1.879999999999501 0.2 0  1.871999999999467 0.2 0  1.863999999999434 0.2 0  1.855999999999401 0.2 0  1.847999999999367 0.2 0  1.839999999999334 0.2 0  1.831999999999301 0.2 0  1.823999999999268 0.2 0  1.815999999999234 0.2 0  1.807999999999201 0.2 0  1.799999999999168 0.2 0  1.791999999999135 0.2 0  1.783999999999101 0.2 0  1.775999999999068 0.2 0  1.767999999999035 0.2 0  1.759999999999017 0.2 0  1.751999999999006 0.2 0  1.743999999999028 0.2 0  1.735999999999061 0.2 0  1.727999999999112 0.2 0  1.719999999999168 0.2 0  1.711999999999223 0.2 0  1.703999999999279 0.2 0  1.695999999999334 0.2 0  1.68799999999939 0.2 0  1.679999999999446 0.2 0  1.671999999999501 0.2 0  1.663999999999557 0.2 0  1.655999999999612 0.2 0  1.647999999999668 0.2 0  1.639999999999723 0.2 0  1.631999999999779 0.2 0  1.623999999999834 0.2 0  1.61599999999989 0.2 0  1.607999999999945 0.2 0  1.600000000000001 0.2 0  1.592000000000056 0.2 0  1.584000000000112 0.2 0  1.576000000000167 0.2 0  1.568000000000223 0.2 0  1.560000000000279 0.2 0  1.552000000000334 0.2 0  1.54400000000039 0.2 0  1.536000000000445 0.2 0  1.528000000000501 0.2 0  1.520000000000556 0.2 0  1.512000000000612 0.2 0  1.504000000000667 0.2 0  1.496000000000723 0.2 0  1.488000000000778 0.2 0  1.480000000000834 0.2 0  1.472000000000889 0.2 0  1.464000000000945 0.2 0  1.456000000001 0.2 0  1.448000000001056 0.2 0  1.440000000001112 0.2 0  1.432000000001167 0.2 0  1.424000000001223 0.2 0  1.416000000001278 0.2 0  1.408000000001334 0.2 0  1.400000000001389 0.2 0  1.392000000001445 0.2 0  1.3840000000015 0.2 0  1.376000000001556 0.2 0  1.368000000001611 0.2 0  1.360000000001667 0.2 0  1.352000000001722 0.2 0  1.344000000001778 0.2 0  1.336000000001833 0.2 0  1.328000000001889 0.2 0  1.320000000001944 0.2 0  1.312000000002 0.2 0  1.304000000002055 0.2 0  1.296000000002111 0.2 0  1.288000000002166 0.2 0  1.280000000002222 0.2 0  1.272000000002277 0.2 0  1.264000000002333 0.2 0  1.256000000002388 0.2 0  1.248000000002444 0.2 0  1.240000000002499 0.2 0  1.232000000002555 0.2 0  1.22400000000261 0.2 0  1.216000000002666 0.2 0  1.208000000002721 0.2 0  1.200000000002777 0.2 0  1.192000000002832 0.2 0  1.184000000002888 0.2 0  1.176000000002943 0.2 0  1.168000000002999 0.2 0  1.160000000003054 0.2 0  1.15200000000311 0.2 0  1.144000000003165 0.2 0  1.136000000003221 0.2 0  1.128000000003276 0.2 0  1.120000000003332 0.2 0  1.112000000003387 0.2 0  1.104000000003443 0.2 0  1.096000000003498 0.2 0  1.088000000003554 0.2 0  1.080000000003609 0.2 0  1.072000000003665 0.2 0  1.06400000000372 0.2 0  1.056000000003776 0.2 0  1.048000000003831 0.2 0  1.040000000003887 0.2 0  1.032000000003942 0.2 0  1.024000000003998 0.2 0  1.016000000004053 0.2 0  1.008000000004088 0.2 0  1.000000000004121 0.2 0  0.99200000000411 0.2 0  0.984000000004098 0.2 0  0.9760000000040647 0.2 0  0.9680000000040314 0.2 0  0.9600000000039981 0.2 0  0.9520000000039648 0.2 0  0.9440000000039312 0.2 0  0.9360000000038982 0.2 0  0.928000000003864
[...]
<PointData  Scalars="concentration"> 
<DataArray  type="Float64"  Name="concentration"  format="ascii">1.0000000000000000e+00  3.2800220815819642e-172  -3.4843828281957913e-171  1.0000000000000000e+00  1.0003691937510379e+00  9.9891566120055564e-01  1.0000924687458557e+00  1.0104148905506418e+00  9.4057243945894542e-01  1.0019967618256911e+00  -2.2715463505912806e-01  3.1658876623939819e-02  -4.2441685082616181e-03  3.5391747924193458e-04  -4.0913613284759110e-05  4.9194474190567233e-06  -3.6326615010690732e-07  1.5106865211432190e-08  2.7859955656388598e-09  -1.1463124425112658e-09  2.4223925602903530e-10  -2.3215488159096657e-11  2.4987458718024316e-12  -2.2077558530070507e-13  2.1228100835971628e-14  -6.1414786856429459e-17  -1.6221003385246198e-16  5.1661976272405812e-17  -3.2582253526506783e-18  -1.6942279290619130e-19  5.2442574721181492e-20  5.7016676005040048e-22  1.2458259886340132e-21  -1.6959893821001700e-22  7.9437528241466411e-24  1.3607038076603299e-25  -2.2522642510741344e-26  5.8558446618388868e-26  -8.8697205956509587e-27  8.1174922389923084e-28  7.0147948757747478e-29  -1.9532462603660899e-29  2.6777914054346701e-29  -7.4060197332901129e-30  -2.5812752607772229e-31  -6.1413069287939300e-31  -3.4733791683521548e-31  5.0590482751629869e-32  -3.6592638273670855e-33  -1.5508484370905951e-33  1.1612882778947406e-33  -8.5782988155270293e-35  8.2781083049452937e-35  -1.3793884333709822e-35  1.1032192915102002e-36  -1.5333564902805455e-37  1.0862388233821053e-38  -1.2043022869212055e-39  1.0381805431215658e-40  2.9507611057874015e-41  -1.8203136753516326e-42  -9.9035512325851318e-42  1.6814328435265541e-42  3.3572363754328353e-44  -4.3946738511390475e-45  1.1645026451573870e-44  -4.0463662821246147e-45  4.5619107836344300e-46  -6.2877566256948833e-47  4.6902987476545024e-48  -9.5105619617602372e-49  6.9344936735622656e-50  1.9030063581875899e-50  -5.8807896978071502e-51  6.6467868100414773e-51  -2.9563670086947492e-52  -1.8969719213551630e-51  2.5927175881801340e-52  -1.1035107375229609e-52  2.1695343210078959e-53  -1.8387828733634264e-54  2.6745024752327304e-55  -1.4856689255936794e-56  1.4037581014870403e-57  -1.6733461625404519e-59  -5.6569964128120193e-59  3.4271212945828323e-60  1.4093041722919977e-59  -3.1518059455483780e-60  3.6111096891348675e-60  -5.6466461001171221e-61  3.3907690159061405e-61  -8.6840163966717698e-62  8.2419606822780138e-63  -1.1632755034902113e-63  5.6518009680678546e-65  -3.1418361803532922e-66  -1.0659506172182747e-66  2.2977017985955941e-67  6.3274190437928872e-69  -6.7901904317481457e-68  1.2714870707506975e-68  -2.4419675230928905e-69  4.1854497151287612e-70  -1.1233567032795507e-70  1.5661162239519641e-71  -1.2161293944709074e-72  -4.1506293841918200e-73  3.3553534759655584e-73  -5.8366811755390316e-74  1.7692723969140118e-74  -3.4448843836644945e-75  4.6851381853843313e-76  -3.6020977571475131e-77  -1.0140076351511250e-77  4.9140026727647972e-78  -6.8957645329710639e-79  2.7830648289042289e-79  -5.2825978973238166e-80  -2.8766519253333239e-80  7.5784820282072159e-81  -9.1180795062900645e-82  3.0089415548403511e-83  -3.7280474048561099e-84  5.1579160234902865e-85  2.2304979303739599e-85  5.7078133276359181e-87  -1.6135565512804042e-85  -1.4764597201009954e-86  1.2911175137747658e-87  9.4217204638923594e-89  1.1300571821998983e-88  1.2826759272833589e-89  -2.2951136985215172e-90  2.7890393065955178e-91  -2.7395500841722819e-91  8.6955935312127235e-92  -6.7203717932430458e-93  5.0384684479761077e-94  -7.4259622461875171e-94  1.3273346641541610e-94  -1.3214702833972986e-95  1.4372193955238053e-96  -3.9178462740491377e-97  8.7450246461350512e-98  -2.1165571895133123e-98  6.1411169599899409e-100  6.0831613849925978e-100  2.6936118878478135e-100  -3.8142646450974693e-101  -2.9347245141636982e-102  -1.4560673852167122e-101  -2.2678177962379134e-102  5.5928702023879784e-103  -6.0094265853732110e-104  2.7597991755761445e-105  -2.3596827974198682e-106  -4.2273294844612739e-107  4.3981850023399607e-108  1.9687179703753331e-108  -3.7444237583953396e-109  2.4877078339234797e-110  2.0481611728461974e-110  2.3775963592293936e-111  1.0902606638204475e-110  2.4466033106601851e-111  -5.0929413222866087e-112  4.3853899388925442e-113  -6.0725741376461537e-114  7.6770446275683944e-115  7.2482311026071840e-116  2.9803327404701324e-116  -4.2335955111881345e-117  9.4030582944995308e-118  -2.6985616879812305e-118  3.3130454860510395e-119  -4.6076480482813867e-120  3.3526016501888098e-120  1.2621738107764827e-121  -1.0275037277538464e-121  5.0356024483065807e-122  1.2624764834011031e-122  6.7958216554258774e-123  -1.4789027504742971e-123  4.2444043632868796e-124  -6.6261674732212140e-125  6.4065262872623449e-126  -1.1032449647433494e-126  1.0212871854269505e-127  -2.1714664563359393e-128  5.0425239054197712e-131  -2.0621724530893468e-129  3.2325215971411217e-130  -6.9368722124345567e-132  1.2129345784687480e-131  -1.4000565369816418e-133  -5.3428048790892644e-134  1.4811500883367208e-133  1.7757654942706021e-134  -8.1196863579104934e-135  1.8429311359813217e-135  -2.2639969524621054e-136  3.6912094666403212e-137  -8.7546112985894263e-138  4.6017039474196763e-138  -6.2054861519849645e-139  9.1429378116817177e-140  -3.4877901813191774e-141  3.4661522228753106e-141  -3.0078633329272560e-143  -9.3947047370767095e-143  9.7505504632741185e-144  -5.4201955815379911e-145  2.5320475728399118e-144  -5.4031223997380300e-145  1.0063088715010716e-145  -1.5119482077538933e-146  1.9793761961200517e-147  1.3371678608912821e-148  -4.8607141989709067e-149  6.4097939931480116e-153  3.3562262034440512e-150  -3.8477960363762858e-151  1.4629262540923336e-152  3.9123005888416636e-152  1.5281414638038170e-153  1.0365026360013881e-153  -2.6931033534267240e-154  -1.9591937466936656e-153  1.6499375671813030e-154  -7.4691623163650120e-155  -1.2820119484190685e-155  1.4440763752741742e-156  -2.9037447269263676e-157  2.5809870838192581e-158  -1.8896158692852033e-159  3.7397949574865096e-160  1.0093379167879990e-160  -2.1533095103367712e-161  4.7246528923749607e-162  -1.8602705451910728e-162  2.1867340101800524e-163  4.3053752386982038e-165  -5.6464241235974503e-165  1.1153638019759097e-165  -3.4639512155191885e-166  4.2948546029833506e-167  -2.0833813401399726e-167  2.6540673614252021e-168  3.1979817345757066e-170  -7.4627895024847261e-170  1.6242930457454816e-170  -2.8689513730955699e-171  -2.3960304236410988e-171  1.1901672425241137e-170  -5.1432777409405639e-170  2.3640792929007568e-169  -1.1084461472437452e-168  4.1752094872022552e-168  -1.2639493954723328e-167  4.1492484376505599e-167  -6.7568716239723156e-167  -4.9121348637608573e-166  4.1980742350451639e-166  3.2399642674287290e-165  2.5561803334546307e-165  -8.7550853747793678e-166  -1.7146127864777623e-166  2.3693035010605185e-167  4.8450364165282751e-167  -3.8945415197231326e-167  1.6981816509211442e-167  -5.4093123173523947e-168  1.7378545197616860e-168  -5.2628686826141162e-169  1.2983001095441191e-169  -2.3636218162779746e-170  -1.2697266652301314e-170  -5.1867215857615768e-171  2.4372861835614067e-170  1.8386037187495557e-170  -5.6234067570828788e-169  -5.9752874422023363e-169  1.9393146344549780e-167  -3.8123568272745478e-166  3.1234644657758628e-165  -1.7361111197742892e-164  9.4479275129445593e-164  -8.2583807087487897e-164  1.5314238771522079e-162  1.9060329285538150e-162  -4.4412557058428057e-161  7.1087150270601289e-161  2.6500662622478100e-161  6.5677265015027702e-160  5.6150202044234517e-158  -9.2596641093964256e-157  6.8448807690323799e-156  -1.2889158090000569e-155  1.8626074778379082e-154  -7.8682201158844492e-154  4.2603640211059252e-153  2.2435083820841184e-154  -1.9398755177180764e-152  1.5684181991949655e-152  -1.1554876539276390e-152  2.8364378299200387e-151  -2.1323143820302038e-150  2.2060622361673378e-149  2.1623777092187705e-150  -2.5944829873843343e-148  2.4027589024983441e-147  -1.1094301725939502e-147  -1.0047807299438628e-145  7.7100820324764080e-145  -8.2637375347486030e-145  2.0175582868521277e-144  -5.0593263025739291e-144  -3.6075604346957591e-143  -2.8607727495507282e-142  2.4145281591763087e-141  -1.2013780793695132e-140  -4.9972570316925275e-140  5.4545616876295337e-140  -1.1202234305675105e-138  2.2643681930502631e-137  -6.2631202254651325e-137  -6.1989945716172982e-137  -2.7522980380295982e-136  -4.0557971324168226e-135  1.2460275790466968e-134  -2.8507898484812908e-133  2.0491461456666704e-132  -6.3063772380990876e-132  2.4329131123171368e-131  1.2761329548449880e-130  -5.6417464857004440e-130  8.3077908736012215e-129  -4.0764008939992867e-128  -1.9469681951537386e-127  -9.5591608480115785e-128  -1.9118032708828291e-127  -1.0989271201350805e-127  -2.8123703477519874e-126  1.0171696885167096e-124  -9.8941396505915061e-124  1.7292836799099813e-123  -9.1897278797611401e-123  -1.2334785921401839e-122  -2.0898124367912709e-121  4.1534448773973679e-121  -1.3811289613694717e-120  -1.9806817608638279e-120  -5.3627560678753363e-120  1.8197127778665237e-119  -9.6597177523175896e-119  -9.5821972678907720e-119  1.4960186934148199e-116  -1.6859602511286182e-115  3.9332017971058062e-115  -2.3531271722130271e-114  1.1500131144396350e-114  -3.6620434878332881e-113  1.5316443269431776e-113  2.3648844927584797e-111  -3.8100726264055179e-111  -2.1181598283662148e-110  3.9886012699896639e-110  -5.6016760945050011e-110  7.5228630248288474e-109  -6.4938281115502726e-108  4.1403976841563493e-107  -7.3360568387098131e-107  2.4895885706682458e-106  1.6751410093056125e-105  4.7862576875669416e-105  4.0496224853610751e-104  -3.8402596272636894e-103  6.2030558507418937e-103  -5.8293980170898193e-102  2.8901247002664208e-101  -2.4345944742808609e-100  3.0115811563392221e-100  1.3530896562411631e-98  -1.6166831756357203e-97  4.4299293033734601e-98  -2.8551861783624314e-97  -2.8473039540820355e-97  -6.6990788898270835e-96  1.9519783643736736e-95  -1.5640444803254353e-94  1.0844206580598330e-93  -6.3191888815447484e-93  1.0052009458434343e-92  -4.3295023288489975e-92  -3.7489670721772180e-91  4.4846462086611252e-90  -2.0451092948373909e-89  2.2739285566565507e-89  -4.2965752883048110e-88  2.5101714860213531e-88  4.1977138792220374e-88  -5.8236770813676703e-87  -1.8591805470795041e-86  1.9696625009319731e-86  -5.1265166994007108e-85  5.6563686929842579e-84  1.4752437499154857e-84  1.2543252626744959e-82  -4.5072021718149460e-82  2.8231656416051745e-81  4.1308792222727586e-81  1.3758762423002908e-81  -1.0951064448520609e-79  9.1177299312072191e-79  -5.3526645775878931e-78  2.8641947517395573e-77  1.8261587475520799e-77  1.3008251265257538e-76  -4.1890598645648381e-76  9.7893599738030878e-75  -1.3043474395532684e-74  -3.8588181588942376e-73  7.4454584710553821e-73  -3.4274691648640667e-72  3.2251196658962443e-71  -5.1235387606787657e-70  1.0325259270854863e-69  -1.9819011157450079e-69  2.8961681082955065e-69  1.2225132550292806e-68  -1.6767268921871517e-67  7.7985637838062257e-67  -4.0587500002593311e-66  -1.0550181909002821e-65  1.5486607077096556e-65  -7.1089232893289625e-66  -6.7459508376040213e-65  -3.7478574801091342e-63  -9.1304214286718527e-62  2.2301545297765530e-61  -2.4179393077671553e-61  -1.1023378474642205e-60  1.4151640611404073e-59  -1.3308529285224455e-58  4.9837780325160618e-58  -3.3646663549588639e-57  -2.6253724084405691e-57  -4.0528727469525895e-56  3.8273406128533629e-55  -4.4307529373075472e-54  2.5136160129464792e-53  -7.8260552731916254e-53  3.6935107362449735e-52  -4.2292113813683077e-52  2.1332801627814109e-51  8.6554550854998805e-51  2.1326346162636142e-50  -3.0559457635642250e-49  2.7417175467056848e-48  -1.7158441776831014e-48  -1.7124337541717700e-46  9.8755129697984288e-46  -1.2449013556185514e-44  2.2830190047225653e-44  4.6282048308478670e-43  -1.8506094809067301e-42  -2.1327988200038930e-42  2.2290347649186642e-41  -3.1019383609620283e-42  -2.2031582942859133e-44  -2.1004265934345298e-40  -2.1181234344996796e-40  4.1304371167480589e-39  -2.8136679361131172e-38  -5.6661240329024352e-38  -1.3676685909079240e-36  -2.1431548288843636e-35  -6.0672497468707610e-35  2.4968156382888755e-34  -5.1638136607922511e-34  1.5471500526412315e-33  8.3759596036132025e-33  -9.5363506776316771e-32  6.8788528516222981e-31  -5.1531654095955063e-30  3.5884215104173158e-29  -1.4663631737302976e-28  -4.2815384666413961e-28  5.6775357689798172e-27  -1.0247884182699856e-25  -1.8988205951348216e-25  1.2836804820733247e-24  1.0985458671498788e-24  -7.1381920691516362e-25  -3.4221721711438342e-23  1.4565008234653416e-22  1.1584605818945973e-21  -1.2495709796063312e-20  1.3117929084960305e-19  3.6532807213945720e-19  -3.8660402628575284e-18  2.7903971271732256e-17  -2.2171780306405059e-16  2.5066678390318824e-15  -1.7459424377857115e-14  6.9887490690691649e-14  -3.1214399833729271e-13  -1.0011150428842960e-12  3.1658943796618649e-11  -3.0082209839954903e-10  3.4402783280339152e-09  -2.8582402513568361e-08  2.2273271872741887e-07  -9.6271598196108632e-07  -4.0151798948224946e-06  1.1775808992124243e-04  -1.2169419582313196e-03  1.5312639722728151e-02  -1.3252773504596421e-01  1.0859351583826471e+00  8.8717599506820022e-01  1.0348725513687222e+00  1.0003636154824391e+00  9.9872609301869986e-01  9.9949392490993327e-01  1.0000000000000000e+00  1.0000000000000000e+00  1.0000000000000000e+00  1.0000000000000000e+00  1.0000000000000000e+00  1.0000000000000000e+00  1.0000000000000000e+00  1.0000000000000000e+00  1.0000000000000000e+00  1.0000000000000000e+00  1.0000000000000000e+00  1.0000000000000000e+00  1.0000000000000000e+00  1.0000000000000000e+00  1.0000000000000000e+00  1.0000000000000000e+00  1.0000000000000000e+00  1.0000000000000000e+00  1.0000000000000000e+00  1.0000000000000000e+00  1.0000000000000000e+00  1.0000000000000000e+00  1.0000000000000000e+00  1.0000000000000000e+00  6.2489519650123343e-140  3.3535001029508080e-131  2.8319055717447866e-122  1.0906686172335010e-113  6.5179883885814597e-105  4.7939037190738587e-96  2.8100584523501088e-87  6.6221571403945513e-20  9.9603802722730888e-29  1.1842645144093503e-05  1.6654703079411902e-37  3.1877489701832604e-46  4.8445234962121151e-55  1.0843693859148091e-63  1.3484899941636556e-72  8.9072254684507785e-157  1.4062383560267915e-148  4.7554773858579628e-81  4.7278497972047578e-13  2.3545318636776978e-137  2.4745042778087707e-128  2.2731425131784608e-120  1.3205788562948064e-111  1.8682688460535181e-102  9.9649547065734093e-94  4.1595798837372234e-26  -7.4753197251728330e-35  -6.8018186235150965e-44  1.1600533251236133e-52  -1.6404463745727702e-61  2.3073241228721543e-70  4.3756470790691667e-93  2.3393242205775941e-102  2.8527506983997371e-111  1.3887366462413036e-70  1.6651973795729929e-61  4.8839418893260214e-120  -4.3886703401331867e-129  5.8791590303089096e-53  -6.3700313877968038e-44  -2.2368060210889198e-35  3.6805485580475014e-138  7.7359969982788918e-26  5.5643661519266865e-155  2.7828437931282931e-154  2.5398258812282496e-146  -1.1320744971207991e-146  1.2860638467859436e-10  5.6678652166425063e-17  4.1260985133110090e-85  -1.5420224051925700e-79  3.6771501626712152e-02  9.5102134310575542e-02  -4.8145979644327865e-163  -1.8129029348664480e-163  8.4496533567476479e-79  -5.6278169172433076e-86  9.5109824780910484e-10  2.5897683874572326e-19  1.6203556153250764e-142  2.7006493311571078e-133  -6.3004967372918467e-125  1.3457401322371714e-116  5.4140356733586913e-107  -7.1831134132633537e-100  -3.2005538430642753e-90  -2.3011753468096071e-31  -5.2638499451821093e-41  6.4536438628597653e-49  -2.5089087058559228e-57  -1.3614833025327055e-67  -1.5290610945976581e-98  1.1938750813395717e-107  -5.5101793838229234e-117  -4.5101253781354697e-126  8.5097005636556435e-135  -4.7837470003191737e-144  3.7510547145643530e-76  2.5521324972108150e-67  -2.1505529856338641e-58  -1.9264803144821770e-49  -1.2874986548046499e-39  -5.0885807385785012e-31  -4.7705219242520104e-22  4.1891771339920679e-151  -3.9204748846964613e-150  6.7258370457553580e-07  -5.9506591867854737e-74  3.0443754496830376e-92  -7.2839114376689043e-160  -2.9038839721001426e-159  -2.3020859960515052e-24  -1.4444339114551454e-83  1.5328515552413542e-161  7.1834794027999639e-07  -1.5855714176445575e-83  1.0331059462997148e+00  -6.0947658028356938e-16  3.4588721708513368e-09  2.0673750993522280e-16  1.6556706566071673e-76  8.1376413173782768e-84  -1.2617355689918013e-15  2.7847749654292770e-143  1.3829297117306370e-153  1.9542892620902098e-134  1.1220761782920309e-90  6.0793552821334627e-117  1.2544852014942756e-101  3.6896629735964459e-108  5.7398964780538575e-128  3.1943181158958294e-69  3.0180361169170319e-23  4.8128344577611225e-32  8.2354743900573047e-41  1.3572791189397094e-49  2.6615628055273036e-58  9.3765009875724711e-14  1.0588803828361200e+00  1.0888369203833062e+00  8.1863380351162795e-74  -1.2471619273892018e-65  -4.9734636274247825e-102  -1.1657956658413877e-56  4.2049181841294052e-47  1.7851218581084779e-111  1.9095002735688871e-38  1.9259643335101844e-119  6.5710035966389379e-30  -2.1821378380402990e-128  2.5878109872553552e-138  4.4289461920736382e-129  -1.1420149357628448e-136  -6.3255362440082333e-132  2.1565807920438291e-142  -2.9961023099967100e-119  -2.0629619288533086e-110  3.6010639677330127e-123  5.9456857457837476e-115  1.1009611613623076e-102  -7.9519007959811680e-108  -2.2024598822414144e-93  4.7260159560313841e-97  -2.9594638553866607e-29  -9.3571792065934018e-39  1.3618433389663903e-35  -1.8132277691217468e-47  1.7900082285136009e-44  1.8342684143389258e-56  -5.6247817967630537e-65  -4.5804638662258986e-53  2.5668180165852235e-61  -2.4615089393089604e-70  1.2565723554035423e-140  -7.6809083465964688e-132  7.2736668284103465e-26  3.0006749551102023e-123  4.9282005325557416e-36  3.7389955043211832e-44  1.3463736200648901e-114  -4.0219843204713048e-54  9.7773573416263239e-107  -1.2235735151783563e-62  -1.1009249949375662e-96  6.3122786669835372e-70  -1.8145284556224537e-81  -1.7054034566578369e-149  -1.1037139993126211e-149  7.0496949565926715e-167  -3.7917363257752733e-167  -5.7252016059073923e-146  -1.3062616845221890e-146  3.0527936453728604e-20  9.4619811020288542e-89  -7.6469544138351163e-79  2.5101371875476716e-12  3.1338838905295834e-154  -1.7802596906583301e-154  2.3997231141560035e-61  7.7327776797760590e-67  1.3360172520120870e-52  1.0436843207987605e-43  3.6590453906134791e-35  2.0558874745157331e-26  1.3865059160838668e-125  1.5551190064017946e-111  9.2247414534555713e-138  3.5212742437176903e-120  1.9992564859953883e-99  6.3372262462648884e-94  4.1645193800545115e-03  1.7942341409728560e-04  -1.2720697462973609e-82  3.0920438906340090e-73  2.1120325783371783e-94  -1.7169629587771520e-18  8.2711435324076123e-159  8.7976518152962532e-158  8.1672672756975770e-27  -3.4098520405096337e-99  -1.6044341783260658e-125  3.4057701037163592e-28  -1.3184610570758408e-37  1.6674873936398445e-46  -1.3359941225215517e-54  -1.7870084102042954e-63  -3.7026562219764057e-68  -4.8433431366004668e-139  -1.3070559793326760e-121  -8.9077162271123543e-113  -2.9815171278361031e-95  2.8769928595319325e-153  1.6089684307714928e-146  -1.3420148944215622e-147  1.4361999141072385e-19  9.4811184081605049e-165  1.8930468201807466e-163  -1.0245752318156444e-86  -2.3688226493541726e-75  -3.3167299321930012e-151  3.8271329049268070e-08  -1.0407121381996807e-77  -1.0356852071772308e-88  9.3723916807463508e-05  3.5263828862352998e-72  -1.1833061955131348e-108  -1.1674235196121301e-116  -1.3078729473570586e-134  -1.6134542004526988e-90  2.1451968668759786e-108  1.2509190048581550e-117  -7.2311974757488271e-106  8.9803258541850267e-135  8.5893861344422317e-133  -4.3497707778104368e-58  -4.5571882050719206e-50  -2.6423928765765708e-40  -1.2487201025060505e-31  -5.3885235236368182e-131  3.3692069873551252e-23  -1.6929229342718375e-33  -3.0817113042524520e-41  -7.0677641095372155e-50  -2.1702034947716335e-104  -2.8880687358606532e-59  -7.7073385518802745e-143  -4.9642837986128946e-143  4.0575599506115982e-04  2.7906065460496014e-158  -5.8976468457767458e-