<?xml version="1.0"?>
<VTKFile type="UnstructuredGrid"  version="0.1"  >
<UnstructuredGrid>
<Piece  NumberOfPoints="8545" NumberOfCells="16538">
<Points>
<DataArray  type="Float64"  NumberOfComponents="3"  format="ascii">0 0 0  2 0 0  2 0.2 0  0 0.2 0  0.007999999999984813 0 0  0.01599999999996964 0 0  0.02399999999995461 0 0  0.03199999999993959 0 0  0.03999999999992457 0 0  0.04799999999990945 0 0  0.05599999999989373 0 0  0.06399999999987775 0 0  0.07199999999986065 0 0  0.07999999999984338 0 0  0.08799999999982558 0 0  0.09599999999980778 0 0  0.10399999999979 0 0  0.1119999999997726 0 0  0.1199999999997562 0 0  0.1279999999997408 0 0  0.1359999999997272 0 0  0.1439999999997141 0 0  0.1519999999997019 0 0  0.1599999999996896 0 0  0.1679999999996774 0 0  0.1759999999996651 0 0  0.1839999999996529 0 0  0.1919999999996407 0 0  0.1999999999996284 0 0  0.2079999999996162 0 0  0.2159999999996039 0 0  0.2239999999995916 0 0  0.2319999999995794 0 0  0.2399999999995652 0 0  0.2479999999995501 0 0  0.2559999999995309 0 0  0.2639999999995103 0 0  0.2719999999994875 0 0  0.2799999999994642 0 0  0.2879999999994408 0 0  0.2959999999994175 0 0  0.3039999999993941 0 0  0.3119999999993708 0 0  0.3199999999993474 0 0  0.3279999999993241 0 0  0.3359999999993007 0 0  0.3439999999992774 0 0  0.351999999999254 0 0  0.3599999999992307 0 0  0.3679999999992074 0 0  0.375999999999184 0 0  0.3839999999991606 0 0  0.3919999999991373 0 0  0.3999999999991139 0 0  0.4079999999990906 0 0  0.4159999999990672 0 0  0.4239999999990439 0 0  0.4319999999990204 0 0  0.4399999999989971 0 0  0.4479999999989738 0 0  0.4559999999989504 0 0  0.463999999998927 0 0  0.4719999999989037 0 0  0.4799999999988804 0 0  0.487999999998857 0 0  0.4959999999988337 0 0  0.5039999999988103 0 0  0.511999999998787 0 0  0.5199999999987636 0 0  0.5279999999987403 0 0  0.5359999999987169 0 0  0.5439999999986936 0 0  0.5519999999986703 0 0  0.559999999998647 0 0  0.5679999999986237 0 0  0.5759999999986004 0 0  0.583999999998577 0 0  0.5919999999985537 0 0  0.5999999999985304 0 0  0.6079999999985071 0 0  0.6159999999984838 0 0  0.6239999999984605 0 0  0.6319999999984371 0 0  0.6399999999984138 0 0  0.6479999999983904 0 0  0.6559999999983671 0 0  0.6639999999983438 0 0  0.6719999999983205 0 0  0.6799999999982972 0 0  0.6879999999982739 0 0  0.6959999999982506 0 0  0.7039999999982272 0 0  0.7119999999982038 0 0  0.7199999999981805 0 0  0.7279999999981572 0 0  0.7359999999981339 0 0  0.7439999999981106 0 0  0.7519999999980873 0 0  0.759999999998064 0 0  0.7679999999980406 0 0  0.7759999999980173 0 0  0.783999999997994 0 0  0.7919999999979707 0 0  0.7999999999979474 0 0  0.807999999997924 0 0  0.8159999999979007 0 0  0.8239999999978773 0 0  0.831999999997854 0 0  0.8399999999978307 0 0  0.8479999999978074 0 0  0.855999999997784 0 0  0.8639999999977607 0 0  0.8719999999977374 0 0  0.8799999999977141 0 0  0.8879999999976906 0 0  0.8959999999976673 0 0  0.903999999997644 0 0  0.9119999999976207 0 0  0.9199999999975974 0 0  0.9279999999975741 0 0  0.9359999999975508 0 0  0.9439999999975274 0 0  0.9519999999975041 0 0  0.9599999999974808 0 0  0.9679999999974574 0 0  0.9759999999974341 0 0  0.9839999999974108 0 0  0.9919999999973981 0 0  0.9999999999973858 0 0  1.007999999997396 0 0  1.015999999997406 0 0  1.023999999997427 0 0  1.031999999997449 0 0  1.039999999997469 0 0  1.04799999999749 0 0  1.055999999997512 0 0  1.063999999997533 0 0  1.071999999997554 0 0  1.079999999997575 0 0  1.087999999997596 0 0  1.095999999997617 0 0  1.103999999997638 0 0  1.111999999997659 0 0  1.11999999999768 0 0  1.127999999997702 0 0  1.135999999997722 0 0  1.143999999997744 0 0  1.151999999997765 0 0  1.159999999997786 0 0  1.167999999997807 0 0  1.175999999997828 0 0  1.183999999997849 0 0  1.19199999999787 0 0  1.199999999997891 0 0  1.207999999997912 0 0  1.215999999997933 0 0  1.223999999997955 0 0  1.231999999997976 0 0  1.239999999997997 0 0  1.247999999998018 0 0  1.255999999998039 0 0  1.26399999999806 0 0  1.271999999998081 0 0  1.279999999998102 0 0  1.287999999998123 0 0  1.295999999998144 0 0  1.303999999998166 0 0  1.311999999998186 0 0  1.319999999998208 0 0  1.327999999998229 0 0  1.33599999999825 0 0  1.343999999998271 0 0  1.351999999998292 0 0  1.359999999998313 0 0  1.367999999998334 0 0  1.375999999998355 0 0  1.383999999998376 0 0  1.391999999998397 0 0  1.399999999998418 0 0  1.40799999999844 0 0  1.41599999999846 0 0  1.423999999998482 0 0  1.431999999998503 0 0  1.439999999998524 0 0  1.447999999998545 0 0  1.455999999998566 0 0  1.463999999998587 0 0  1.471999999998608 0 0  1.479999999998629 0 0  1.48799999999865 0 0  1.495999999998672 0 0  1.503999999998693 0 0  1.511999999998714 0 0  1.519999999998735 0 0  1.527999999998756 0 0  1.535999999998777 0 0  1.543999999998798 0 0  1.551999999998819 0 0  1.55999999999884 0 0  1.567999999998861 0 0  1.575999999998882 0 0  1.583999999998904 0 0  1.591999999998924 0 0  1.599999999998946 0 0  1.607999999998967 0 0  1.615999999998988 0 0  1.623999999999009 0 0  1.63199999999903 0 0  1.639999999999051 0 0  1.647999999999072 0 0  1.655999999999093 0 0  1.663999999999114 0 0  1.671999999999136 0 0  1.679999999999157 0 0  1.687999999999177 0 0  1.695999999999199 0 0  1.70399999999922 0 0  1.711999999999241 0 0  1.719999999999262 0 0  1.727999999999283 0 0  1.735999999999304 0 0  1.743999999999325 0 0  1.751999999999346 0 0  1.759999999999367 0 0  1.767999999999389 0 0  1.775999999999409 0 0  1.783999999999431 0 0  1.791999999999452 0 0  1.799999999999473 0 0  1.807999999999494 0 0  1.815999999999515 0 0  1.823999999999536 0 0  1.831999999999557 0 0  1.839999999999578 0 0  1.847999999999599 0 0  1.85599999999962 0 0  1.863999999999641 0 0  1.871999999999663 0 0  1.879999999999684 0 0  1.887999999999705 0 0  1.895999999999726 0 0  1.903999999999747 0 0  1.911999999999768 0 0  1.919999999999789 0 0  1.92799999999981 0 0  1.935999999999831 0 0  1.943999999999853 0 0  1.951999999999873 0 0  1.959999999999895 0 0  1.967999999999916 0 0  1.975999999999937 0 0  1.983999999999958 0 0  1.991999999999979 0 0  2 0.007999999999985056 0  2 0.01599999999997076 0  2 0.02399999999995914 0  2 0.03199999999993772 0  2 0.03999999999991205 0  2 0.04799999999988908 0  2 0.05599999999986612 0  2 0.06399999999984315 0  2 0.07199999999982019 0  2 0.07999999999979179 0  2 0.08799999999976883 0  2 0.09599999999974587 0  2 0.1039999999997452 0  2 0.1119999999997669 0  2 0.1199999999997886 0  2 0.1279999999998103 0  2 0.135999999999832 0  2 0.1439999999998537 0  2 0.1519999999998738 0  2 0.1599999999998949 0  2 0.1679999999999159 0  2 0.175999999999937 0  2 0.183999999999958 0  2 0.191999999999979 0  1.991999999999967 0.2 0  1.983999999999933 0.2 0  1.9759999999999 0.2 0  1.967999999999867 0.2 0  1.959999999999834 0.2 0  1.9519999999998 0.2 0  1.943999999999767 0.2 0  1.935999999999734 0.2 0  1.9279999999997 0.2 0  1.919999999999667 0.2 0  1.911999999999634 0.2 0  1.9039999999996 0.2 0  1.895999999999567 0.2 0  1.887999999999534 0.2 0  1.879999999999501 0.2 0  1.871999999999467 0.2 0  1.863999999999434 0.2 0  1.855999999999401 0.2 0  1.847999999999367 0.2 0  1.839999999999334 0.2 0  1.831999999999301 0.2 0  1.823999999999268 0.2 0  1.815999999999234 0.2 0  1.807999999999201 0.2 0  1.799999999999168 0.2 0  1.791999999999135 0.2 0  1.783999999999101 0.2 0  1.775999999999068 0.2 0  1.767999999999035 0.2 0  1.759999999999017 0.2 0  1.751999999999006 0.2 0  1.743999999999028 0.2 0  1.735999999999061 0.2 0  1.727999999999112 0.2 0  1.719999999999168 0.2 0  1.711999999999223 0.2 0  1.703999999999279 0.2 0  1.695999999999334 0.2 0  1.68799999999939 0.2 0  1.679999999999446 0.2 0  1.671999999999501 0.2 0  1.663999999999557 0.2 0  1.655999999999612 0.2 0  1.647999999999668 0.2 0  1.639999999999723 0.2 0  1.631999999999779 0.2 0  1.623999999999834 0.2 0  1.61599999999989 0.2 0  1.607999999999945 0.2 0  1.600000000000001 0.2 0  1.592000000000056 0.2 0  1.584000000000112 0.2 0  1.576000000000167 0.2 0  1.568000000000223 0.2 0  1.560000000000279 0.2 0  1.552000000000334 0.2 0  1.54400000000039 0.2 0  1.536000000000445 0.2 0  1.528000000000501 0.2 0  1.520000000000556 0.2 0  1.512000000000612 0.2 0  1.504000000000667 0.2 0  1.496000000000723 0.2 0  1.488000000000778 0.2 0  1.480000000000834 0.2 0  1.472000000000889 0.2 0  1.464000000000945 0.2 0  1.456000000001 0.2 0  1.448000000001056 0.2 0  1.440000000001112 0.2 0  1.432000000001167 0.2 0  1.424000000001223 0.2 0  1.416000000001278 0.2 0  1.408000000001334 0.2 0  1.400000000001389 0.2 0  1.392000000001445 0.2 0  1.3840000000015 0.2 0  1.376000000001556 0.2 0  1.368000000001611 0.2 0  1.360000000001667 0.2 0  1.352000000001722 0.2 0  1.344000000001778 0.2 0  1.336000000001833 0.2 0  1.328000000001889 0.2 0  1.320000000001944 0.2 0  1.312000000002 0.2 0  1.304000000002055 0.2 0  1.296000000002111 0.2 0  1.288000000002166 0.2 0  1.280000000002222 0.2 0  1.272000000002277 0.2 0  1.264000000002333 0.2 0  1.256000000002388 0.2 0  1.248000000002444 0.2 0  1.240000000002499 0.2 0  1.232000000002555 0.2 0  1.22400000000261 0.2 0  1.216000000002666 0.2 0  1.208000000002721 0.2 0  1.200000000002777 0.2 0  1.192000000002832 0.2 0  1.184000000002888 0.2 0  1.176000000002943 0.2 0  1.168000000002999 0.2 0  1.160000000003054 0.2 0  1.15200000000311 0.2 0  1.144000000003165 0.2 0  1.136000000003221 0.2 0  1.128000000003276 0.2 0  1.120000000003332 0.2 0  1.112000000003387 0.2 0  1.104000000003443 0.2 0  1.096000000003498 0.2 0  1.088000000003554 0.2 0  1.080000000003609 0.2 0  1.072000000003665 0.2 0  1.06400000000372 0.2 0  1.056000000003776 0.2 0  1.048000000003831 0.2 0  1.040000000003887 0.2 0  1.032000000003942 0.2 0  1.024000000003998 0.2 0  1.016000000004053 0.2 0  1.008000000004088 0.2 0  1.000000000004121 0.2 0  0.99200000000411 0.2 0  0.984000000004098 0.2 0  0.9760000000040647 0.2 0  0.9680000000040314 0.2 0  0.9600000000039981 0.2 0  0.9520000000039648 0.2 0  0.9440000000039312 0.2 0  0.9360000000038982 0.2 0  0.928000000003864
[...]
<PointData  Scalars="pressure"> 
<DataArray  type="Float64"  Name="pressure"  format="ascii">1.0000000234319023e-03  2.2297987471516257e-08  2.2603664113277287e-08  1.0000000193668634e-03  9.9619513163771165e-04  9.9239025701561789e-04  9.8858540197987988e-04  9.8478051076855179e-04  9.8097566701451527e-04  9.7717079541275137e-04  9.7336592643907868e-04  9.6956103974097534e-04  9.6575618394723582e-04  9.6195131946846270e-04  9.5814644767471273e-04  9.5434158610877614e-04  9.5053670680671654e-04  9.4673185332953271e-04  9.4292697230350503e-04  9.3912210799734243e-04  9.3531724079105232e-04  9.3151237163008359e-04  9.2770749319124723e-04  9.2390263693268063e-04  9.2009777993121199e-04  9.1629288709910010e-04  9.1248803501230613e-04  9.0868315486196578e-04  9.0487829608793967e-04  9.0107342783020872e-04  8.9726856444452649e-04  8.9346367602374636e-04  8.8965882201422772e-04  8.8585395791066456e-04  8.8204907868404104e-04  8.7824421933420870e-04  8.7443934209658388e-04  8.7063445921320730e-04  8.6682963694983592e-04  8.6302473595859766e-04  8.5921988352827760e-04  8.5541498158821293e-04  8.5161014409493535e-04  8.4780527622551846e-04  8.4400040170284571e-04  8.4019552355886387e-04  8.3639066353271337e-04  8.3258578649576744e-04  8.2878094195491998e-04  8.2497605479229976e-04  8.2117119698582185e-04  8.1736632165095244e-04  8.1356144811987733e-04  8.0975659437694937e-04  8.0595171637100837e-04  8.0214685160030200e-04  7.9834197721439615e-04  7.9453712177783662e-04  7.9073223974597041e-04  7.8692738411039538e-04  7.8312250144294882e-04  7.7931763402560770e-04  7.7551276418639235e-04  7.7170792377050871e-04  7.6790302477319045e-04  7.6409816250279806e-04  7.6029330644383872e-04  7.5648842889381417e-04  7.5268356407099345e-04  7.4887868973273709e-04  7.4507383430495407e-04  7.4126895026541074e-04  7.3746409887921630e-04  7.3365921356037577e-04  7.2985434856379626e-04  7.2604947322316778e-04  7.2224463669843912e-04  7.1843973698222576e-04  7.1463487511840354e-04  7.1083001897542949e-04  7.0702514141669987e-04  7.0322027661757591e-04  6.9941540223393724e-04  6.9561054679502976e-04  6.9180566476264324e-04  6.8800080912646366e-04  6.8419592645863124e-04  6.8039105904102904e-04  6.7658618920170114e-04  6.7278134878588332e-04  6.6897644978887514e-04  6.6517158751943121e-04  6.6136673146209113e-04  6.5756185391220687e-04  6.5375698911958140e-04  6.4995211473783954e-04  6.4614725929949249e-04  6.4234237724974041e-04  6.3853752167954711e-04  6.3473263862850809e-04  6.3092777266788300e-04  6.2712290055175137e-04  6.2331806101374374e-04  6.1951316309513942e-04  6.1570829974615538e-04  6.1190344159721226e-04  6.0809856176647953e-04  6.0429370940908301e-04  6.0048882860095959e-04  5.9668396270631439e-04  5.9287910762173080e-04  5.8907421929215895e-04  5.8526935693004349e-04  5.8146448287269784e-04  5.7765963704338203e-04  5.7385474229621814e-04  5.7004987974236803e-04  5.6624503532275150e-04  5.6244012590953658e-04  5.5863529640850303e-04  5.5483041790956684e-04  5.5102552596486304e-04  5.4722067812876371e-04  5.4341581212157810e-04  5.3961092233421697e-04  5.3580608433268667e-04  5.3200119703845211e-04  5.2819633435162428e-04  5.2439146943585653e-04  5.2058659953886156e-04  5.1678172184668118e-04  5.1297686580514649e-04  5.0917199008651158e-04  5.0536713459231641e-04  5.0156224634935508e-04  4.9775739492648652e-04  4.9395251097574531e-04  4.9014765893477764e-04  4.8634279032736373e-04  4.8253790118078685e-04  4.7873305395463483e-04  4.7492818063347677e-04  4.7112331795265091e-04  4.6731842968980087e-04  4.6351357556994054e-04  4.5970871465592751e-04  4.5590381334281353e-04  4.5209898327514106e-04  4.4829409830351215e-04  4.4448923732342687e-04  4.4068437493876639e-04  4.3687947756411352e-04  4.3307463634236621e-04  4.2926976316262546e-04  4.2546490197154879e-04  4.2166001077806537e-04  4.1785516436304869e-04  4.1405028234820586e-04  4.1024541838304235e-04  4.0644054711683143e-04  4.0263568288068010e-04  3.9883080420513746e-04  3.9502594778584131e-04  3.9122108538743971e-04  3.8741618572227460e-04  3.8361134396198575e-04  3.7980646842305864e-04  3.7600160486935756e-04  3.7219671037896831e-04  3.6839185939670813e-04  3.6458697222184933e-04  3.6078209998770949e-04  3.5697721772223691e-04  3.5317234028172740e-04  3.4936744149000672e-04  3.4556256445198401e-04  3.4175766985431968e-04  3.3795273124514704e-04  3.3414783710189119e-04  3.3034289393261930e-04  3.2653794358371014e-04  3.2273293627645486e-04  3.1892794083584949e-04  3.1512286943227502e-04  3.1131776000301172e-04  3.0751257797861573e-04  3.0370731954962234e-04  2.9990193933913565e-04  2.9609645434147924e-04  2.9229077488333042e-04  2.8848488022565423e-04  2.8467878530138969e-04  2.8087234045949463e-04  2.7706552633121131e-04  2.7325820051447039e-04  2.6945034328788886e-04  2.6564175410133563e-04  2.6183232758004868e-04  2.5802187470096345e-04  2.5421019164059851e-04  2.5039702569325267e-04  2.4658208518219443e-04  2.4276477046496884e-04  2.3894518731113306e-04  2.3512261165336128e-04  2.3129641160652385e-04  2.2746612559439191e-04  2.2363080655478981e-04  2.1978980071198946e-04  2.1594226645926671e-04  2.1208727491536466e-04  2.0822290530840852e-04  2.0434861331421926e-04  2.0046230569227848e-04  1.9656296176251534e-04  1.9264798717531301e-04  1.8871589001418114e-04  1.8476428955576974e-04  1.8079069406163939e-04  1.7679258083817042e-04  1.7276686174192785e-04  1.6871074547080832e-04  1.6462013779862999e-04  1.6049251693612925e-04  1.5632469442027506e-04  1.5210943722510781e-04  1.4784575605993565e-04  1.4352985293059357e-04  1.3915475090358665e-04  1.3472200357056728e-04  1.3021479036522498e-04  1.2563969875577439e-04  1.2099097143219227e-04  1.1626047724138640e-04  1.1144275687814235e-04  1.0653840308401078e-04  1.0154069047637274e-04  9.6445592776985771e-05  9.1253832138555140e-05  8.5951830370818645e-05  8.0547757187312863e-05  7.5031814029285839e-05  6.9403467575629039e-05  6.3664849105366590e-05  5.7809910120005891e-05  5.1839521957747426e-05  4.5751110219201194e-05  3.9551891940478020e-05  3.3231630167781747e-05  2.6803470428420947e-05  2.0265179374715243e-05  1.3619006969873812e-05  6.8768824233018474e-06  1.4116651418932000e-08  1.7989585612994125e-08  2.0593720116743453e-08  2.0247391779162141e-08  1.5972483179105627e-08  9.9153602917524423e-09  4.9312033394718155e-09  -1.2349712515726688e-09  -6.6196059211930696e-09  -1.0310901921068225e-08  -9.0733830809067368e-09  -1.4953352210999125e-08  -1.8681885715782239e-08  -1.4096124997981146e-08  -7.9622159374879227e-09  -9.1238891712537306e-09  -3.8096314133434066e-09  9.4057968308695861e-09  8.5745964047629997e-09  1.5951234045648515e-08  2.0097183671523029e-08  2.0896125929661025e-08  1.8356628777995647e-08  1.4117484668486704e-08  6.8763027872221884e-06  1.3619572539926721e-05  2.0264884438830459e-05  2.6803569296518585e-05  3.3230763982980244e-05  3.9552327635271503e-05  4.5750506984682691e-05  5.1839733594420144e-05  5.7809992978212257e-05  6.3664649629941833e-05  6.9404080586365802e-05  7.5032849963235126e-05  8.0547307094220197e-05  8.5952338464914238e-05  9.1253585806288368e-05  9.6445654603230971e-05  1.0154124922840083e-04  1.0653884411100028e-04  1.1144344101548842e-04  1.1626051121693185e-04  1.2098986867044402e-04  1.2564094007772719e-04  1.3021482333698293e-04  1.3472179143742192e-04  1.3915426124900754e-04  1.4352912422115204e-04  1.4784509098689360e-04  1.5210940562209111e-04  1.5632439524567828e-04  1.6049256657842139e-04  1.6462013248240350e-04  1.6871077338398704e-04  1.7276689525252511e-04  1.7679259992591477e-04  1.8079076703077135e-04  1.8476439801063139e-04  1.8871587737766458e-04  1.9264797786534816e-04  1.9656292567085326e-04  2.0046235286533344e-04  2.0434864519834687e-04  2.0822294303023535e-04  2.1208732973412603e-04  2.1594234523297616e-04  2.1978983033991726e-04  2.2363079891438915e-04  2.2746609106502288e-04  2.3129637843399432e-04  2.3512262563572025e-04  2.3894518996629284e-04  2.4276479165528901e-04  2.4658207250949994e-04  2.5039700464056877e-04  2.5421017170793996e-04  2.5802187942330646e-04  2.6183233223553290e-04  2.6564175884161606e-04  2.6945033710226403e-04  2.7325820215028866e-04  2.7706552252113601e-04  2.8087234180342724e-04  2.8467878675621211e-04  2.8848488072363875e-04  2.9229077543846134e-04  2.9609645425597098e-04  2.9990194117743984e-04  3.0370731928929282e-04  3.0751257979690576e-04  3.1131776390418131e-04  3.1512286429705594e-04  3.1892793670025625e-04  3.2273294045409112e-04  3.2653794219078211e-04  3.3034289429066812e-04  3.3414783728178858e-04  3.3795273122720192e-04  3.4175767008785216e-04  3.4556256407732353e-04  3.4936744315051135e-04  3.5317234001710726e-04  3.5697721914141066e-04  3.6078210353271157e-04  3.6458696705869270e-04  3.6839185516781284e-04  3.7219671457730595e-04  3.7600160314387625e-04  3.7980646850601730e-04  3.8361134354753998e-04  3.8741618591223625e-04  3.9122108503570680e-04  3.9502594799454026e-04  3.9883080457471840e-04  4.0263568257941783e-04  4.0644054768976051e-04  4.1024542228579905e-04  4.1405027795398129e-04  4.1785516019017608e-04  4.2166001484850109e-04  4.2546490049878282e-04  4.2926976300189493e-04  4.3307463746289452e-04  4.3687947730575296e-04  4.4068437622794897e-04  4.4448923720034710e-04  4.4829409286256412e-04  4.5209897139883296e-04  4.5590383632895484e-04  4.5970871018899217e-04  4.6351356581951047e-04  4.6731844807225691e-04  4.7112330268507259e-04  4.7492818863305357e-04  4.7873305069499113e-04  4.8253791630104844e-04  4.8634277905214356e-04  4.9014766203471461e-04  4.9395250195595963e-04  4.9775740482891598e-04  5.0156224279406512e-04  5.0536712024943102e-04  5.0917201475197548e-04  5.1297684633687249e-04  5.1678174469849830e-04  5.2058659701118611e-04  5.2439145626365959e-04  5.2819633005027832e-04  5.3200120779240453e-04  5.3580607955544144e-04  5.3961093961878072e-04  5.4341580279531211e-04  5.4722067015015115e-04  5.5102555562450378e-04  5.5483041403875898e-04  5.5863528838666181e-04  5.6244013521631578e-04  5.6624503424409069e-04  5.7004987602918939e-04  5.7385475898381747e-04  5.7765962219527383e-04  5.8146448714453030e-04  5.8526934834089988e-04  5.8907423500571842e-04  5.9287908954399975e-04  5.9668397183724260e-04  6.0048882741762534e-04  6.0429370126061760e-04  6.0809856657386178e-04  6.1190344416493369e-04  6.1570830032116211e-04  6.1951316153837494e-04  6.2331806059141295e-04  6.2712290113920799e-04  6.3092777444438068e-04  6.3473263641845162e-04  6.3853752674411762e-04  6.4234237295364980e-04  6.4614725481228880e-04  6.4995211865575685e-04  6.5375698965474674e-04  6.5756185366801039e-04  6.6136673151631197e-04  6.6517158786980372e-04  6.6897644899627565e-04  6.7278134796790667e-04  6.7658618905823680e-04  6.8039106216530797e-04  6.8419592331081156e-04  6.8800081440664252e-04  6.9180566044327535e-04  6.9561054229600936e-04  6.9941540615097646e-04  7.0322027717163369e-04  7.0702514107269868e-04  7.1083001956215926e-04  7.1463487516081189e-04  7.1843973689301305e-04  7.2224463555324147e-04  7.2604947524140329e-04  7.2985434959138692e-04  7.3365921135338044e-04  7.3746409787579304e-04  7.4126895199015652e-04  7.4507383424140693e-04  7.4887868985815630e-04  7.5268356397565608e-04  7.5648842890159689e-04  7.6029330648667783e-04  7.6409816248718663e-04  7.6790302459971474e-04  7.7170792293335447e-04  7.7551276368640308e-04  7.7931763675252502e-04  7.8312249888059756e-04  7.8692738910909909e-04  7.9073223542139022e-04  7.9453711728934772e-04  7.9834198107240565e-04  8.0214685270077685e-04  8.0595171586948344e-04  8.0975659404168327e-04  8.1356145037164945e-04  8.1736631160202904e-04  8.2117121039768527e-04  8.2497605154007185e-04  8.2878092466033397e-04  8.3258578498562777e-04  8.3639067268863831e-04  8.4019554292464281e-04  8.4400039211005961e-04  8.4780526891449894e-04  8.5161012624371062e-04  8.5541501646000902e-04  8.5921987737437740e-04  8.6302474119734460e-04  8.6682960463798123e-04  8.7063448880595558e-04  8.7443932938346112e-04  8.7824422739176810e-04  8.8204907855717008e-04  8.8585395387682749e-04  8.8965882157102398e-04  8.9346369778589530e-04  8.9726854875019611e-04  9.0107341316784982e-04  9.0487829725890534e-04  9.0868316626290034e-04  9.1248802799731945e-04  9.1629288933827010e-04  9.2009777803489956e-04  9.2390262560892956e-04  9.2770750790560847e-04  9.3151236695901733e-04  9.3531726123092368e-04  9.3912209428059594e-04  9.4292697555506801e-04  9.4673184543659196e-04  9.5053669743875148e-04  9.5434159034345526e-04  9.5814644477218317e-04  9.6195133854286416e-04  9.6575616885023426e-04  9.6956105008000316e-04  9.7336592502197256e-04  9.7717080159310686e-04  9.8097564556155824e-04  9.8478053016460123e-04  9.8858538955874718e-04  9.9239025724785876e-04  9.9619513876265703e-04  1.0000000020235641e-03  1.0000000031476217e-03  9.9999999804571476e-04  1.0000000007404889e-03  9.9999999819656718e-04  9.9999999803187275e-04  1.0000000000832498e-03  1.0000000009699763e-03  9.9999999972652390e-04  9.9999999977092220e-04  1.0000000000712631e-03  9.9999999963143698e-04  1.0000000000495478e-03  1.0000000002519812e-03  9.9999999961652118e-04  9.9999999946892982e-04  9.9999999845840439e-04  9.9999999873052830e-04  9.9999999943542603e-04  9.9999999953246234e-04  1.0000000003502880e-03  9.9999999878063925e-04  1.0000000033055763e-03  1.0000000011824613e-03  1.9080217697600515e-04  2.4085952149659296e-04  2.9097043926961638e-04  3.3976046218402818e-04  3.8931863998889097e-04  4.3878193029051906e-04  4.8801509765847111e-04  8.6888160587344511e-04  8.1921839793776903e-04  9.4863427847580064e-04  7.6975511045091947e-04  7.2037715696369792e-04  6.7082853542406353e-04  6.2167329911031529e-04  5.7195231963005542e-04  7.8342734406168640e-05  1.3926541856132635e-04  5.3026341919347746e-04  9.0861359957481608e-04  2.1582261015294643e-04  2.6561392662771552e-04  3.1509414094860601e-04  3.6458698000742045e-04  4.1409981038829512e-04  4.6351357503142382e-04  8.4420348428596015e-04  7.9392474393771264e-04  7.4446145643307989e-04  6.9499816899475293e-04  6.4553488157502827e-04  5.9693074811428153e-04  4.6312814901303920e-04  4.1456583438172478e-04  3.6464358689848017e-04  5.9668396411814966e-04  6.4597396468648303e-04  3.1518390914270174e-04  2.6624984619117277e-04  6.9548012475820968e-04  7.4507382593369509e-04  7.9457753503923024e-04  2.1601481596848036e-04  8.4462150385426022e-04  1.1088650790898373e-04  1.1004571057635863e-04  1.6488301701010464e-04  1.6644638332334726e-04  9.2544549657683412e-04  8.9214052680302962e-04  5.1159738192623351e-04  5.4836054253194441e-04  9.7093305613997396e-04  9.7098787857591480e-04  4.6678004633088769e-05  4.7804174271831922e-05  5.5322836426515809e-04  5.0691910682088210e-04  9.3170042545381523e-04  8.8502358467252976e-04  1.9070585113543923e-04  2.4085870246323275e-04  2.9051470307824636e-04  3.4024535338136094e-04  3.8931863864656552e-04  4.3878192744091439e-04  4.8824521598964875e-04  8.1835907611714769e-04  7.6889578866068268e-04  7.1943250119729113e-04  6.6996921367501179e-04  6.2141560591067900e-04  4.3796260282255464e-04  3.8851373843790669e-04  3.3922710697090533e-04  2.8956859976934088e-04  2.4005078565721179e-04  1.9086142944723725e-04  5.7141861408802552e-04  6.2141560914913093e-04  6.7157017968807098e-04  7.2103346667695776e-04  7.6980546867001884e-04  8.1996004142701037e-04  8.6847261799046296e-04  1.3794224031610214e-04  1.3801058950219184e-04  9.4814099049552554e-04  5.7561159863737607e-04  4.8508303280660387e-04  8.1220686338815532e-05  8.1221431026869131e-05  8.6443204419081739e-04  5.2660832135661224e-04  3.6392448751780161e-05  9.5144358641688993e-04  5.3017153651389892e-04  9.7969356384266875e-04  9.1298260511017313e-04  9.2924059949598369e-04  8.8849796435747216e-04  5.4952605073566745e-04  5.0775169253993227e-04  9.0884023270319954e-04  1.7126430719256535e-04  1.0356286486799911e-04  2.2229832931153199e-04  4.6985583918520308e-04  3.2140311947566748e-04  4.0777038012649263e-04  3.7086689214107632e-04  2.5929682996069046e-04  5.9049000141151733e-04  8.5029996898185797e-04  8.0050733338134228e-04  7.5077653500885187e-04  7.0171282299345426e-04  6.5231636478878209e-04  9.0904843936672353e-04  9.8311422228280609e-04  9.8304191711690242e-04  5.8719196251193304e-04  6.3698706783528903e-04  4.2316756048841193e-04  6.8648029690186393e-04  7.3591364278236351e-04  3.7423771871709677e-04  7.8540687241973346e-04  3.2479869556687602e-04  8.3487015960760570e-04  2.7557610149430697e-04  2.2529302757431666e-04  2.7475740317730571e-04  2.2566409964377512e-04  2.5657203192962989e-04  2.0579010631764286e-04  3.2474509649087869e-04  3.7420878126789468e-04  3.0515847559321665e-04  3.5462326311910700e-04  4.2307970519130680e-04  4.0499203882654583e-04  4.7313536768374295e-04  4.5354988556426529e-04  8.3401374415230161e-04  7.8444358847349672e-04  8.0359536061370301e-04  7.3498030155800859e-04  7.5413207311866414e-04  6.8551701348939869e-04  6.3605372580803079e-04  7.0466878562664933e-04  6.5520549813744846e-04  6.0633469682362456e-04  2.0655957099523285e-04  2.5636830682145652e-04  8.5365113175888145e-04  3.0552001242527044e-04  8.0379875193232683e-04  7.5413207299432187e-04  3.5498475911859532e-04  7.0516682111431924e-04  4.0449400318395167e-04  6.5540889022692918e-04  4.5386284091585054e-04  6.0656492378386535e-04  5.2745299709327652e-04  1.5503296628105708e-04  1.5506584299522849e-04  2.8648672730312111e-05  2.9061104931220703e-05  1.7555160252357430e-04  1.7555144343013105e-04  8.8334948448150164e-04  5.0278118539727207e-04  5.5758451055780650e-04  9.3360361548537228e-04  1.2112160839593177e-04  1.2147069888211426e-04  6.3684568061445350e-04  6.0653030869980517e-04  6.8638466940341243e-04  7.3584795690534379e-04  7.8473879702135158e-04  8.3420208419846323e-04  2.7537280337048707e-04  3.5489892121564156e-04  2.0614751108405767e-04  3.0578901903683975e-04  4.2377246089579781e-04  4.5446144513244503e-04  9.6387010404004939e-04  9.6181895742515372e-04  5.4224990393335001e-04  5.8957825336811707e-04  4.7025790374104865e-04  8.9773153932798367e-04  1.0041384834198724e-04  1.0053521274678998e-04  8.5011821510470962e-04  4.2838807618533742e-04  2.7999078527633179e-04  8.2916965505223472e-04  7.7970636767485304e-04  7.3043913252174460e-04  6.8077979268857099e-04  6.3075592411881466e-04  6.1131865750993324e-04  2.0141385997438102e-04  3.0078392471654991e-04  3.5021303397853249e-04  4.4917578428545451e-04  1.2202769683164585e-04  1.5505972034394948e-04  1.4997842111482768e-04  8.7825474279609142e-04  6.1297176123914260e-05  6.1392769847028124e-05  4.9752162167050404e-04  5.6199878031516781e-04  1.2760829207403976e-04  9.3880143850973445e-04  5.6217072452225249e-04  4.9802680832601869e-04  9.5739380517159299e-04  5.8188457561252321e-04  3.7910873277019523e-04  3.2963865646252533e-04  2.3060039742777528e-04  4.7792693581215107e-04  3.7810926924165280e-04  3.2866927583639449e-04  3.9923161686872965e-04  2.2959484338612175e-04  2.5114876830259817e-04  6.6056061059901951e-04  7.1002389980713836e-04  7.5948718563456196e-04  8.0895047307553980e-04  2.5074832559962297e-04  8.5768694893426718e-04  8.0893650527129985e-04  7.5922312685021789e-04  7.1001642386887809e-04  3.9954999316775471e-04  6.6049021415147478e-04  1.8105890927911625e-04  1.8064352280407618e-04  9.6555641555482201e-04  8.9590342176679597e-05  9.0969092453130657e-05  9.8453906095886620e-04  9.8530167229488822e-04  8.5874539767764359e-04  5.7877924382886637e-05  8.7680915706650367e-04  5.3847463761406674e-04  4.8055614508102823e-04  5.8160161364713750e-04  6.9585533466304502e-05  2.5303024781530897e-05  2.6725873004676019e-05  5.1376508026534462e-04  4.9429714380170491e-04  5.6632586271719489e-04  5.1703335431954871e-04  5.4323706240617768e-04  9.3927808055913357e-04  8.7340487729063482e-04  8.9876638532864568e-04  9.2443336963179143e-04  9.4296226462501460e-04  5.1746173120530549e-04  9.1934338058958511e-04  8.9703600490943910e-04  6.3296049682396479e-04  6.8254449973399528e-04  7.3200778734391545e-04  7.8143168911751259e-04  8.3086800191402277e-04  2