<?xml version="1.0"?>
<VTKFile type="UnstructuredGrid"  version="0.1"  >
<UnstructuredGrid>
<Piece  NumberOfPoints="8545" NumberOfCells="16538">
<Points>
<DataArray  type="Float64"  NumberOfComponents="3"  format="ascii">0 0 0  2 0 0  2 0.2 0  0 0.2 0  0.007999999999984813 0 0  0.01599999999996964 0 0  0.02399999999995461 0 0  0.03199999999993959 0 0  0.03999999999992457 0 0  0.04799999999990945 0 0  0.05599999999989373 0 0  0.06399999999987775 0 0  0.07199999999986065 0 0  0.07999999999984338 0 0  0.08799999999982558 0 0  0.09599999999980778 0 0  0.10399999999979 0 0  0.1119999999997726 0 0  0.1199999999997562 0 0  0.1279999999997408 0 0  0.1359999999997272 0 0  0.1439999999997141 0 0  0.1519999999997019 0 0  0.1599999999996896 0 0  0.1679999999996774 0 0  0.1759999999996651 0 0  0.1839999999996529 0 0  0.1919999999996407 0 0  0.1999999999996284 0 0  0.2079999999996162 0 0  0.2159999999996039 0 0  0.2239999999995916 0 0  0.2319999999995794 0 0  0.2399999999995652 0 0  0.2479999999995501 0 0  0.2559999999995309 0 0  0.2639999999995103 0 0  0.2719999999994875 0 0  0.2799999999994642 0 0  0.2879999999994408 0 0  0.2959999999994175 0 0  0.3039999999993941 0 0  0.3119999999993708 0 0  0.3199999999993474 0 0  0.3279999999993241 0 0  0.3359999999993007 0 0  0.3439999999992774 0 0  0.351999999999254 0 0  0.3599999999992307 0 0  0.3679999999992074 0 0  0.375999999999184 0 0  0.3839999999991606 0 0  0.3919999999991373 0 0  0.3999999999991139 0 0  0.4079999999990906 0 0  0.4159999999990672 0 0  0.4239999999990439 0 0  0.4319999999990204 0 0  0.4399999999989971 0 0  0.4479999999989738 0 0  0.4559999999989504 0 0  0.463999999998927 0 0  0.4719999999989037 0 0  0.4799999999988804 0 0  0.487999999998857 0 0  0.4959999999988337 0 0  0.5039999999988103 0 0  0.511999999998787 0 0  0.5199999999987636 0 0  0.5279999999987403 0 0  0.5359999999987169 0 0  0.5439999999986936 0 0  0.5519999999986703 0 0  0.559999999998647 0 0  0.5679999999986237 0 0  0.5759999999986004 0 0  0.583999999998577 0 0  0.5919999999985537 0 0  0.5999999999985304 0 0  0.6079999999985071 0 0  0.6159999999984838 0 0  0.6239999999984605 0 0  0.6319999999984371 0 0  0.6399999999984138 0 0  0.6479999999983904 0 0  0.6559999999983671 0 0  0.6639999999983438 0 0  0.6719999999983205 0 0  0.6799999999982972 0 0  0.6879999999982739 0 0  0.6959999999982506 0 0  0.7039999999982272 0 0  0.7119999999982038 0 0  0.7199999999981805 0 0  0.7279999999981572 0 0  0.7359999999981339 0 0  0.7439999999981106 0 0  0.7519999999980873 0 0  0.759999999998064 0 0  0.7679999999980406 0 0  0.7759999999980173 0 0  0.783999999997994 0 0  0.7919999999979707 0 0  0.7999999999979474 0 0  0.807999999997924 0 0  0.8159999999979007 0 0  0.8239999999978773 0 0  0.831999999997854 0 0  0.8399999999978307 0 0  0.8479999999978074 0 0  0.855999999997784 0 0  0.8639999999977607 0 0  0.8719999999977374 0 0  0.8799999999977141 0 0  0.8879999999976906 0 0  0.8959999999976673 0 0  0.903999999997644 0 0  0.9119999999976207 0 0  0.9199999999975974 0 0  0.9279999999975741 0 0  0.9359999999975508 0 0  0.9439999999975274 0 0  0.9519999999975041 0 0  0.9599999999974808 0 0  0.9679999999974574 0 0  0.9759999999974341 0 0  0.9839999999974108 0 0  0.9919999999973981 0 0  0.9999999999973858 0 0  1.007999999997396 0 0  1.015999999997406 0 0  1.023999999997427 0 0  1.031999999997449 0 0  1.039999999997469 0 0  1.04799999999749 0 0  1.055999999997512 0 0  1.063999999997533 0 0  1.071999999997554 0 0  1.079999999997575 0 0  1.087999999997596 0 0  1.095999999997617 0 0  1.103999999997638 0 0  1.111999999997659 0 0  1.11999999999768 0 0  1.127999999997702 0 0  1.135999999997722 0 0  1.143999999997744 0 0  1.151999999997765 0 0  1.159999999997786 0 0  1.167999999997807 0 0  1.175999999997828 0 0  1.183999999997849 0 0  1.19199999999787 0 0  1.199999999997891 0 0  1.207999999997912 0 0  1.215999999997933 0 0  1.223999999997955 0 0  1.231999999997976 0 0  1.239999999997997 0 0  1.247999999998018 0 0  1.255999999998039 0 0  1.26399999999806 0 0  1.271999999998081 0 0  1.279999999998102 0 0  1.287999999998123 0 0  1.295999999998144 0 0  1.303999999998166 0 0  1.311999999998186 0 0  1.319999999998208 0 0  1.327999999998229 0 0  1.33599999999825 0 0  1.343999999998271 0 0  1.351999999998292 0 0  1.359999999998313 0 0  1.367999999998334 0 0  1.375999999998355 0 0  1.383999999998376 0 0  1.391999999998397 0 0  1.399999999998418 0 0  1.40799999999844 0 0  1.41599999999846 0 0  1.423999999998482 0 0  1.431999999998503 0 0  1.439999999998524 0 0  1.447999999998545 0 0  1.455999999998566 0 0  1.463999999998587 0 0  1.471999999998608 0 0  1.479999999998629 0 0  1.48799999999865 0 0  1.495999999998672 0 0  1.503999999998693 0 0  1.511999999998714 0 0  1.519999999998735 0 0  1.527999999998756 0 0  1.535999999998777 0 0  1.543999999998798 0 0  1.551999999998819 0 0  1.55999999999884 0 0  1.567999999998861 0 0  1.575999999998882 0 0  1.583999999998904 0 0  1.591999999998924 0 0  1.599999999998946 0 0  1.607999999998967 0 0  1.615999999998988 0 0  1.623999999999009 0 0  1.63199999999903 0 0  1.639999999999051 0 0  1.647999999999072 0 0  1.655999999999093 0 0  1.663999999999114 0 0  1.671999999999136 0 0  1.679999999999157 0 0  1.687999999999177 0 0  1.695999999999199 0 0  1.70399999999922 0 0  1.711999999999241 0 0  1.719999999999262 0 0  1.727999999999283 0 0  1.735999999999304 0 0  1.743999999999325 0 0  1.751999999999346 0 0  1.759999999999367 0 0  1.767999999999389 0 0  1.775999999999409 0 0  1.783999999999431 0 0  1.791999999999452 0 0  1.799999999999473 0 0  1.807999999999494 0 0  1.815999999999515 0 0  1.823999999999536 0 0  1.831999999999557 0 0  1.839999999999578 0 0  1.847999999999599 0 0  1.85599999999962 0 0  1.863999999999641 0 0  1.871999999999663 0 0  1.879999999999684 0 0  1.887999999999705 0 0  1.895999999999726 0 0  1.903999999999747 0 0  1.911999999999768 0 0  1.919999999999789 0 0  1.92799999999981 0 0  1.935999999999831 0 0  1.943999999999853 0 0  1.951999999999873 0 0  1.959999999999895 0 0  1.967999999999916 0 0  1.975999999999937 0 0  1.983999999999958 0 0  1.991999999999979 0 0  2 0.007999999999985056 0  2 0.01599999999997076 0  2 0.02399999999995914 0  2 0.03199999999993772 0  2 0.03999999999991205 0  2 0.04799999999988908 0  2 0.05599999999986612 0  2 0.06399999999984315 0  2 0.07199999999982019 0  2 0.07999999999979179 0  2 0.08799999999976883 0  2 0.09599999999974587 0  2 0.1039999999997452 0  2 0.1119999999997669 0  2 0.1199999999997886 0  2 0.1279999999998103 0  2 0.135999999999832 0  2 0.1439999999998537 0  2 0.1519999999998738 0  2 0.1599999999998949 0  2 0.1679999999999159 0  2 0.175999999999937 0  2 0.183999999999958 0  2 0.191999999999979 0  1.991999999999967 0.2 0  1.983999999999933 0.2 0  1.9759999999999 0.2 0  1.967999999999867 0.2 0  1.959999999999834 0.2 0  1.9519999999998 0.2 0  1.943999999999767 0.2 0  1.935999999999734 0.2 0  1.9279999999997 0.2 0  1.919999999999667 0.2 0  1.911999999999634 0.2 0  1.9039999999996 0.2 0  1.895999999999567 0.2 0  1.887999999999534 0.2 0  1.879999999999501 0.2 0  1.871999999999467 0.2 0  1.863999999999434 0.2 0  1.855999999999401 0.2 0  1.847999999999367 0.2 0  1.839999999999334 0.2 0  1.831999999999301 0.2 0  1.823999999999268 0.2 0  1.815999999999234 0.2 0  1.807999999999201 0.2 0  1.799999999999168 0.2 0  1.791999999999135 0.2 0  1.783999999999101 0.2 0  1.775999999999068 0.2 0  1.767999999999035 0.2 0  1.759999999999017 0.2 0  1.751999999999006 0.2 0  1.743999999999028 0.2 0  1.735999999999061 0.2 0  1.727999999999112 0.2 0  1.719999999999168 0.2 0  1.711999999999223 0.2 0  1.703999999999279 0.2 0  1.695999999999334 0.2 0  1.68799999999939 0.2 0  1.679999999999446 0.2 0  1.671999999999501 0.2 0  1.663999999999557 0.2 0  1.655999999999612 0.2 0  1.647999999999668 0.2 0  1.639999999999723 0.2 0  1.631999999999779 0.2 0  1.623999999999834 0.2 0  1.61599999999989 0.2 0  1.607999999999945 0.2 0  1.600000000000001 0.2 0  1.592000000000056 0.2 0  1.584000000000112 0.2 0  1.576000000000167 0.2 0  1.568000000000223 0.2 0  1.560000000000279 0.2 0  1.552000000000334 0.2 0  1.54400000000039 0.2 0  1.536000000000445 0.2 0  1.528000000000501 0.2 0  1.520000000000556 0.2 0  1.512000000000612 0.2 0  1.504000000000667 0.2 0  1.496000000000723 0.2 0  1.488000000000778 0.2 0  1.480000000000834 0.2 0  1.472000000000889 0.2 0  1.464000000000945 0.2 0  1.456000000001 0.2 0  1.448000000001056 0.2 0  1.440000000001112 0.2 0  1.432000000001167 0.2 0  1.424000000001223 0.2 0  1.416000000001278 0.2 0  1.408000000001334 0.2 0  1.400000000001389 0.2 0  1.392000000001445 0.2 0  1.3840000000015 0.2 0  1.376000000001556 0.2 0  1.368000000001611 0.2 0  1.360000000001667 0.2 0  1.352000000001722 0.2 0  1.344000000001778 0.2 0  1.336000000001833 0.2 0  1.328000000001889 0.2 0  1.320000000001944 0.2 0  1.312000000002 0.2 0  1.304000000002055 0.2 0  1.296000000002111 0.2 0  1.288000000002166 0.2 0  1.280000000002222 0.2 0  1.272000000002277 0.2 0  1.264000000002333 0.2 0  1.256000000002388 0.2 0  1.248000000002444 0.2 0  1.240000000002499 0.2 0  1.232000000002555 0.2 0  1.22400000000261 0.2 0  1.216000000002666 0.2 0  1.208000000002721 0.2 0  1.200000000002777 0.2 0  1.192000000002832 0.2 0  1.184000000002888 0.2 0  1.176000000002943 0.2 0  1.168000000002999 0.2 0  1.160000000003054 0.2 0  1.15200000000311 0.2 0  1.144000000003165 0.2 0  1.136000000003221 0.2 0  1.128000000003276 0.2 0  1.120000000003332 0.2 0  1.112000000003387 0.2 0  1.104000000003443 0.2 0  1.096000000003498 0.2 0  1.088000000003554 0.2 0  1.080000000003609 0.2 0  1.072000000003665 0.2 0  1.06400000000372 0.2 0  1.056000000003776 0.2 0  1.048000000003831 0.2 0  1.040000000003887 0.2 0  1.032000000003942 0.2 0  1.024000000003998 0.2 0  1.016000000004053 0.2 0  1.008000000004088 0.2 0  1.000000000004121 0.2 0  0.99200000000411 0.2 0  0.984000000004098 0.2 0  0.9760000000040647 0.2 0  0.9680000000040314 0.2 0  0.9600000000039981 0.2 0  0.9520000000039648 0.2 0  0.9440000000039312 0.2 0  0.9360000000038982 0.2 0  0.928000000003864
[...]
<PointData  Scalars="pressure"> 
<DataArray  type="Float64"  Name="pressure"  format="ascii">3.1645418675258908e-03  3.2838669283009852e-08  3.1595359862867512e-08  3.1645414110626473e-03  3.1519377240384742e-03  3.1392863573706880e-03  3.1266114568382370e-03  3.1139743453804550e-03  3.1012794743105030e-03  3.0886335140552336e-03  3.0759745192406652e-03  3.0633289227698507e-03  3.0506439983186543e-03  3.0379798332526311e-03  3.0253219065429831e-03  3.0126577018784193e-03  3.0000083851258910e-03  2.9873264068081664e-03  2.9746801287110838e-03  2.9620062603970270e-03  2.9493407582222441e-03  2.9366792252205993e-03  2.9240263132670405e-03  2.9113464471882552e-03  2.8986822197755420e-03  2.8860463627677622e-03  2.8733578529394669e-03  2.8607082525365425e-03  2.8480283944394597e-03  2.8353711171112007e-03  2.8227073432791788e-03  2.8100643583505035e-03  2.7973759676559766e-03  2.7847143077396747e-03  2.7720660914112016e-03  2.7593911129418502e-03  2.7467425055299238e-03  2.7340790243625917e-03  2.7213645714573497e-03  2.7087620571674799e-03  2.6960754360354161e-03  2.6834425905082810e-03  2.6707356471631421e-03  2.6580824788966020e-03  2.6454403152400621e-03  2.6327853855915564e-03  2.6201095355609743e-03  2.6074510613937523e-03  2.5947639367512173e-03  2.5821321271130870e-03  2.5694526534881298e-03  2.5567970314883761e-03  2.5441462680118382e-03  2.5314656767894189e-03  2.5188211451726327e-03  2.5061503114619651e-03  2.4934943979374137e-03  2.4808205574454491e-03  2.4681758152883130e-03  2.4555020017389159e-03  2.4428583922703659e-03  2.4301878138219104e-03  2.4175185593900694e-03  2.4048369465331067e-03  2.3922245023069327e-03  2.3795473200412605e-03  2.3668748990615879e-03  2.3542297675636374e-03  2.3415601922949277e-03  2.3289051975172760e-03  2.3162325001967990e-03  2.3035902295651931e-03  2.2909125232926605e-03  2.2782734140176330e-03  2.2656045579612046e-03  2.2529447461345211e-03  2.2402541504316360e-03  2.2276454995567474e-03  2.2149678712846885e-03  2.2022964274099098e-03  2.1896523306699864e-03  2.1769837005258244e-03  2.1643298078361378e-03  2.1516580660381110e-03  2.1390153790182302e-03  2.1263436451928104e-03  2.1137020781343118e-03  2.1010335409039475e-03  2.0883663100351858e-03  2.0756867053421482e-03  2.0630762068147841e-03  2.0504009751449526e-03  2.0377304933491677e-03  2.0250872435901256e-03  2.0124195352327549e-03  1.9997664436412900e-03  1.9870955120706926e-03  1.9744536008566523e-03  1.9617826106900268e-03  1.9491419521124498e-03  1.9364732670027226e-03  1.9238098672558154e-03  1.9111281373940367e-03  1.8985183866918097e-03  1.8858444204934393e-03  1.8731787935331429e-03  1.8605341022103336e-03  1.8478555611890712e-03  1.8352153281809280e-03  1.8225475625690151e-03  1.8098801865738705e-03  1.7972507926683064e-03  1.7845774956886952e-03  1.7719193794960744e-03  1.7592460469281347e-03  1.7466253433614846e-03  1.7339488598827517e-03  1.7212671376512709e-03  1.7086587277924297e-03  1.6959488771668906e-03  1.6833238656422027e-03  1.6706817227904877e-03  1.6579896752924525e-03  1.6453406878941933e-03  1.6327022704527244e-03  1.6200187598128086e-03  1.6073862154675040e-03  1.5947143943994011e-03  1.5820570193099881e-03  1.5694057573592030e-03  1.5567590402512498e-03  1.5440838400704697e-03  1.5314376899724521e-03  1.5187691859469045e-03  1.5061363970175232e-03  1.4934563801924392e-03  1.4808122207594190e-03  1.4681351804397475e-03  1.4554881966618253e-03  1.4428538544341307e-03  1.4301655668833675e-03  1.4175199422613565e-03  1.4048606053048010e-03  1.3922203985151382e-03  1.3795393537216535e-03  1.3668866721516788e-03  1.3542612130062850e-03  1.3415555736726703e-03  1.3289288308629198e-03  1.3162571061547152e-03  1.3035989747428030e-03  1.2909788092090677e-03  1.2782751071451434e-03  1.2656349710888058e-03  1.2529737926207040e-03  1.2403466944343057e-03  1.2276628492207671e-03  1.2150256896959670e-03  1.2023599566461979e-03  1.1897074546847401e-03  1.1770433092988103e-03  1.1643904642693855e-03  1.1517170549082828e-03  1.1390593397844640e-03  1.1264414821719455e-03  1.1137376270264128e-03  1.1010984490084118e-03  1.0884381906779124e-03  1.0758115640594780e-03  1.0631271762690049e-03  1.0504887062728189e-03  1.0378240894506755e-03  1.0251726320656092e-03  1.0125102026974041e-03  9.9986091338439219e-04  9.8718592248712858e-04  9.7452881157639301e-04  9.6191001765916705e-04  9.4920634210907053e-04  9.3656637952747770e-04  9.2390420055584149e-04  9.1127783790080261e-04  8.9859367547108905e-04  8.8595471281207293e-04  8.7329014148536139e-04  8.6063845521917284e-04  8.4797597745552900e-04  8.3532684535583541e-04  8.2265193951994511e-04  8.0999492733963160e-04  7.9737626695454129e-04  7.8467266190032474e-04  7.7203296884376994e-04  7.5937105747538394e-04  7.4674474344016667e-04  7.3406212429998790e-04  7.2142378791148834e-04  7.0875807182161591e-04  6.9610570089986259e-04  6.8344153863754301e-04  6.7078918847680825e-04  6.5811601795354125e-04  6.4545873703112809e-04  6.3284091850283756e-04  6.2013706641940642e-04  6.0749862352243208e-04  5.9483753955062062e-04  5.8221329778248220e-04  5.6954710985562113e-04  5.5686865082678534e-04  5.4422427440268921e-04  5.3155568819244603e-04  5.1892926009369919e-04  5.0625176584078531e-04  4.9358990706266923e-04  4.8092471034179881e-04  4.6829440091282471e-04  4.5564397932820641e-04  4.4297589544279551e-04  4.3032386197443988e-04  4.1765132243656275e-04  4.0501837834558022e-04  3.9233543732758929e-04  3.7969017754217824e-04  3.6703140950056218e-04  3.5438473776260032e-04  3.4173384477585451e-04  3.2906693959645293e-04  3.1640709708378659e-04  3.0374537604090584e-04  2.9109386398187533e-04  2.7846016306451535e-04  2.6577965854125192e-04  2.5312773582264372e-04  2.4049539841213672e-04  2.2779560845461499e-04  2.1518233912794539e-04  2.0246949372174295e-04  1.8985683552253605e-04  1.7721306440328884e-04  1.6453437124164678e-04  1.5188448333481106e-04  1.3918729022471555e-04  1.2658939490828736e-04  1.1389342943010676e-04  1.0124147004464580e-04  8.8613982991721739e-05  7.5946175501740359e-05  6.3289761450693971e-05  5.0601961890802664e-05  3.7993504200254837e-05  2.5298868790315748e-05  1.2672957876548841e-05  5.6892256304350422e-10  9.8965321530079478e-09  3.0766453181757706e-10  1.7376594339283179e-09  -3.6244587851284818e-09  -3.0591401073298313e-09  6.4163664121844055e-10  -2.0040252119741605e-09  -1.1987531264242081e-09  -2.6600662928475820e-10  -1.2728958942783625e-09  -1.0671001609856861e-09  -2.2658191139299548e-09  1.3448928440925670e-09  3.2657938058620460e-10  1.7341527647021181e-09  -2.8655990187759492e-09  -1.4536824327284649e-09  -9.7921527840395236e-09  -3.9973552994968460e-09  3.1308149261868013e-09  -4.0696956803083906e-09  9.1682482316521980e-09  5.5211686114921249e-10  1.2672554103047222e-05  2.5309359238568706e-05  3.7988641034335649e-05  5.0606899237068309e-05  6.3289105911127792e-05  7.5946505019514401e-05  8.8615455285457031e-05  1.0124200810870802e-04  1.1389453978577260e-04  1.2659098493034553e-04  1.3918254474136363e-04  1.5188076350675558e-04  1.6453622019533789e-04  1.7721190282976986e-04  1.8985591493993233e-04  2.0245870894555260e-04  2.1517896771889081e-04  2.2779407325225061e-04  2.4049748050957307e-04  2.5311389884831226e-04  2.6577717177652511e-04  2.7846430314515906e-04  2.9109263043244503e-04  3.0374583666855162e-04  3.1640704564703888e-04  3.2906843774065065e-04  3.4173349652395551e-04  3.5438447599309462e-04  3.6703075262079491e-04  3.7969161241802057e-04  3.9233519079948516e-04  4.0501889900559126e-04  4.1765082860937744e-04  4.3032288764749285e-04  4.4297725648075135e-04  4.5564442616115292e-04  4.6829209576974005e-04  4.8092748786003289e-04  4.9359039120309262e-04  5.0625448775768009e-04  5.1893104047388242e-04  5.3156059023932816e-04  5.4422279364045448e-04  5.5686709119234735e-04  5.6954518397780963e-04  5.8221483303372941e-04  5.9483628904955887e-04  6.0749720982486021e-04  6.2014281558852582e-04  6.3284006411315138e-04  6.4546146149803754e-04  6.5811828991819369e-04  6.7079261742634282e-04  6.8344360680384680e-04  6.9610616719219861e-04  7.0875263356278242e-04  7.2142518789445188e-04  7.3406648616943524e-04  7.4674256610807676e-04  7.5937352615291760e-04  7.7203417813878628e-04  7.8467208292212092e-04  7.9737638510856876e-04  8.0999399254773905e-04  8.2265313009171248e-04  8.3532680777395922e-04  8.4797774082813623e-04  8.6063991667982153e-04  8.7328604131492297e-04  8.8595819585945588e-04  8.9859897870728581e-04  9.1127494120059500e-04  9.2390636139787175e-04  9.3656730859226960e-04  9.4920633485051729e-04  9.6190994930195328e-04  9.7452773781101713e-04  9.8718691625398493e-04  9.9986074767873987e-04  1.0125116896301826e-03  1.0251739430573721e-03  1.0378202941964364e-03  1.0504925348690248e-03  1.0631337812343896e-03  1.0758089987424645e-03  1.0884419228300644e-03  1.1011010341195066e-03  1.1137429804574149e-03  1.1264413530644062e-03  1.1390628041805663e-03  1.1517199324179936e-03  1.1643945393854226e-03  1.1770457178955827e-03  1.1897085710011939e-03  1.2023552821705450e-03  1.2150280841560237e-03  1.2276697038823062e-03  1.2403460811158968e-03  1.2529773069448206e-03  1.2656380306842934e-03  1.2782759057667565e-03  1.2909802208378840e-03  1.3035948045756628e-03  1.3162559206673717e-03  1.3289317727663195e-03  1.3415837028430556e-03  1.3542461026270667e-03  1.3668924974757518e-03  1.3795649165759837e-03  1.3922061298779550e-03  1.4048826907571094e-03  1.4175153582411239e-03  1.4301729815793876e-03  1.4428297098089539e-03  1.4555026666381509e-03  1.4681355973816402e-03  1.4808287890121373e-03  1.4934452418203501e-03  1.5061341634850225e-03  1.5187962515115295e-03  1.5314094270038887e-03  1.5441128561407274e-03  1.5567326686657577e-03  1.5693985262418078e-03  1.5820709133636487e-03  1.5947314842917996e-03  1.6073750685272935e-03  1.6200221912300449e-03  1.6326874539450557e-03  1.6453574930178723e-03  1.6580251278921127e-03  1.6706564455317577e-03  1.6833207042990987e-03  1.6959651259086908e-03  1.7086579523156288e-03  1.7212732877346982e-03  1.7339617469535249e-03  1.7466023210281894e-03  1.7592573277240330e-03  1.7719209652721276e-03  1.7845966664090853e-03  1.7972350090670886e-03  1.8099061442031614e-03  1.8225474134710661e-03  1.8352190774478345e-03  1.8478722700854843e-03  1.8605343687905867e-03  1.8731754234587639e-03  1.8858463621557789e-03  1.8985225460248182e-03  1.9111334136991658e-03  1.9238143730257321e-03  1.9364738010694443e-03  1.9491493974910536e-03  1.9617823924604652e-03  1.9744640831012394e-03  1.9871093097181044e-03  1.9997707316644561e-03  2.0124238860126957e-03  2.0250890083603501e-03  2.0377307593013008e-03  2.0504022531743784e-03  2.0630790291346185e-03  2.0756910636872843e-03  2.0883708867704973e-03  2.1010306146369128e-03  2.1137079798748326e-03  2.1263412326216783e-03  2.1390234874489240e-03  2.1516691384740583e-03  2.1643309740465950e-03  2.1769849219765861e-03  2.1896508300498544e-03  2.2022923797623134e-03  2.2149660423182865e-03  2.2276437437085362e-03  2.2402556444033419e-03  2.2529371677143134e-03  2.2655967853696286e-03  2.2782720258241358e-03  2.2909117266933904e-03  2.3035849656805208e-03  2.3162276628712840e-03  2.3288997940958127e-03  2.3415544793279615e-03  2.3542230109873039e-03  2.3668673613834418e-03  2.3795389466906643e-03  2.3922156557514241e-03  2.4048283986203294e-03  2.4175104272841958e-03  2.4301718688013131e-03  2.4428493552009602e-03  2.4554843386637984e-03  2.4681678030025332e-03  2.4808147942278610e-03  2.4934787495379473e-03  2.5061334895645953e-03  2.5188014207988014e-03  2.5314445121403695e-03  2.5441185243416289e-03  2.5567973978553975e-03  2.5694116730763192e-03  2.5820938543215594e-03  2.5947555670171240e-03  2.6074359914819490e-03  2.6200827551165796e-03  2.6327236416712691e-03  2.6454044080137943e-03  2.6580596015647116e-03  2.6707449884307544e-03  2.6833758756606967e-03  2.6960393914615714e-03  2.7087030119917490e-03  2.7213800983885705e-03  2.7340152841955501e-03  2.7467091204288461e-03  2.7593387513014625e-03  2.7720188937671360e-03  2.7846751238864063e-03  2.7973382988028999e-03  2.8099867210464331e-03  2.8226653542218379e-03  2.8353404456094382e-03  2.8479873118992280e-03  2.8606419907905478e-03  2.8733073311070735e-03  2.8859851251388882e-03  2.8986245692912706e-03  2.9113093289773006e-03  2.9239570555802787e-03  2.9366376678148730e-03  2.9492566724578328e-03  2.9619585050484568e-03  2.9746142310157087e-03  2.9872724652159166e-03  2.9999578624105229e-03  3.0125960186795529e-03  3.0252795331762424e-03  3.0379012737082778e-03  3.0506079282299559e-03  3.0632675212350878e-03  3.0759280678519770e-03  3.0885722762809399e-03  3.1012670937718414e-03  3.1139168761296146e-03  3.1265931653645944e-03  3.1392645236819859e-03  3.1519127906472206e-03  3.1645536663500668e-03  3.1645570220668958e-03  3.1645549291856338e-03  3.1645581818330643e-03  3.1645571184041395e-03  3.1645578709698133e-03  3.1645559388737764e-03  3.1645478492292193e-03  3.1645563786467253e-03  3.1645582710580350e-03  3.1645575585807825e-03  3.1645581595786390e-03  3.1645579738993038e-03  3.1645586684028930e-03  3.1645561822105234e-03  3.1645588538039802e-03  3.1645594941340236e-03  3.1645572636541273e-03  3.1645581813993574e-03  3.1645579480478908e-03  3.1645578832207137e-03  3.1645587999389420e-03  3.1645586676199455e-03  3.1645565661373790e-03  4.7489763670162995e-04  6.3914621649122582e-04  8.0561417389663392e-04  9.6789667172879205e-04  1.1327470421897826e-03  1.2972821369027707e-03  1.4610578555853976e-03  2.7282192651690300e-03  2.5629498243949608e-03  2.9936334671726173e-03  2.3983602059680421e-03  2.2340692296533228e-03  2.0692192649557606e-03  1.9056863517110940e-03  1.7402777840691160e-03  1.5903094731174616e-04  3.1641322815348149e-04  1.6015997083342151e-03  2.8604509859573701e-03  5.5644627804012808e-04  7.2131768148192663e-04  8.8585717266520742e-04  1.0504789258435603e-03  1.2151852779175387e-03  1.3795585958640290e-03  2.6461091433336243e-03  2.4787959459314926e-03  2.3142107741821057e-03  2.1496374497416777e-03  1.9850746734530900e-03  1.8233773831312890e-03  1.3782688596992553e-03  1.2167241862097642e-03  1.0506564320526808e-03  1.8225523618041117e-03  1.9865337044638301e-03  8.8613556057106084e-04  7.2342600579549830e-04  2.1512355037993031e-03  2.3162365287506077e-03  2.4809484190560414e-03  5.5707056809956501e-04  2.6474802680260898e-03  2.3869721323138097e-04  2.3650132629539019e-04  3.9299670059672473e-04  3.9782286278078338e-04  2.9164530402767501e-03  2.8056074810689688e-03  1.5395002249272347e-03  1.6617979571139727e-03  3.0678537983589065e-03  3.0680023868478261e-03  9.0302732876589484e-05  9.2642696321919800e-05  1.6779803395302485e-03  1.5239343732336577e-03  2.9372941044437020e-03  2.7819510016689948e-03  4.7460082693493442e-04  6.3915339611626115e-04  8.0410802048119334e-04  9.6950135346758279e-04  1.1327552417368990e-03  1.2972980681077804e-03  1.4618299053666421e-03  2.5601000424091361e-03  2.3955038937188609e-03  2.2309228112417367e-03  2.0663562270245069e-03  1.9048410000941937e-03  1.2945590639300900e-03  1.1300692364488783e-03  9.6612746156428191e-04  8.0095594284164070e-04  6.3646896911519321e-04  4.7511075105142672e-04  1.7385045710921762e-03  1.9048226307535902e-03  2.0716879292497097e-03  2.2362466440160960e-03  2.3985188390129625e-03  2.5654049763800518e-03  2.7268390508924196e-03  3.1272174752922143e-04  3.1290895540707575e-04  2.9919666973205489e-03  1.7524462222787329e-03  1.4513031894352886e-03  1.6584568115012179e-04  1.6585567182501615e-04  2.7134322115072375e-03  1.5894302917444628e-03  6.9309005029559543e-05  3.0030078515006576e-03  1.6012846151212911e-03  3.0969916626647363e-03  2.8750045886792729e-03  2.9290932267911417e-03  2.7935003156249610e-03  1.6656749851528790e-03  1.5267114722872024e-03  2.8611743813104378e-03  4.1279407426239432e-04  2.1981765975290015e-04  5.7776957284091414e-04  1.4006521376654006e-03  9.0683611218611202e-04  1.1941277447694099e-03  1.0713701831623144e-03  7.0032971025328237e-04  1.8019481585333328e-03  2.6663825720515660e-03  2.5006944692109357e-03  2.3352161190904868e-03  2.1719737104241121e-03  2.0076359118846149e-03  2.8618844872270672e-03  3.1084028760155662e-03  3.1081295544676470e-03  1.7909843358361374e-03  1.9566399664033762e-03  1.2453490812566891e-03  2.1212986874201167e-03  2.2857673415730838e-03  1.0825856818347244e-03  2.4504441326585777e-03  9.1813429408918630e-04  2.6150272383485273e-03  7.5442680842430698e-04  5.8766923472445664e-04  7.5171254075883601e-04  5.8889686915333892e-04  6.9127936226380028e-04  5.2357437648533765e-04  9.1796494557234770e-04  1.0824986295319057e-03  8.5280006226912705e-04  1.0173340321162248e-03  1.2450584992359471e-03  1.1848824443082169e-03  1.4115712654836719e-03  1.3464035562244510e-03  2.6122018859128164e-03  2.4472484348223899e-03  2.5109686021770727e-03  2.2826644170286996e-03  2.3463782990909270e-03  2.1180920057833315e-03  1.9535318747092951e-03  2.1818023865180073e-03  2.0172370451366248e-03  1.8546468635342594e-03  5.2611082355592202e-04  6.9060404562901298e-04  2.6775183108820270e-03  8.5400653598690886e-04  2.5116276127642024e-03  2.3463735074239550e-03  1.0185402400393574e-03  2.1834569897399370e-03  1.1832232441452125e-03  2.0179137420870655e-03  1.3474383632538780e-03  1.8554304218934173e-03  1.5922506729190988e-03  3.6303643389657997e-04  3.6313409116465480e-04  5.4231000764783463e-05  5.5038030130712958e-05  4.2632610031779361e-04  4.2632423460216208e-04  2.7763514541677210e-03  1.5101736008055952e-03  1.6925023468256598e-03  2.9435886836193621e-03  2.6599450238081786e-04  2.6691627740714339e-04  1.9561653542717935e-03  1.8553094290516144e-03  2.1209764465818675e-03  2.2855443423999613e-03  2.4482208684693456e-03  2.6128116579284262e-03  7.5375283626110139e-04  1.0182566150889825e-03  5.2472884686628871e-04  8.5490369608768398e-04  1.2473567299701536e-03  1.3494423524115402e-03  3.0443328704985082e-03  3.0374897596406199e-03  1.6414711966666437e-03  1.7989105945583849e-03  1.4020023899325238e-03  2.8242414917483941e-03  2.1217581834753158e-04  2.1247303385551683e-04  2.6657999695570635e-03  1.2627085230432547e-03  7.6910373353763876e-04  2.5960695313935107e-03  2.4314743792461162e-03  2.2675461534682599e-03  2.1023239218431787e-03  1.9359040388561731e-03  1.8712390887427467e-03  5.0928684075247932e-04  8.3825443467527481e-04  1.0026676330590803e-03  1.3318611647715386e-03  2.6821685721804210e-04  3.6298532016134781e-04  3.4779047035653644e-04  2.7594042803635124e-03  1.2134151108460090e-04  1.2151655112766506e-04  1.4926765725392424e-03  1.7071713311049182e-03  2.8352078660021687e-04  2.9608936633191796e-03  1.7077458113509232e-03  1.4943689119377745e-03  3.0227974357354714e-03  1.7733212847197855e-03  1.0987904218080339e-03  9.3423287288678966e-04  6.0519178817994659e-04  1.4275184215350311e-03  1.0954713344850100e-03  9.3100813864775765e-04  1.1657264645125915e-03  6.0186931219566959e-04  6.7327604845666684e-04  2.0350649106192398e-03  2.1996166005099735e-03  2.3642063089183577e-03  2.5287957471421016e-03  6.7194940381730623e-04  2.6909509881401562e-03  2.5287360332210823e-03  2.3633176781654771e-03  2.1996016447081552e-03  1.1667841704534991e-03  2.0348284509335165e-03  4.4370612925924110e-04  4.4237724729550318e-04  3.0499736971451451e-03  1.8546538309715713e-04  1.8876789523460810e-04  3.1131185383689330e-03  3.1156624705150622e-03  2.6944945330588887e-03  1.1370728254900287e-04  2.7546149909079324e-03  1.6289089499340135e-03  1.4362452891079731e-03  1.7723769537166742e-03  1.3928503817175951e-04  4.7537199149588194e-05  5.0310162616442486e-05  1.5466979400114227e-03  1.4819536205553424e-03  1.7215659963830527e-03  1.5575989733163146e-03  1.6447499020647775e-03  2.9625222454519214e-03  2.7432842332942861e-03  2.8276879862062041e-03  2.9131280330370133e-03  2.9747694569084867e-03  1.5590068516536835e-03  2.8961715940032467e-03  2.8218890396038486e-03  1.9432408064341440e-03  2.1082007869868300e-03  2.2727654083309315e-03  2.4372107826431131e-03  2.6017124810232854e-03