<?xml version="1.0"?>
<VTKFile type="UnstructuredGrid"  version="0.1"  >
<UnstructuredGrid>
<Piece  NumberOfPoints="29979" NumberOfCells="59225">
<Points>
<DataArray  type="Float64"  NumberOfComponents="3"  format="ascii">0 0 0  0.7 0 0  0.7 0.25 0  0 0.25 0  0.002991452991447148 0 0  0.005982905982894296 0 0  0.008974358974341432 0 0  0.0119658119657887 0 0  0.0149572649572362 0 0  0.01794871794868352 0 0  0.02094017094013065 0 0  0.02393162393157728 0 0  0.02692307692302367 0 0  0.02991452991446975 0 0  0.03290598290591576 0 0  0.03589743589736141 0 0  0.03888888888880721 0 0  0.04188034188025361 0 0  0.04487179487170056 0 0  0.04786324786314844 0 0  0.05085470085459671 0 0  0.05384615384604534 0 0  0.05683760683749394 0 0  0.05982905982894257 0 0  0.06282051282039053 0 0  0.06581196581183844 0 0  0.06880341880328707 0 0  0.07179487179473568 0 0  0.0747863247861843 0 0  0.07777777777763231 0 0  0.08076923076907945 0 0  0.08376068376052657 0 0  0.08675213675197373 0 0  0.08974358974341974 0 0  0.09273504273486541 0 0  0.0957264957263097 0 0  0.09871794871775386 0 0  0.101709401709198 0 0  0.1047008547006426 0 0  0.1076923076920882 0 0  0.1106837606835339 0 0  0.1136752136749795 0 0  0.1166666666664243 0 0  0.1196581196578685 0 0  0.1226495726493126 0 0  0.1256410256407568 0 0  0.1286324786322038 0 0  0.1316239316236509 0 0  0.1346153846150981 0 0  0.1376068376065443 0 0  0.1405982905979885 0 0  0.1435897435894326 0 0  0.1465811965808768 0 0  0.149572649572321 0 0  0.1525641025637651 0 0  0.1555555555552093 0 0  0.1585470085466535 0 0  0.1615384615380976 0 0  0.1645299145295418 0 0  0.167521367520986 0 0  0.1705128205124302 0 0  0.1735042735038743 0 0  0.1764957264953185 0 0  0.1794871794867627 0 0  0.1824786324782068 0 0  0.185470085469651 0 0  0.1884615384610951 0 0  0.1914529914525394 0 0  0.1944444444439835 0 0  0.1974358974354277 0 0  0.2004273504268719 0 0  0.203418803418316 0 0  0.2064102564097602 0 0  0.2094017094012044 0 0  0.2123931623926485 0 0  0.2153846153840948 0 0  0.2183760683755419 0 0  0.221367521366989 0 0  0.2243589743584361 0 0  0.2273504273498802 0 0  0.2303418803413244 0 0  0.2333333333327685 0 0  0.2363247863242127 0 0  0.2393162393156569 0 0  0.2423076923071011 0 0  0.2452991452985452 0 0  0.2482905982899894 0 0  0.2512820512814336 0 0  0.2542735042728778 0 0  0.257264957264322 0 0  0.2602564102557661 0 0  0.2632478632472102 0 0  0.2662393162386544 0 0  0.2692307692300986 0 0  0.2722222222215427 0 0  0.275213675212987 0 0  0.2782051282044311 0 0  0.2811965811958753 0 0  0.2841880341873195 0 0  0.2871794871787636 0 0  0.2901709401702077 0 0  0.2931623931616519 0 0  0.2961538461530961 0 0  0.2991452991445402 0 0  0.3021367521359845 0 0  0.3051282051274286 0 0  0.3081196581188728 0 0  0.311111111110317 0 0  0.3141025641017611 0 0  0.3170940170932053 0 0  0.3200854700846494 0 0  0.3230769230760936 0 0  0.3260683760675378 0 0  0.329059829058982 0 0  0.3320512820504261 0 0  0.3350427350418703 0 0  0.3380341880333145 0 0  0.3410256410247586 0 0  0.3440170940162028 0 0  0.3470085470076519 0 0  0.349999999999102 0 0  0.3529914529905639 0 0  0.3559829059820259 0 0  0.3589743589734879 0 0  0.3619658119649478 0 0  0.3649572649564038 0 0  0.3679487179478629 0 0  0.3709401709393249 0 0  0.3739316239307868 0 0  0.3769230769222488 0 0  0.3799145299137108 0 0  0.3829059829051727 0 0  0.3858974358966347 0 0  0.3888888888880954 0 0  0.3918803418795516 0 0  0.3948717948710098 0 0  0.3978632478624717 0 0  0.4008547008539337 0 0  0.4038461538453956 0 0  0.4068376068368576 0 0  0.4098290598283196 0 0  0.4128205128197816 0 0  0.4158119658112431 0 0  0.4188034188026991 0 0  0.4217948717941565 0 0  0.4247863247856185 0 0  0.4277777777770805 0 0  0.4307692307685425 0 0  0.4337606837600044 0 0  0.4367521367514663 0 0  0.4397435897429283 0 0  0.4427350427343902 0 0  0.4457264957258523 0 0  0.4487179487173142 0 0  0.4517094017087763 0 0  0.4547008547002366 0 0  0.4576923076916926 0 0  0.4606837606831512 0 0  0.4636752136746133 0 0  0.4666666666660752 0 0  0.4696581196575372 0 0  0.4726495726489991 0 0  0.475641025640461 0 0  0.4786324786319231 0 0  0.4816239316233843 0 0  0.4846153846148403 0 0  0.4876068376062981 0 0  0.4905982905977601 0 0  0.493589743589222 0 0  0.4965811965806841 0 0  0.4995726495721421 0 0  0.5025641025635983 0 0  0.5055555555550543 0 0  0.5085470085465102 0 0  0.5115384615379662 0 0  0.5145299145294223 0 0  0.5175213675208784 0 0  0.5205128205123384 0 0  0.5235042735038061 0 0  0.5264957264952741 0 0  0.529487179486742 0 0  0.5324786324782019 0 0  0.5354700854696579 0 0  0.538461538461114 0 0  0.54145299145257 0 0  0.544444444444026 0 0  0.5474358974354843 0 0  0.5504273504269522 0 0  0.5534188034184201 0 0  0.5564102564098879 0 0  0.5594017094013496 0 0  0.5623931623928056 0 0  0.5653846153842615 0 0  0.5683760683757176 0 0  0.5713675213671737 0 0  0.5743589743586304 0 0  0.5773504273500981 0 0  0.5803418803415661 0 0  0.5833333333330341 0 0  0.5863247863244972 0 0  0.5893162393159533 0 0  0.5923076923074093 0 0  0.5952991452988653 0 0  0.5982905982903213 0 0  0.6012820512817775 0 0  0.6042735042732442 0 0  0.6072649572647121 0 0  0.6102564102561799 0 0  0.6132478632476449 0 0  0.6162393162391009 0 0  0.619230769230557 0 0  0.6222222222220131 0 0  0.625213675213469 0 0  0.6282051282049251 0 0  0.6311965811963901 0 0  0.6341880341878581 0 0  0.637179487179326 0 0  0.6401709401707926 0 0  0.6431623931622487 0 0  0.6461538461537046 0 0  0.6491452991451606 0 0  0.6521367521366167 0 0  0.6551282051280728 0 0  0.6581196581195362 0 0  0.6611111111110041 0 0  0.6641025641024719 0 0  0.6670940170939399 0 0  0.6700854700853962 0 0  0.6730769230768523 0 0  0.6760683760683084 0 0  0.6790598290597644 0 0  0.6820512820512205 0 0  0.6850427350426822 0 0  0.6880341880341501 0 0  0.691025641025618 0 0  0.6940170940170859 0 0  0.697008547008544 0 0  0.7 0.002976190476184849 0  0.7 0.005952380952369731 0  0.7 0.008928571428554169 0  0.7 0.0119047619047381 0  0.7 0.01488095238092216 0  0.7 0.01785714285710736 0  0.7 0.02083333333329328 0  0.7 0.02380952380947921 0  0.7 0.02678571428566513 0  0.7 0.02976190476185089 0  0.7 0.03273809523803475 0  0.7 0.03571428571421671 0  0.7 0.0386904761903985 0  0.7 0.04166666666658028 0  0.7 0.04464285714276207 0  0.7 0.04761904761894387 0  0.7 0.05059523809512566 0  0.7 0.05357142857130745 0  0.7 0.05654761904748924 0  0.7 0.05952380952367103 0  0.7 0.06249999999985282 0  0.7 0.06547619047603462 0  0.7 0.06845238095221641 0  0.7 0.0714285714283982 0  0.7 0.07440476190457998 0  0.7 0.07738095238076177 0  0.7 0.08035714285694356 0  0.7 0.08333333333312536 0  0.7 0.08630952380930715 0  0.7 0.08928571428548893 0  0.7 0.09226190476167072 0  0.7 0.09523809523785251 0  0.7 0.0982142857140343 0  0.7 0.1011904761902161 0  0.7 0.1041666666663979 0  0.7 0.1071428571425797 0  0.7 0.1101190476187615 0  0.7 0.1130952380949433 0  0.7 0.1160714285711251 0  0.7 0.1190476190473068 0  0.7 0.1220238095234886 0  0.7 0.1249999999996731 0  0.7 0.1279761904758688 0  0.7 0.1309523809520671 0  0.7 0.1339285714282654 0  0.7 0.1369047619044637 0  0.7 0.1398809523806621 0  0.7 0.1428571428568604 0  0.7 0.1458333333330587 0  0.7 0.148809523809257 0  0.7 0.1517857142854553 0  0.7 0.1547619047616537 0  0.7 0.157738095237852 0  0.7 0.1607142857140503 0  0.7 0.1636904761902486 0  0.7 0.1666666666664469 0  0.7 0.1696428571426453 0  0.7 0.1726190476188436 0  0.7 0.1755952380950419 0  0.7 0.1785714285712403 0  0.7 0.1815476190474386 0  0.7 0.1845238095236369 0  0.7 0.1874999999998352 0  0.7 0.1904761904760336 0  0.7 0.1934523809522318 0  0.7 0.1964285714284301 0  0.7 0.1994047619046285 0  0.7 0.2023809523808268 0  0.7 0.2053571428570251 0  0.7 0.2083333333332235 0  0.7 0.2113095238094218 0  0.7 0.2142857142856201 0  0.7 0.2172619047618184 0  0.7 0.2202380952380167 0  0.7 0.2232142857142151 0  0.7 0.2261904761904134 0  0.7 0.2291666666666117 0  0.7 0.23214285714281 0  0.7 0.2351190476190084 0  0.7 0.2380952380952067 0  0.7 0.241071428571405 0  0.7 0.2440476190476034 0  0.7 0.2470238095238017 0  0.6970085470085443 0.25 0  0.6940170940170907 0.25 0  0.6910256410256468 0.25 0  0.6880341880342071 0.25 0  0.6850427350427751 0.25 0  0.682051282051337 0.25 0  0.6790598290598933 0.25 0  0.6760683760684413 0.25 0  0.6730769230769856 0.25 0  0.6700854700855299 0.25 0  0.6670940170940746 0.25 0  0.6641025641026308 0.25 0  0.6611111111111894 0.25 0  0.6581196581197574 0.25 0  0.655128205128321 0.25 0  0.6521367521368772 0.25 0  0.6491452991454268 0.25 0  0.6461538461539712 0.25 0  0.6431623931625156 0.25 0  0.6401709401710598 0.25 0  0.6371794871796147 0.25 0  0.6341880341881716 0.25 0  0.6311965811967397 0.25 0  0.6282051282053049 0.25 0  0.6252136752138612 0.25 0  0.6222222222224125 0.25 0  0.6192307692309569 0.25 0  0.6162393162395011 0.25 0  0.6132478632480455 0.25 0  0.6102564102565987 0.25 0  0.6072649572651548 0.25 0  0.604273504273722 0.25 0  0.601282051282289 0.25 0  0.5982905982908451 0.25 0  0.5952991452993981 0.25 0  0.5923076923079424 0.25 0  0.5893162393164868 0.25 0  0.5863247863250312 0.25 0  0.5833333333335826 0.25 0  0.5803418803421388 0.25 0  0.5773504273507043 0.25 0  0.5743589743592723 0.25 0  0.5713675213678291 0.25 0  0.5683760683763838 0.25 0  0.5653846153849281 0.25 0  0.5623931623934725 0.25 0  0.5594017094020167 0.25 0  0.5564102564105666 0.25 0  0.5534188034191229 0.25 0  0.5504273504276866 0.25 0  0.5474358974362546 0.25 0  0.5444444444448131 0.25 0  0.5414529914533692 0.25 0  0.5384615384619138 0.25 0  0.535470085470458 0.25 0  0.5324786324790024 0.25 0  0.5294871794875506 0.25 0  0.5264957264961068 0.25 0  0.5235042735046689 0.25 0  0.520512820513237 0.25 0  0.5175213675217971 0.25 0  0.5145299145303532 0.25 0  0.5115384615388994 0.25 0  0.5085470085474437 0.25 0  0.5055555555559881 0.25 0  0.5025641025645347 0.25 0  0.4995726495730908 0.25 0  0.4965811965816491 0.25 0  0.4935897435902112 0.25 0  0.490598290598767 0.25 0  0.4876068376073173 0.25 0  0.4846153846158634 0.25 0  0.481623931624407
[...]
<PointData  Scalars="concentration"> 
<DataArray  type="Float64"  Name="concentration"  format="ascii">0.0000000000000000e+00  1.0000000000000018e+00  1.0000000000000018e+00  0.0000000000000000e+00  1.4817725075322375e-02  -1.9150466688944632e-02  -1.0023824235158921e-02  -4.0296082630040538e-02  9.0115193549857331e-01  1.0119432580841921e+00  9.8299394822052522e-01  9.3128834847752617e-01  1.0680728584420451e+00  8.6947500380828857e-01  1.0705021382679831e+00  1.0046137707026299e+00  1.0199279874101150e+00  9.6270063227550917e-01  9.5031658933248753e-01  1.0645725467900500e+00  9.1407982643548114e-01  1.1570078431986246e+00  9.8812308840022522e-01  1.0312164032379492e+00  1.0253403229642410e+00  1.0549466288664808e+00  9.4870927086283441e-01  1.0188153997176157e+00  1.0072916107452285e+00  1.0654868004066345e+00  1.0196665722588940e+00  9.7569610720529520e-01  9.7077548352425558e-01  1.0345069030621130e+00  1.0086053581754568e+00  9.5097700127830775e-01  1.0255243718951446e+00  1.0022098784912739e+00  9.6257545674684852e-01  1.1175030620538240e+00  9.5919374547608405e-01  1.0121537566607011e+00  9.7506234822526405e-01  1.0128179350902033e+00  1.0227405457884289e+00  1.0396004113998565e+00  9.7511472868360027e-01  1.0574346718751482e+00  1.0539697614261370e+00  9.9325297585006633e-01  9.4625122519858984e-01  9.6465543984348412e-01  1.1230658818106494e+00  1.0634495263446559e+00  9.9601844768176939e-01  9.9657886090535386e-01  1.0018145408091159e+00  9.9481757148312300e-01  1.0008773810697991e+00  1.0028328780712650e+00  9.9245663207179691e-01  1.0139480627736437e+00  1.0295342121620228e+00  1.0033990169950255e+00  9.6205283860152457e-01  9.9623206271041043e-01  9.9846122054077002e-01  9.8996309764559864e-01  9.9587285448158691e-01  1.0086248034773058e+00  9.7631997102657797e-01  1.0139985781613792e+00  1.0003271714961666e+00  1.0016728694410175e+00  9.9826272833737328e-01  1.0001798080416922e+00  9.9999190201584476e-01  1.0000444851423258e+00  1.0000100459489725e+00  1.0000015130161293e+00  1.0000002770387755e+00  9.9999997969267018e-01  9.9999989782772392e-01  9.9999999271377615e-01  9.9999998924344258e-01  9.9999999813860430e-01  1.0000000018443058e+00  1.0000000003069665e+00  1.0000000000398264e+00  1.0000000000178666e+00  1.0000000000033771e+00  9.9999999999944411e-01  1.0000000000006233e+00  9.9999999999999811e-01  1.0000000000000064e+00  1.0000000000000007e+00  1.0000000000000011e+00  1.0000000000000013e+00  1.0000000000000007e+00  1.0000000000000009e+00  1.0000000000000011e+00  1.0000000000000013e+00  1.0000000000000018e+00  1.0000000000000016e+00  1.0000000000000022e+00  1.0000000000000007e+00  1.0000000000000011e+00  1.0000000000000013e+00  1.0000000000000018e+00  1.0000000000000027e+00  9.9999999999999967e-01  1.0000000000000013e+00  1.0000000000000020e+00  1.0000000000000007e+00  1.0000000000000013e+00  1.0000000000000022e+00  1.0000000000000000e+00  1.0000000000000000e+00  1.0000000000000020e+00  1.0000000000000018e+00  1.0000000000000016e+00  1.0000000000000002e+00  1.0000000000000020e+00  1.0000000000000018e+00  1.0000000000000013e+00  1.0000000000000016e+00  1.0000000000000004e+00  1.0000000000000011e+00  1.0000000000000000e+00  1.0000000000000016e+00  1.0000000000000009e+00  1.0000000000000022e+00  9.9999999999999900e-01  1.0000000000000024e+00  1.0000000000000024e+00  1.0000000000000018e+00  1.0000000000000018e+00  1.0000000000000016e+00  1.0000000000000016e+00  1.0000000000000011e+00  1.0000000000000009e+00  1.0000000000000011e+00  1.0000000000000016e+00  1.0000000000000018e+00  1.0000000000000011e+00  1.0000000000000011e+00  1.0000000000000009e+00  1.0000000000000020e+00  1.0000000000000013e+00  1.0000000000000009e+00  1.0000000000000009e+00  1.0000000000000020e+00  1.0000000000000016e+00  1.0000000000000004e+00  1.0000000000000007e+00  1.0000000000000013e+00  9.9999999999999944e-01  1.0000000000000011e+00  1.0000000000000022e+00  1.0000000000000016e+00  1.0000000000000018e+00  1.0000000000000022e+00  1.0000000000000011e+00  1.0000000000000009e+00  1.0000000000000009e+00  1.0000000000000004e+00  1.0000000000000024e+00  1.0000000000000011e+00  1.0000000000000020e+00  1.0000000000000009e+00  1.0000000000000007e+00  1.0000000000000002e+00  1.0000000000000018e+00  1.0000000000000018e+00  1.0000000000000009e+00  1.0000000000000016e+00  1.0000000000000022e+00  9.9999999999999978e-01  1.0000000000000020e+00  1.0000000000000016e+00  1.0000000000000009e+00  1.0000000000000013e+00  1.0000000000000018e+00  1.0000000000000009e+00  1.0000000000000011e+00  1.0000000000000022e+00  1.0000000000000000e+00  1.0000000000000024e+00  1.0000000000000013e+00  1.0000000000000020e+00  1.0000000000000002e+00  1.0000000000000011e+00  1.0000000000000013e+00  1.0000000000000016e+00  1.0000000000000027e+00  1.0000000000000002e+00  1.0000000000000016e+00  1.0000000000000016e+00  1.0000000000000004e+00  1.0000000000000020e+00  9.9999999999999933e-01  1.0000000000000007e+00  1.0000000000000031e+00  1.0000000000000022e+00  1.0000000000000016e+00  1.0000000000000009e+00  1.0000000000000011e+00  1.0000000000000020e+00  1.0000000000000018e+00  1.0000000000000013e+00  1.0000000000000013e+00  1.0000000000000004e+00  1.0000000000000011e+00  1.0000000000000011e+00  1.0000000000000016e+00  1.0000000000000009e+00  1.0000000000000018e+00  1.0000000000000022e+00  9.9999999999999856e-01  1.0000000000000007e+00  1.0000000000000009e+00  1.0000000000000020e+00  1.0000000000000002e+00  1.0000000000000016e+00  1.0000000000000011e+00  1.0000000000000013e+00  1.0000000000000016e+00  1.0000000000000013e+00  1.0000000000000011e+00  1.0000000000000011e+00  1.0000000000000022e+00  1.0000000000000009e+00  1.0000000000000016e+00  1.0000000000000018e+00  1.0000000000000016e+00  1.0000000000000007e+00  1.0000000000000011e+00  9.9999999999999989e-01  1.0000000000000009e+00  1.0000000000000009e+00  1.0000000000000002e+00  1.0000000000000004e+00  1.0000000000000004e+00  1.0000000000000004e+00  1.0000000000000007e+00  1.0000000000000007e+00  1.0000000000000004e+00  1.0000000000000004e+00  1.0000000000000007e+00  1.0000000000000002e+00  1.0000000000000013e+00  1.0000000000000002e+00  1.0000000000000009e+00  1.0000000000000002e+00  1.0000000000000004e+00  1.0000000000000009e+00  1.0000000000000004e+00  1.0000000000000009e+00  1.0000000000000002e+00  1.0000000000000007e+00  9.9999999999999944e-01  1.0000000000000011e+00  1.0000000000000002e+00  1.0000000000000004e+00  1.0000000000000004e+00  1.0000000000000009e+00  1.0000000000000002e+00  1.0000000000000007e+00  1.0000000000000002e+00  1.0000000000000004e+00  1.0000000000000007e+00  1.0000000000000004e+00  1.0000000000000018e+00  1.0000000000000000e+00  1.0000000000000009e+00  1.0000000000000002e+00  1.0000000000000007e+00  1.0000000000000007e+00  1.0000000000000004e+00  1.0000000000000007e+00  1.0000000000000004e+00  1.0000000000000000e+00  1.0000000000000007e+00  1.0000000000000007e+00  1.0000000000000004e+00  1.0000000000000004e+00  1.0000000000000007e+00  1.0000000000000002e+00  1.0000000000000004e+00  1.0000000000000004e+00  1.0000000000000002e+00  1.0000000000000009e+00  9.9999999999999989e-01  1.0000000000000009e+00  1.0000000000000000e+00  1.0000000000000011e+00  1.0000000000000004e+00  1.0000000000000011e+00  1.0000000000000000e+00  1.0000000000000009e+00  1.0000000000000002e+00  1.0000000000000004e+00  1.0000000000000002e+00  1.0000000000000009e+00  1.0000000000000002e+00  1.0000000000000004e+00  1.0000000000000004e+00  1.0000000000000007e+00  1.0000000000000004e+00  1.0000000000000007e+00  1.0000000000000004e+00  1.0000000000000007e+00  1.0000000000000009e+00  1.0000000000000007e+00  1.0000000000000004e+00  1.0000000000000007e+00  1.0000000000000002e+00  1.0000000000000011e+00  1.0000000000000009e+00  1.0000000000000000e+00  1.0000000000000000e+00  1.0000000000000016e+00  1.0000000000000009e+00  1.0000000000000022e+00  1.0000000000000002e+00  1.0000000000000013e+00  1.0000000000000016e+00  1.0000000000000009e+00  1.0000000000000009e+00  1.0000000000000004e+00  1.0000000000000009e+00  1.0000000000000016e+00  1.0000000000000011e+00  1.0000000000000011e+00  1.0000000000000016e+00  1.0000000000000016e+00  1.0000000000000013e+00  1.0000000000000018e+00  1.0000000000000000e+00  1.0000000000000007e+00  1.0000000000000020e+00  1.0000000000000013e+00  9.9999999999999944e-01  1.0000000000000013e+00  1.0000000000000020e+00  1.0000000000000018e+00  1.0000000000000020e+00  1.0000000000000013e+00  1.0000000000000007e+00  1.0000000000000004e+00  1.0000000000000016e+00  1.0000000000000018e+00  1.0000000000000020e+00  1.0000000000000011e+00  1.0000000000000013e+00  1.0000000000000000e+00  1.0000000000000020e+00  1.0000000000000020e+00  1.0000000000000009e+00  1.0000000000000018e+00  1.0000000000000020e+00  1.0000000000000013e+00  1.0000000000000011e+00  1.0000000000000024e+00  1.0000000000000007e+00  1.0000000000000016e+00  1.0000000000000013e+00  9.9999999999999978e-01  1.0000000000000022e+00  1.0000000000000009e+00  1.0000000000000011e+00  1.0000000000000013e+00  1.0000000000000027e+00  1.0000000000000013e+00  1.0000000000000020e+00  1.0000000000000011e+00  1.0000000000000011e+00  1.0000000000000007e+00  1.0000000000000013e+00  1.0000000000000018e+00  1.0000000000000018e+00  1.0000000000000020e+00  1.0000000000000013e+00  1.0000000000000027e+00  1.0000000000000016e+00  1.0000000000000016e+00  1.0000000000000009e+00  1.0000000000000020e+00  1.0000000000000004e+00  1.0000000000000016e+00  1.0000000000000013e+00  1.0000000000000004e+00  1.0000000000000016e+00  1.0000000000000007e+00  1.0000000000000013e+00  1.0000000000000016e+00  1.0000000000000011e+00  1.0000000000000016e+00  1.0000000000000020e+00  1.0000000000000011e+00  1.0000000000000013e+00  1.0000000000000013e+00  1.0000000000000016e+00  1.0000000000000004e+00  1.0000000000000018e+00  1.0000000000000018e+00  1.0000000000000024e+00  9.9999999999999933e-01  1.0000000000000016e+00  1.0000000000000018e+00  1.0000000000000022e+00  1.0000000000000020e+00  1.0000000000000011e+00  1.0000000000000013e+00  1.0000000000000009e+00  1.0000000000000020e+00  1.0000000000000013e+00  1.0000000000000009e+00  1.0000000000000011e+00  1.0000000000000029e+00  1.0000000000000011e+00  1.0000000000000004e+00  1.0000000000000020e+00  1.0000000000000013e+00  1.0000000000000013e+00  1.0000000000000022e+00  1.0000000000000009e+00  1.0000000000000018e+00  1.0000000000000013e+00  1.0000000000000018e+00  1.0000000000000011e+00  1.0000000000000016e+00  1.0000000000000024e+00  1.0000000000000002e+00  1.0000000000000018e+00  1.0000000000000020e+00  1.0000000000000009e+00  1.0000000000000020e+00  1.0000000000000002e+00  1.0000000000000009e+00  1.0000000000000029e+00  1.0000000000000002e+00  1.0000000000000027e+00  1.0000000000000016e+00  9.9999999999999978e-01  1.0000000000000004e+00  1.0000000000000018e+00  1.0000000000000011e+00  1.0000000000000011e+00  1.0000000000000016e+00  1.0000000000000018e+00  1.0000000000000020e+00  1.0000000000000018e+00  1.0000000000000027e+00  1.0000000000000020e+00  1.0000000000000042e+00  1.0000000000000067e+00  1.0000000000000404e+00  1.0000000000000520e+00  1.0000000000002562e+00  1.0000000000025417e+00  1.0000000000063178e+00  1.0000000000322007e+00  1.0000000000003118e+00  9.9999999997650346e-01  1.0000000006509229e+00  1.0000000015390309e+00  1.0000000056618181e+00  1.0000000063816015e+00  1.0000000084366070e+00  1.0000001469054829e+00  1.0000003359072485e+00  1.0000019385255932e+00  1.0000013797709135e+00  1.0000061331683594e+00  1.0000205067680374e+00  1.0000907651394271e+00  1.0003337268258459e+00  1.0010434851871783e+00  1.0016560876440630e+00  1.0058197580971389e+00  1.0194875651311319e+00  1.0430298522389285e+00  1.0212536148396647e+00  1.0041495028803318e+00  1.0665263433348591e+00  9.9193219320994497e-01  9.9888573269769731e-01  1.0841163305331196e+00  1.0194762228160357e+00  1.0552329834397933e+00  8.7869709658854456e-01  1.0770834328570487e+00  1.0436905897578428e+00  1.0453090860449401e+00  1.0344242786111628e+00  9.7338815921927602e-01  9.6838079192014570e-01  1.0385350502189561e+00  9.7217339289224458e-01  9.9892819369457886e-01  9.2889008037801457e-01  1.0383858515636801e+00  1.0221158167926006e+00  9.5123371752687036e-01  1.0841262223459494e+00  9.7263403900283940e-01  9.6108667836460615e-01  1.0256267046374326e+00  1.0000464826218116e+00  9.6222755464092580e-01  1.0336254015584032e+00  9.7815695129653979e-01  1.0016927942417482e+00  9.9610455848949986e-01  9.9753604363926052e-01  1.0237951708878756e+00  1.1199621727877167e+00  1.0001632202404653e+00  8.3536160388067415e-01  1.0958322660255198e+00  9.3931281182592763e-01  1.0169642349226216e+00  1.0380858650702471e+00  9.7300786835132291e-01  9.8453400255908363e-01  9.8627016895909370e-01  1.0861159509906302e+00  9.9549750294301853e-01  1.0149379379417380e+00  9.6613497153532235e-01  1.0489580981837514e+00  9.6955695725681446e-01  1.0250762238933990e+00  1.0255235993338636e+00  1.1675343922293557e+00  8.5574267989858022e-01  1.0094863425239360e+00  1.0084880803780827e+00  9.3107142135258147e-01  1.0555911240335591e+00  1.0021056383550848e+00  1.1045093192784043e+00  8.4556289339235557e-01  1.0711868992205715e+00  9.3032543711911186e-01  9.7739203914286976e-01  1.0138695509101987e+00  8.9914196751801667e-01  -4.0300678974325488e-02  -1.0350113969539996e-02  -1.9293296768106056e-02  1.5009765374140213e-02  0.0000000000000000e+00  0.0000000000000000e+00  0.0000000000000000e+00  0.0000000000000000e+00  0.0000000000000000e+00  0.0000000000000000e+00  0.0000000000000000e+00  0.0000000000000000e+00  0.0000000000000000e+00  0.0000000000000000e+00  0.0000000000000000e+00  0.0000000000000000e+00  0.0000000000000000e+00  0.0000000000000000e+00  0.0000000000000000e+00  0.0000000000000000e+00  0.0000000000000000e+00  0.0000000000000000e+00  0.0000000000000000e+00  0.0000000000000000e+00  0.0000000000000000e+00  0.0000000000000000e+00  0.0000000000000000e+00  0.0000000000000000e+00  0.0000000000000000e+00  0.0000000000000000e+00  0.0000000000000000e+00  0.0000000000000000e+00  0.0000000000000000e+00  0.0000000000000000e+00  0.0000000000000000e+00  0.0000000000000000e+00  0.0000000000000000e+00  0.0000000000000000e+00  0.0000000000000000e+00  0.0000000000000000e+00  0.0000000000000000e+00  0.0000000000000000e+00  0.0000000000000000e+00  0.0000000000000000e+00  0.0000000000000000e+00  0.0000000000000000e+00  0.0000000000000000e+00  0.0000000000000000e+00  0.0000000000000000e+00  0.0000000000000000e+00  0.0000000000000000e+00  0.0000000000000000e+00  0.0000000000000000e+00  0.0000000000000000e+00  0.0000000000000000e+00  0.0000000000000000e+00  0.0000000000000000e+00  0.0000000000000000e+00  0.0000000000000000e+00  0.0000000000000000e+00  0.0000000000000000e+00  0.0000000000000000e+00  0.0000000000000000e+00  0.0000000000000000e+00  0.0000000000000000e+00  0.0000000000000000e+00  0.0000000000000000e+00  0.0000000000000000e+00  0.0000000000000000e+00  0.0000000000000000e+00  0.0000000000000000e+00  0.0000000000000000e+00  0.0000000000000000e+00  0.0000000000000000e+00  0.0000000000000000e+00  0.0000000000000000e+00  0.0000000000000000e+00  0.0000000000000000e+00  0.0000000000000000e+00  0.0000000000000000e+00  0.0000000000000000e+00  0.0000000000000000e+00  0.0000000000000000e+00  0.0000000000000000e+00  0.0000000000000000e+00  0.0000000000000000e+00  0.0000000000000000e+00  0.0000000000000000e+00  0.0000000000000000e+00  0.0000000000000000e+00  0.0000000000000000e+00  0.0000000000000000e+00  0.0000000000000000e+00  0.0000000000000000e+00  0.0000000000000000e+00  0.0000000000000000e+00  0.0000000000000000e+00  0.0000000000000000e+00  0.0000000000000000e+00  0.0000000000000000e+00  0.0000000000000000e+00  0.0000000000000000e+00  0.0000000000000000e+00  0.0000000000000000e+00  0.0000000000000000e+00  0.0000000000000000e+00  0.0000000000000000e+00  0.0000000000000000e+00  0.0000000000000000e+00  0.0000000000000000e+00  0.0000000000000000e+00  0.0000000000000000e+00  0.0000000000000000e+00  0.0000000000000000e+00  0.0000000000000000e+00  0.0000000000000000e+00  0.0000000000000000e+00  0.0000000000000000e+00  0.0000000000000000e+00  0.0000000000000000e+00  0.0000000000000000e+00  0.0000000000000000e+00  0.0000000000000000e+00  0.0000000000000000e+00  0.0000000000000000e+00  0.0000000000000000e+00  0.0000000000000000e+00  0.0000000000000000e+00  0.0000000000000000e+00  0.0000000000000000e+00  0.0000000000000000e+00  0.0000000000000000e+00  0.0000000000000000e+00  0.0000000000000000e+00  0.0000000000000000e+00  0.0000000000000000e+00  0.0000000000000000e+00  0.0000000000000000e+00  0.0000000000000000e+00  0.0000000000000000e+00  0.0000000000000000e+00  0.0000000000000000e+00  0.0000000000000000e+00  0.0000000000000000e+00  0.0000000000000000e+00  0.0000000000000000e+00  0.0000000000000000e+00  0.0000000000000000e+00  0.0000000000000000e+00  0.0000000000000000e+00  0.0000000000000000e+00  0.0000000000000000e+00  0.0000000000000000e+00  0.0000000000000000e+00  0.0000000000000000e+00  0.0000000000000000e+00  0.0000000000000000e+00  0.0000000000000000e+00  0.0000000000000000e+00  0.0000000000000000e+00  0.0000000000000000e+00  0.0000000000000000e+00  0.0000000000000000e+00  0.0000000000000000e+00  0.0000000000000000e+00  0.0000000000000000e+00  0.0000000000000000e+00  0.0000000000000000e+00  0.0000000000000000e+00  0.0000000000000000e+00  0.0000000000000000e+00  0.0000000000000000e+00  0.0000000000000000e+00  0.0000000000000000e+00  0.0000000000000000e+00  0.0000000000000000e+00  0.0000000000000000e+00  0.0000000000000000e+00  0.0000000000000000e+00  0.0000000000000000e+00  0.0000000000000000e+00  0.0000000000000000e+00  1.0007999758704957e+00  1.0000000000000016e+00  1.0000000000000333e+00  1.0000000000000007e+00  -5.1097277056834020e-02  9.6065859674777099e-01  1.2038616565477895e+00  1.0000000000000018e+00  1.0000000000000016e+00  1.0000000000000031e+00  1.0000000000000029e+00  1.0145155754895097e+00  9.9030358606781888e-01  1.0000000000000009e+00  1.0000000000000029e+00  1.1781271128078299e-01  -4.8176221356491800e-02  1.0000000000000018e+00  8.8898899370609730e-01  8.4987424988162225e-02  1.0000000000000009e+00  1.0000000000000016e+00  1.0000000000000020e+00  1.0000000000000029e+00  7.9519503350640885e-01  -2.7154217095362292e-02  9.9999999999766576e-01  1.0000000000000016e+00  1.0000000000000022e+00  1.0000000000000020e+00  1.0000000000000031e+00  1.0000000000000022e+00  -4.5202082051096692e-03  -3.1869384279739316e-02  2.7320842016642130e-02  9.9999957593561606e-01  9.7911445872383229e-01  1.0000000000000053e+00  1.0000000000000029e+00  1.0000000000000024e+00  1.0000000000000022e+00  1.0000000000000029e+00  -2.8160642584127881e-02  1.0000000000000016e+00  9.9632711323031531e-01  -1.5350324836835568e-02  1.0000000000000007e+00  5.0445178253135554e-02  3.1518263369852924e-02  1.0000000000000018e+00  9.9997825917165173e-01  9.9739559291604352e-01  1.0000000000000000e+00  1.0000000000000020e+00  1.0000000000000011e+00  -7.9899775302244264e-02  9.9601674171232091e-01  1.0024993897004719e+00  1.0000000000000033e+00  9.9999999193377442e-01  1.0000000000083062e+00  1.0000000000000031e+00  1.0000000000000020e+00  1.0000000000000016e+00  9.8240505384081789e-01  1.0053472025045755e+00  2.8764206027737235e-03  2.3171624951758708e-02  1.0000000000000009e+00  1.0000000000000011e+00  1.0000000000000053e+00  1.0000000000000029e+00  1.0000000000000007e+00  1.0000000000000022e+00  1.0000000000000022e+00  1.0000000000000029e+00  1.0000008216078906e+00  1.7178478085211168e-01  -5.2258175102228039e-03  9.8309970715269146e-01  -3.8964774464876803e-03  8.8185315578099899e-01  1.0000000000000027e+00  1.0000000000000018e+00  1.0000000000000022e+00  1.0000000000000033e+00  1.0000000000000016e+00  1.0000000000000031e+00  1.0000000000000013e+00  1.0000000000000016e+00  1.0000000000000018e+00  1.0000000000000033e+00  9.9999999977292386e-01  1.0000000000000018e+00  1.0000000000000033e+00  -7.5538924472835750e-02  -2.1666162943814196e-01  1.00000