<?xml version="1.0"?>
<VTKFile type="UnstructuredGrid"  version="0.1"  >
<UnstructuredGrid>
<Piece  NumberOfPoints="29979" NumberOfCells="59225">
<Points>
<DataArray  type="Float64"  NumberOfComponents="3"  format="ascii">0 0 0  0.7 0 0  0.7 0.25 0  0 0.25 0  0.002991452991447148 0 0  0.005982905982894296 0 0  0.008974358974341432 0 0  0.0119658119657887 0 0  0.0149572649572362 0 0  0.01794871794868352 0 0  0.02094017094013065 0 0  0.02393162393157728 0 0  0.02692307692302367 0 0  0.02991452991446975 0 0  0.03290598290591576 0 0  0.03589743589736141 0 0  0.03888888888880721 0 0  0.04188034188025361 0 0  0.04487179487170056 0 0  0.04786324786314844 0 0  0.05085470085459671 0 0  0.05384615384604534 0 0  0.05683760683749394 0 0  0.05982905982894257 0 0  0.06282051282039053 0 0  0.06581196581183844 0 0  0.06880341880328707 0 0  0.07179487179473568 0 0  0.0747863247861843 0 0  0.07777777777763231 0 0  0.08076923076907945 0 0  0.08376068376052657 0 0  0.08675213675197373 0 0  0.08974358974341974 0 0  0.09273504273486541 0 0  0.0957264957263097 0 0  0.09871794871775386 0 0  0.101709401709198 0 0  0.1047008547006426 0 0  0.1076923076920882 0 0  0.1106837606835339 0 0  0.1136752136749795 0 0  0.1166666666664243 0 0  0.1196581196578685 0 0  0.1226495726493126 0 0  0.1256410256407568 0 0  0.1286324786322038 0 0  0.1316239316236509 0 0  0.1346153846150981 0 0  0.1376068376065443 0 0  0.1405982905979885 0 0  0.1435897435894326 0 0  0.1465811965808768 0 0  0.149572649572321 0 0  0.1525641025637651 0 0  0.1555555555552093 0 0  0.1585470085466535 0 0  0.1615384615380976 0 0  0.1645299145295418 0 0  0.167521367520986 0 0  0.1705128205124302 0 0  0.1735042735038743 0 0  0.1764957264953185 0 0  0.1794871794867627 0 0  0.1824786324782068 0 0  0.185470085469651 0 0  0.1884615384610951 0 0  0.1914529914525394 0 0  0.1944444444439835 0 0  0.1974358974354277 0 0  0.2004273504268719 0 0  0.203418803418316 0 0  0.2064102564097602 0 0  0.2094017094012044 0 0  0.2123931623926485 0 0  0.2153846153840948 0 0  0.2183760683755419 0 0  0.221367521366989 0 0  0.2243589743584361 0 0  0.2273504273498802 0 0  0.2303418803413244 0 0  0.2333333333327685 0 0  0.2363247863242127 0 0  0.2393162393156569 0 0  0.2423076923071011 0 0  0.2452991452985452 0 0  0.2482905982899894 0 0  0.2512820512814336 0 0  0.2542735042728778 0 0  0.257264957264322 0 0  0.2602564102557661 0 0  0.2632478632472102 0 0  0.2662393162386544 0 0  0.2692307692300986 0 0  0.2722222222215427 0 0  0.275213675212987 0 0  0.2782051282044311 0 0  0.2811965811958753 0 0  0.2841880341873195 0 0  0.2871794871787636 0 0  0.2901709401702077 0 0  0.2931623931616519 0 0  0.2961538461530961 0 0  0.2991452991445402 0 0  0.3021367521359845 0 0  0.3051282051274286 0 0  0.3081196581188728 0 0  0.311111111110317 0 0  0.3141025641017611 0 0  0.3170940170932053 0 0  0.3200854700846494 0 0  0.3230769230760936 0 0  0.3260683760675378 0 0  0.329059829058982 0 0  0.3320512820504261 0 0  0.3350427350418703 0 0  0.3380341880333145 0 0  0.3410256410247586 0 0  0.3440170940162028 0 0  0.3470085470076519 0 0  0.349999999999102 0 0  0.3529914529905639 0 0  0.3559829059820259 0 0  0.3589743589734879 0 0  0.3619658119649478 0 0  0.3649572649564038 0 0  0.3679487179478629 0 0  0.3709401709393249 0 0  0.3739316239307868 0 0  0.3769230769222488 0 0  0.3799145299137108 0 0  0.3829059829051727 0 0  0.3858974358966347 0 0  0.3888888888880954 0 0  0.3918803418795516 0 0  0.3948717948710098 0 0  0.3978632478624717 0 0  0.4008547008539337 0 0  0.4038461538453956 0 0  0.4068376068368576 0 0  0.4098290598283196 0 0  0.4128205128197816 0 0  0.4158119658112431 0 0  0.4188034188026991 0 0  0.4217948717941565 0 0  0.4247863247856185 0 0  0.4277777777770805 0 0  0.4307692307685425 0 0  0.4337606837600044 0 0  0.4367521367514663 0 0  0.4397435897429283 0 0  0.4427350427343902 0 0  0.4457264957258523 0 0  0.4487179487173142 0 0  0.4517094017087763 0 0  0.4547008547002366 0 0  0.4576923076916926 0 0  0.4606837606831512 0 0  0.4636752136746133 0 0  0.4666666666660752 0 0  0.4696581196575372 0 0  0.4726495726489991 0 0  0.475641025640461 0 0  0.4786324786319231 0 0  0.4816239316233843 0 0  0.4846153846148403 0 0  0.4876068376062981 0 0  0.4905982905977601 0 0  0.493589743589222 0 0  0.4965811965806841 0 0  0.4995726495721421 0 0  0.5025641025635983 0 0  0.5055555555550543 0 0  0.5085470085465102 0 0  0.5115384615379662 0 0  0.5145299145294223 0 0  0.5175213675208784 0 0  0.5205128205123384 0 0  0.5235042735038061 0 0  0.5264957264952741 0 0  0.529487179486742 0 0  0.5324786324782019 0 0  0.5354700854696579 0 0  0.538461538461114 0 0  0.54145299145257 0 0  0.544444444444026 0 0  0.5474358974354843 0 0  0.5504273504269522 0 0  0.5534188034184201 0 0  0.5564102564098879 0 0  0.5594017094013496 0 0  0.5623931623928056 0 0  0.5653846153842615 0 0  0.5683760683757176 0 0  0.5713675213671737 0 0  0.5743589743586304 0 0  0.5773504273500981 0 0  0.5803418803415661 0 0  0.5833333333330341 0 0  0.5863247863244972 0 0  0.5893162393159533 0 0  0.5923076923074093 0 0  0.5952991452988653 0 0  0.5982905982903213 0 0  0.6012820512817775 0 0  0.6042735042732442 0 0  0.6072649572647121 0 0  0.6102564102561799 0 0  0.6132478632476449 0 0  0.6162393162391009 0 0  0.619230769230557 0 0  0.6222222222220131 0 0  0.625213675213469 0 0  0.6282051282049251 0 0  0.6311965811963901 0 0  0.6341880341878581 0 0  0.637179487179326 0 0  0.6401709401707926 0 0  0.6431623931622487 0 0  0.6461538461537046 0 0  0.6491452991451606 0 0  0.6521367521366167 0 0  0.6551282051280728 0 0  0.6581196581195362 0 0  0.6611111111110041 0 0  0.6641025641024719 0 0  0.6670940170939399 0 0  0.6700854700853962 0 0  0.6730769230768523 0 0  0.6760683760683084 0 0  0.6790598290597644 0 0  0.6820512820512205 0 0  0.6850427350426822 0 0  0.6880341880341501 0 0  0.691025641025618 0 0  0.6940170940170859 0 0  0.697008547008544 0 0  0.7 0.002976190476184849 0  0.7 0.005952380952369731 0  0.7 0.008928571428554169 0  0.7 0.0119047619047381 0  0.7 0.01488095238092216 0  0.7 0.01785714285710736 0  0.7 0.02083333333329328 0  0.7 0.02380952380947921 0  0.7 0.02678571428566513 0  0.7 0.02976190476185089 0  0.7 0.03273809523803475 0  0.7 0.03571428571421671 0  0.7 0.0386904761903985 0  0.7 0.04166666666658028 0  0.7 0.04464285714276207 0  0.7 0.04761904761894387 0  0.7 0.05059523809512566 0  0.7 0.05357142857130745 0  0.7 0.05654761904748924 0  0.7 0.05952380952367103 0  0.7 0.06249999999985282 0  0.7 0.06547619047603462 0  0.7 0.06845238095221641 0  0.7 0.0714285714283982 0  0.7 0.07440476190457998 0  0.7 0.07738095238076177 0  0.7 0.08035714285694356 0  0.7 0.08333333333312536 0  0.7 0.08630952380930715 0  0.7 0.08928571428548893 0  0.7 0.09226190476167072 0  0.7 0.09523809523785251 0  0.7 0.0982142857140343 0  0.7 0.1011904761902161 0  0.7 0.1041666666663979 0  0.7 0.1071428571425797 0  0.7 0.1101190476187615 0  0.7 0.1130952380949433 0  0.7 0.1160714285711251 0  0.7 0.1190476190473068 0  0.7 0.1220238095234886 0  0.7 0.1249999999996731 0  0.7 0.1279761904758688 0  0.7 0.1309523809520671 0  0.7 0.1339285714282654 0  0.7 0.1369047619044637 0  0.7 0.1398809523806621 0  0.7 0.1428571428568604 0  0.7 0.1458333333330587 0  0.7 0.148809523809257 0  0.7 0.1517857142854553 0  0.7 0.1547619047616537 0  0.7 0.157738095237852 0  0.7 0.1607142857140503 0  0.7 0.1636904761902486 0  0.7 0.1666666666664469 0  0.7 0.1696428571426453 0  0.7 0.1726190476188436 0  0.7 0.1755952380950419 0  0.7 0.1785714285712403 0  0.7 0.1815476190474386 0  0.7 0.1845238095236369 0  0.7 0.1874999999998352 0  0.7 0.1904761904760336 0  0.7 0.1934523809522318 0  0.7 0.1964285714284301 0  0.7 0.1994047619046285 0  0.7 0.2023809523808268 0  0.7 0.2053571428570251 0  0.7 0.2083333333332235 0  0.7 0.2113095238094218 0  0.7 0.2142857142856201 0  0.7 0.2172619047618184 0  0.7 0.2202380952380167 0  0.7 0.2232142857142151 0  0.7 0.2261904761904134 0  0.7 0.2291666666666117 0  0.7 0.23214285714281 0  0.7 0.2351190476190084 0  0.7 0.2380952380952067 0  0.7 0.241071428571405 0  0.7 0.2440476190476034 0  0.7 0.2470238095238017 0  0.6970085470085443 0.25 0  0.6940170940170907 0.25 0  0.6910256410256468 0.25 0  0.6880341880342071 0.25 0  0.6850427350427751 0.25 0  0.682051282051337 0.25 0  0.6790598290598933 0.25 0  0.6760683760684413 0.25 0  0.6730769230769856 0.25 0  0.6700854700855299 0.25 0  0.6670940170940746 0.25 0  0.6641025641026308 0.25 0  0.6611111111111894 0.25 0  0.6581196581197574 0.25 0  0.655128205128321 0.25 0  0.6521367521368772 0.25 0  0.6491452991454268 0.25 0  0.6461538461539712 0.25 0  0.6431623931625156 0.25 0  0.6401709401710598 0.25 0  0.6371794871796147 0.25 0  0.6341880341881716 0.25 0  0.6311965811967397 0.25 0  0.6282051282053049 0.25 0  0.6252136752138612 0.25 0  0.6222222222224125 0.25 0  0.6192307692309569 0.25 0  0.6162393162395011 0.25 0  0.6132478632480455 0.25 0  0.6102564102565987 0.25 0  0.6072649572651548 0.25 0  0.604273504273722 0.25 0  0.601282051282289 0.25 0  0.5982905982908451 0.25 0  0.5952991452993981 0.25 0  0.5923076923079424 0.25 0  0.5893162393164868 0.25 0  0.5863247863250312 0.25 0  0.5833333333335826 0.25 0  0.5803418803421388 0.25 0  0.5773504273507043 0.25 0  0.5743589743592723 0.25 0  0.5713675213678291 0.25 0  0.5683760683763838 0.25 0  0.5653846153849281 0.25 0  0.5623931623934725 0.25 0  0.5594017094020167 0.25 0  0.5564102564105666 0.25 0  0.5534188034191229 0.25 0  0.5504273504276866 0.25 0  0.5474358974362546 0.25 0  0.5444444444448131 0.25 0  0.5414529914533692 0.25 0  0.5384615384619138 0.25 0  0.535470085470458 0.25 0  0.5324786324790024 0.25 0  0.5294871794875506 0.25 0  0.5264957264961068 0.25 0  0.5235042735046689 0.25 0  0.520512820513237 0.25 0  0.5175213675217971 0.25 0  0.5145299145303532 0.25 0  0.5115384615388994 0.25 0  0.5085470085474437 0.25 0  0.5055555555559881 0.25 0  0.5025641025645347 0.25 0  0.4995726495730908 0.25 0  0.4965811965816491 0.25 0  0.4935897435902112 0.25 0  0.490598290598767 0.25 0  0.4876068376073173 0.25 0  0.4846153846158634 0.25 0  0.481623931624407
[...]
<PointData  Scalars="pressure"> 
<DataArray  type="Float64"  Name="pressure"  format="ascii">3.3477130992787155e+04  3.8299392578001945e+00  3.8916346801430466e+00  3.3455052945208787e+04  3.3452675067089687e+04  3.3429789232348172e+04  3.3408585270102041e+04  3.3388893233926698e+04  2.4303999677427379e+04  2.4283809448019543e+04  2.4263290964086966e+04  2.4244284008401217e+04  2.4221078366802907e+04  2.4204361077013724e+04  2.4175151506105289e+04  2.4149007491444943e+04  2.4119692890832433e+04  2.4090770497308673e+04  2.4057740712827770e+04  2.4028264294527911e+04  2.4001069665290128e+04  2.3964281508246691e+04  2.3917573287762494e+04  2.3872755358444621e+04  2.3825578026261079e+04  2.3783780911625374e+04  2.3738417410342168e+04  2.3691588502000162e+04  2.3647559481849552e+04  2.3611536814391413e+04  2.3564337130078526e+04  2.3519517283397930e+04  2.3476757189016807e+04  2.3438330002486928e+04  2.3389310924912676e+04  2.3339711315574623e+04  2.3285769326522459e+04  2.3233381174163846e+04  2.3188473828052978e+04  2.3139860493021828e+04  2.3073773335477566e+04  2.3018054949396439e+04  2.2964929091395923e+04  2.2917550261285276e+04  2.2876626078056106e+04  2.2822707965343321e+04  2.2752114278900175e+04  2.2635702502760905e+04  2.2499640038515885e+04  2.2355833029661673e+04  2.2219523876678973e+04  2.2084036010383399e+04  2.1958797955644372e+04  2.1820909467137757e+04  2.1699796810678738e+04  2.1568678069930327e+04  2.1442743404093781e+04  2.1320102445463021e+04  2.1196670140271737e+04  2.1067105083348502e+04  2.0951405247815859e+04  2.0825240765454673e+04  2.0699131304976545e+04  2.0581218923171622e+04  2.0462938169716079e+04  2.0337597034156443e+04  2.0216702707998342e+04  2.0101891449112554e+04  1.9977737999609315e+04  1.9859287216385877e+04  1.9741253491217896e+04  1.9622103833919882e+04  1.9495775767400577e+04  1.9381242195030562e+04  1.9263996816637362e+04  1.9145772764522990e+04  1.9024729757444293e+04  1.8906546860628725e+04  1.8782362540226859e+04  1.8662657915867818e+04  1.8545100208379197e+04  1.8432623597098976e+04  1.8310609958127501e+04  1.8192967942791496e+04  1.8073525222382326e+04  1.7956381305168485e+04  1.7837662918694601e+04  1.7720976435614230e+04  1.7598547051073998e+04  1.7485094773450186e+04  1.7361061323825004e+04  1.7243911212206680e+04  1.7129503689615452e+04  1.7009349189478398e+04  1.6891528546943278e+04  1.6769971521751788e+04  1.6657191158035024e+04  1.6532452804053086e+04  1.6420950746464699e+04  1.6302388994160858e+04  1.6178747325138409e+04  1.6067139973063639e+04  1.5945125204916269e+04  1.5823595399987378e+04  1.5713398590740588e+04  1.5591335588355609e+04  1.5469032214393668e+04  1.5358724415302684e+04  1.5235058983413435e+04  1.5118911129409180e+04  1.5003024733996290e+04  1.4880468086741072e+04  1.4763132208701491e+04  1.4650640251249248e+04  1.4526505890848239e+04  1.4413482239841514e+04  1.4290285147243687e+04  1.4168534554766542e+04  1.4056570026111174e+04  1.3934475371186136e+04  1.3819938593416515e+04  1.3698231754675808e+04  1.3585423947706273e+04  1.3463748923310324e+04  1.3352805779457931e+04  1.3226132977661155e+04  1.3114763070434805e+04  1.2994054541690488e+04  1.2874992862777179e+04  1.2756649097344556e+04  1.2638177380830200e+04  1.2517286562571271e+04  1.2407379357396632e+04  1.2288269799773694e+04  1.2164497322853647e+04  1.2043867326419118e+04  1.1931195094824692e+04  1.1812261681275693e+04  1.1695333738534477e+04  1.1573529846522073e+04  1.1460988938525194e+04  1.1336849785418728e+04  1.1219591733378400e+04  1.1099629582107738e+04  1.0987771823151796e+04  1.0865335109406957e+04  1.0748441234876052e+04  1.0631430216065235e+04  1.0516040211965659e+04  1.0395097264646736e+04  1.0278773412684994e+04  1.0157189574155429e+04  1.0040090628814396e+04  9.9206246314818709e+03  9.8048168243976979e+03  9.6845065766640364e+03  9.5681367675473502e+03  9.4512924638532932e+03  9.3337674134956269e+03  9.2171467646885067e+03  9.0982920482414247e+03  8.9757126227841218e+03  8.8628709501988033e+03  8.7398945898290222e+03  8.6179750027768750e+03  8.5063504294344912e+03  8.3873868859080612e+03  8.2697514803103531e+03  8.1475538074654860e+03  8.0345405533293697e+03  7.9108939033680026e+03  7.7973119695914584e+03  7.6812491141829050e+03  7.5577379452648838e+03  7.4455145669359317e+03  7.3212103714714640e+03  7.2033511113218246e+03  7.0882437564600086e+03  6.9714824244998817e+03  6.8493288883775340e+03  6.7320141894207718e+03  6.6113789803916197e+03  6.4994272333518147e+03  6.3825403364596732e+03  6.2591194877724183e+03  6.1377145114867180e+03  6.0246401046369274e+03  5.9076100219555174e+03  5.7886770488999500e+03  5.6717499971858515e+03  5.5550451089980834e+03  5.4324888257646608e+03  5.3158986952174782e+03  5.1962722853680352e+03  5.0793853830926600e+03  4.9658888715371486e+03  4.8449871928418797e+03  4.7194996669630855e+03  4.6089214657630391e+03  4.4882021565483228e+03  4.3701719242193294e+03  4.2522011825132668e+03  4.1337205809359257e+03  4.0116702332585787e+03  3.9001821837555922e+03  3.7766690461636304e+03  3.6632780522586836e+03  3.5428560401219643e+03  3.4261403673993887e+03  3.3066073395508092e+03  3.1934563884815448e+03  3.0709358821626101e+03  2.9534384159373089e+03  2.8390970723287255e+03  2.7145219850170497e+03  2.6040726958212958e+03  2.4832470587955540e+03  2.3606999321100088e+03  2.2493408734488135e+03  2.1272854445594921e+03  2.0041150975104995e+03  1.8914128786800975e+03  1.7701505308554442e+03  1.6549452487353803e+03  1.5382018004654431e+03  1.4161207316186199e+03  1.3046294563119627e+03  1.1825488694437470e+03  1.0602579099950124e+03  9.4668339694890255e+02  8.2235859807973850e+02  7.1008937265545194e+02  5.9306637213942565e+02  4.6877325891490415e+02  3.5647106979644678e+02  2.3527938058039734e+02  1.2152750386543384e+02  -8.5572091191354713e-02  7.3969052827620480e-02  -1.8737638870012639e-02  4.6225111784933964e-03  -2.9197018905279860e-04  1.7992337621068900e-04  -4.3565927572590189e-05  1.6252734655152809e-05  2.3808831193668337e-05  -5.0288869417762943e-07  -8.7053913620063040e-08  3.3358451176291532e-06  -3.0313637876978471e-06  5.6896767397790911e-06  -2.7695626987670494e-05  4.3729699541304435e-06  3.1103539554397312e-05  -3.2628271003493409e-06  1.3709827205275354e-06  -1.9739606610123959e-06  -7.7731323717928491e-07  4.9893870949553092e-06  -2.4790199103733786e-05  1.4480628828728804e-05  7.5918539180860857e-06  8.1428911259705959e-06  -1.1031328382889989e-05  4.8030542264310165e-06  1.2204318359481193e-05  7.9894000820126049e-06  7.1510180090404749e-07  3.3865999824253631e-06  -4.8687576917461198e-06  -1.4416980410211611e-06  -1.4178092759152522e-05  7.6831887745737841e-07  2.5219057379521742e-06  -1.7340334957431087e-06  -4.9988900418289144e-06  -2.7297335504924237e-06  8.3037738851435266e-07  -2.2036592120021157e-07  -7.8949605173861293e-07  1.9455187609118929e-06  -2.2934550246029295e-06  1.0593013044877430e-06  1.7045544826663297e-06  9.8443128063035885e-09  1.7821823186662637e-06  -2.3358856030019981e-06  7.4373764244913470e-07  -2.2101854538530233e-06  -7.6252773976053547e-07  -2.4232989609873670e-06  2.4659952627186454e-06  8.4385048708849996e-07  5.2436549888833512e-07  -2.5123374072538773e-06  -3.1267692592711730e-07  2.1151994702361541e-06  9.2194544838676956e-07  3.2219722648243705e-07  1.7880576056850277e-06  2.7614345039921575e-06  3.2357438547920218e-06  1.4180000808609648e-06  2.4896903605264760e-05  1.1309507630867845e-05  -3.6871837992148159e-05  2.1723284166461451e-05  1.4909241482409007e-05  4.3279823391957986e-05  4.4230331778249441e-05  2.1747087802637868e-05  4.9840123838622405e-04  2.0773152612237788e-04  -5.5040545315480460e-04  5.1266132301050189e-04  -3.0039269981991368e-04  6.1554372948152839e-03  -2.0114997337372171e-02  7.3257026761849448e-02  -9.3424631821940496e-02  1.2201446093280838e+02  2.3516956884607231e+02  3.5678060911577484e+02  4.7148769834839572e+02  5.9379335982066607e+02  7.1164818558114894e+02  8.2879322050332439e+02  9.4224875041943039e+02  1.0650064055341063e+03  1.1812299320267014e+03  1.2980117831454543e+03  1.4161713090276294e+03  1.5346796502420350e+03  1.6563766695809022e+03  1.7685835956776236e+03  1.8906019895594552e+03  2.0080210812606047e+03  2.1243757549233128e+03  2.2416915446787384e+03  2.3637017056788213e+03  2.4777238524305199e+03  2.5972396890434215e+03  2.7197918330650778e+03  2.8363037169428976e+03  2.9525384208646997e+03  3.0742711040580853e+03  3.1868326391663691e+03  3.3037070463926643e+03  3.4256628529586151e+03  3.5485952387746888e+03  3.6617367551737284e+03  3.7817834412888119e+03  3.8987698982529869e+03  4.0123566645418282e+03  4.1354694090695693e+03  4.2564179700166687e+03  4.3715083597801267e+03  4.4867916036237757e+03  4.6115181899430336e+03  4.7234942613962576e+03  4.8428210298000795e+03  4.9610234674930052e+03  5.0815101539432899e+03  5.1949778883600748e+03  5.3155229897921645e+03  5.4323794119596851e+03  5.5549015195237089e+03  5.6717810783356208e+03  5.7882005534170012e+03  5.9044959433931817e+03  6.0245607921863248e+03  6.1440088595209863e+03  6.2599522475193762e+03  6.3783638946775282e+03  6.4998827143246299e+03  6.6132919972326072e+03  6.7348012966451042e+03  6.8511415408628100e+03  6.9662211851831617e+03  7.0915791512801352e+03  7.2073820433603305e+03  7.3240475010580676e+03  7.4455021321438153e+03  7.5567954662173879e+03  7.6786374458912787e+03  7.7964713023418162e+03  7.9147773351506066e+03  8.0354076860993991e+03  8.1516377021605203e+03  8.2681779783248330e+03  8.3850722964368379e+03  8.5081446619257858e+03  8.6230875835366078e+03  8.7454814548830509e+03  8.8579546261527594e+03  8.9807514607223293e+03  9.0927794428892885e+03  9.2170794723645176e+03  9.3296137371040004e+03  9.4509368647945630e+03  9.5679946413112648e+03  9.6874450211030908e+03  9.8041281185858097e+03  9.9255920517832019e+03  1.0037041666858277e+04  1.0158708847369257e+04  1.0277077074451683e+04  1.0395676451095283e+04  1.0514916893006932e+04  1.0635453584758461e+04  1.0747011648593782e+04  1.0872772261376729e+04  1.0983130264155589e+04  1.1104568724532182e+04  1.1227019184593790e+04  1.1342301556601102e+04  1.1458607470171466e+04  1.1580096280759251e+04  1.1693170698190568e+04  1.1809665577652118e+04  1.1932768814236217e+04  1.2054048137752447e+04  1.2166355167894852e+04  1.2287690744402353e+04  1.2401664948183869e+04  1.2524533864351208e+04  1.2644858258592889e+04  1.2757722227057420e+04  1.2879662347958143e+04  1.2995145086858176e+04  1.3119619223891723e+04  1.3231756964019398e+04  1.3348775847655430e+04  1.3473144180766776e+04  1.3588200242219116e+04  1.3706705886222751e+04  1.3823675796684776e+04  1.3941170656424572e+04  1.4063515107929354e+04  1.4181346603280334e+04  1.4298265489862548e+04  1.4416023579377934e+04  1.4532967973980898e+04  1.4652801619636388e+04  1.4770124577015396e+04  1.4892006552245104e+04  1.5008011081347015e+04  1.5130090119762408e+04  1.5243992097089564e+04  1.5365481206540258e+04  1.5479315908884300e+04  1.5597432226174442e+04  1.5719630624651818e+04  1.5836845209946103e+04  1.5951510641360754e+04  1.6073534929329629e+04  1.6196208430962663e+04  1.6307943651753378e+04  1.6430426511469072e+04  1.6547457300062077e+04  1.6663738798488957e+04  1.6786634951728262e+04  1.6905502930925330e+04  1.7022447863707199e+04  1.7139885153259060e+04  1.7257750922627973e+04  1.7380048425738107e+04  1.7496884179242010e+04  1.7615970749528489e+04  1.7733219011330155e+04  1.7848789441781999e+04  1.7973815375537542e+04  1.8097685486514056e+04  1.8210533351708542e+04  1.8329860620859774e+04  1.8451177489131573e+04  1.8575779244452384e+04  1.8690238355026286e+04  1.8808284765423323e+04  1.8929252845582843e+04  1.9047913179165593e+04  1.9171110954291631e+04  1.9290773881832440e+04  1.9408493058095515e+04  1.9526768618836712e+04  1.9654452667292713e+04  1.9771620739797061e+04  1.9895047880701524e+04  2.0019665877697418e+04  2.0134573216263401e+04  2.0258695848866169e+04  2.0379433954810196e+04  2.0506322269718297e+04  2.0629563911614674e+04  2.0751458469031440e+04  2.0879250245858831e+04  2.0997476286666231e+04  2.1126269812680512e+04  2.1253144966976641e+04  2.1377845397996593e+04  2.1505647410756981e+04  2.1639011381811921e+04  2.1762866650872533e+04  2.1898269276881631e+04  2.2030718232564854e+04  2.2160643940041013e+04  2.2293246918299479e+04  2.2428124077647190e+04  2.2546509157126337e+04  2.2665024700684142e+04  2.2764966510177295e+04  2.2835838449177088e+04  2.2895576953827196e+04  2.2945636091864137e+04  2.2996520785283279e+04  2.3047993197553762e+04  2.3099867065550574e+04  2.3157825180603701e+04  2.3198528806306254e+04  2.3237394386709730e+04  2.3283167095331119e+04  2.3324242110303963e+04  2.3361027839567581e+04  2.3397897795107143e+04  2.3428763362372691e+04  2.3465861001087469e+04  2.3507650626461007e+04  2.3553161325364264e+04  2.3589268314435551e+04  2.3634439672294022e+04  2.3682860637567428e+04  2.3730324149970813e+04  2.3775335228644170e+04  2.3827696779378206e+04  2.3879023036162347e+04  2.3933062410605336e+04  2.3975602375049351e+04  2.4007039724257054e+04  2.4039802014752429e+04  2.4073827379905873e+04  2.4102942465072472e+04  2.4132740398513117e+04  2.4159469627266375e+04  2.4189406665818344e+04  2.4206240202717989e+04  2.4229151627476800e+04  2.4247917593328973e+04  2.4268178533333783e+04  2.4288198021467742e+04  3.3367030445390112e+04  3.3386631998980163e+04  3.3407766245667910e+04  3.3430610927955393e+04  3.3453209076385676e+04  3.3452294493783011e+04  3.3451629871319579e+04  3.3451115319551347e+04  3.3450644198672038e+04  3.3450224562071860e+04  3.3449862937262369e+04  3.3449534233939623e+04  3.3449264950602876e+04  3.3449028452859355e+04  3.3448846528875103e+04  3.3448706608439737e+04  3.3448611229844108e+04  3.3448561211087268e+04  3.3448546592540311e+04  3.3448567867287515e+04  3.3448627546319505e+04  3.3448722008895485e+04  3.3448841139521835e+04  3.3448988660552823e+04  3.3449167019710163e+04  3.3449358818139197e+04  3.3449578484723897e+04  3.3449822840951820e+04  3.3450067135427467e+04  3.3450323544850151e+04  3.3450600897665747e+04  3.3450877970171794e+04  3.3451157959753422e+04  3.3451430132027868e+04  3.3451713996413164e+04  3.3451972587174751e+04  3.3452227628892178e+04  3.3452472493911795e+04  3.3452695460760529e+04  3.3452911407699328e+04  3.3453099572272600e+04  3.3453274480115513e+04  3.3453418037518997e+04  3.3453553339471968e+04  3.3453660610705476e+04  3.3453743171388873e+04  3.3453809262646784e+04  3.3453853035379812e+04  3.3453879289418270e+04  3.3453887275964087e+04  3.3453879411476722e+04  3.3453858445847654e+04  3.3453825526168279e+04  3.3453779750673690e+04  3.3453725988091661e+04  3.3453669453750161e+04  3.3453604723168741e+04  3.3453537751627686e+04  3.3453471622133184e+04  3.3453406132186072e+04  3.3453343082483239e+04  3.3453283415326237e+04  3.3453228330323233e+04  3.3453183354006767e+04  3.3453142835249644e+04  3.3453113588010354e+04  3.3453092679622139e+04  3.3453085543716756e+04  3.3453087130830390e+04  3.3453103279279188e+04  3.3453132283375322e+04  3.3453174871397765e+04  3.3453235134628485e+04  3.3453306082192146e+04  3.3453397440207074e+04  3.3453504100988939e+04  3.3453623859569358e+04  3.3453759830214112e+04  3.3453919645728958e+04  3.3454090051630519e+04  3.3454281256273753e+04  3.3454489834348075e+04  3.3454715154864389e+04  3.3454963257996496e+04  3.3455210207492069e+04  3.3455495025672681e+04  3.3455804620115872e+04  3.3456112044629481e+04  3.3456433810055787e+04  3.3456785955656705e+04  3.3457137537797003e+04  3.3457522133851278e+04  3.3457896217835099e+04  3.3458307972448958e+04  3.3458734028544182e+04  3.3459156216621603e+04  3.3459591389259964e+04  3.3460055026688991e+04  3.3460510680589658e+04  3.3460979829034186e+04  3.3461466121970196e+04  3.3461957600499802e+04  3.3462473126755373e+04  3.3462963524285791e+04  3.3463497035588967e+04  3.3464038743173005e+04  3.3464553804407617e+04  3.3465113263242267e+04  3.3465681359777554e+04  3.3466235235590480e+04  3.3466828340915694e+04  3.3467390581229876e+04  3.3467993372018820e+04  3.3468591688389621e+04  3.3469186670502873e+04  3.3469782656199328e+04  3.3470394973851726e+04  3.3470994423272416e+04  3.3471571292426313e+04  3.3472186355215032e+04  3.3472782750801045e+04  3.3473330899656365e+04  3.3473876865579965e+04  3.3474428467594778e+04  3.3474919640035492e+04  3.3475406229845183e+04  3.3475866019170266e+04  3.3476315921534711e+04  3.3476715590308675e+04  3.3477077090761959e+04  3.3477412152100420e+04  3.3477704865906941e+04  3.3477969987212651e+04  3.3478187228001909e+04  3.3478372894993212e+04  3.3478512519803175e+04  3.3478609992699807e+04  3.3478678471180065e+04  3.3478695541931571e+04  3.3478676587643444e+04  3.3478617574621938e+04  3.3478526963813194e+04  3.3478400981739236e+04  3.3478232178938488e+04  3.3478040044806774e+04  3.3477806378843976e+04  3.3477550198508769e+04  3.3477263718863476e+04  3.3476971070106294e+04  3.3476637681068394e+04  3.3476298135889301e+04  3.3475941800359142e+04  3.3475577684260395e+04  3.3475203549380974e+04  3.3474827807302077e+04  3.3474451833300183e+04  3.3474080673479788e+04  3.3473730350296501e+04  3.3473369698198134e+04  3.3473034783639530e+04  3.3472711556392474e+04  3.3472422403758828e+04  3.3472152648536532e+04  3.3471897573776761e+04  3.3471689722506293e+04  3.3471504024636379e+04  3.3471365736044652e+04  3.3471256242302523e+04  3.3471192676555453e+04  3.3471171236692586e+04  3.3471195748124097e+04  3.3471270392999708e+04  3.3471394672013164e+04  3.3471562800917258e+04  3.3471791214538469e+04  3.3472082480881691e+04  3.3472411934809898e+04  3.3472783240554803e+04  3.3473236670418752e+04  3.3473738832556046e+04  3.3474381192155000e+04  3.3475286925820263e+04  2.2584541630219475e+04  4.9362150987065124e+03  1.7746963793774372e+04  1.1153765416257234e+04  3.2533686786993952e+04  2.3687158509511759e+04  2.3964649934287187e+04  1.4471008216628485e+04  8.0748258974211985e+03  8.4236218850213409e+03  1.5115182086991843e+04  2.0234957569374990e+04  2.0226929688415912e+04  2.8877903761576731e+03  2.8897220367541022e+03  3.3108918577812517e+04  3.3148677809456269e+04  1.2537989371396015e+04  2.4161674806685467e+04  3.3171385209135951e+04  5.9460442934758339e+03  1.2114724943308460e+04  1.6817711653654937e+04  5.7092404957690387e+03  2.2435131852607890e+04  2.2424516017683643e+04  1.7506820656234693e+04  1.0153401308963992e+04  2.1688194994563401e+03  1.3251506156339650e+04  6.9604898092632402e+03  1.0124589244075514e+04  3.3259272403036797e+04  3.3261887318483597e+04  3.3291343441023826e+04  1.8667719401867631e+04  2.0721898754297112e+04  1.5830876016316326e+04  9.2644290509252023e+03  1.5116790138844155e+04  4.3314400429875686e+03  7.3455004765059957e+03  3.2320311818169805e+04  1.4050674993426523e+04  1.9111950630020281e+04  3.3284235473953537e+04  7.4902492329176721e+03  3.3277832839254290e+04  3.3256630147732219e+04  4.1788785192553178e+03  2.3351184119491743e+04  2.3335358123197297e+04  1.5979097581222321e+04  1.6708636761877112e+03  1.6907474508675036e+03  3.2387724292562576e+04  2.0989809615484068e+04  2.1034775092446347e+04  1.3477034733660998e+04  1.8667661096657688e+04  1.8680999606442256e+04  4.4316002038444458e+03  1.0189486822657147e+04  4.3892889757181383e+03  2.1670043019168639e+04  2.1712286769872979e+04  3.3329670335600524e+04  3.3304583808475705e+04  8.8548846162285881e+03  1.1454948311971621e+04  1.5223522573630971e+03  1.5198241940445275e+03  6.0969759807800574e+03  1.1223905819678794e+04  1.2999038234232632e+04  1.6811754891776734e+04  1.9246339244911920e+04  3.1985518589715437e+04  3.3314548546472462e+04  2.3192460396549555e+04  3.3324457009019658e+04  2.3847741925886330e+04  3.5525202063503912e+03  8.8635468508268150e+03  1.1346951783687429e+04  1.3731377489476550e+04  9.4075555313939076e+03  1.6799128178723255e+04  3.0256752414190687e+03  1.4582941911059053e+04  5.8407094402181374e+03  7.0834734557414640e+03  1.7438597003728879e+04  1.2772031116805430e+04  5.5462901361710256e+03  3.2953313009544916e+04  3.3036397717372660e+04  2.