<?xml version="1.0"?>
<VTKFile type="UnstructuredGrid"  version="0.1"  >
<UnstructuredGrid>
<Piece  NumberOfPoints="29979" NumberOfCells="59225">
<Points>
<DataArray  type="Float64"  NumberOfComponents="3"  format="ascii">0 0 0  0.7 0 0  0.7 0.25 0  0 0.25 0  0.002991452991447148 0 0  0.005982905982894296 0 0  0.008974358974341432 0 0  0.0119658119657887 0 0  0.0149572649572362 0 0  0.01794871794868352 0 0  0.02094017094013065 0 0  0.02393162393157728 0 0  0.02692307692302367 0 0  0.02991452991446975 0 0  0.03290598290591576 0 0  0.03589743589736141 0 0  0.03888888888880721 0 0  0.04188034188025361 0 0  0.04487179487170056 0 0  0.04786324786314844 0 0  0.05085470085459671 0 0  0.05384615384604534 0 0  0.05683760683749394 0 0  0.05982905982894257 0 0  0.06282051282039053 0 0  0.06581196581183844 0 0  0.06880341880328707 0 0  0.07179487179473568 0 0  0.0747863247861843 0 0  0.07777777777763231 0 0  0.08076923076907945 0 0  0.08376068376052657 0 0  0.08675213675197373 0 0  0.08974358974341974 0 0  0.09273504273486541 0 0  0.0957264957263097 0 0  0.09871794871775386 0 0  0.101709401709198 0 0  0.1047008547006426 0 0  0.1076923076920882 0 0  0.1106837606835339 0 0  0.1136752136749795 0 0  0.1166666666664243 0 0  0.1196581196578685 0 0  0.1226495726493126 0 0  0.1256410256407568 0 0  0.1286324786322038 0 0  0.1316239316236509 0 0  0.1346153846150981 0 0  0.1376068376065443 0 0  0.1405982905979885 0 0  0.1435897435894326 0 0  0.1465811965808768 0 0  0.149572649572321 0 0  0.1525641025637651 0 0  0.1555555555552093 0 0  0.1585470085466535 0 0  0.1615384615380976 0 0  0.1645299145295418 0 0  0.167521367520986 0 0  0.1705128205124302 0 0  0.1735042735038743 0 0  0.1764957264953185 0 0  0.1794871794867627 0 0  0.1824786324782068 0 0  0.185470085469651 0 0  0.1884615384610951 0 0  0.1914529914525394 0 0  0.1944444444439835 0 0  0.1974358974354277 0 0  0.2004273504268719 0 0  0.203418803418316 0 0  0.2064102564097602 0 0  0.2094017094012044 0 0  0.2123931623926485 0 0  0.2153846153840948 0 0  0.2183760683755419 0 0  0.221367521366989 0 0  0.2243589743584361 0 0  0.2273504273498802 0 0  0.2303418803413244 0 0  0.2333333333327685 0 0  0.2363247863242127 0 0  0.2393162393156569 0 0  0.2423076923071011 0 0  0.2452991452985452 0 0  0.2482905982899894 0 0  0.2512820512814336 0 0  0.2542735042728778 0 0  0.257264957264322 0 0  0.2602564102557661 0 0  0.2632478632472102 0 0  0.2662393162386544 0 0  0.2692307692300986 0 0  0.2722222222215427 0 0  0.275213675212987 0 0  0.2782051282044311 0 0  0.2811965811958753 0 0  0.2841880341873195 0 0  0.2871794871787636 0 0  0.2901709401702077 0 0  0.2931623931616519 0 0  0.2961538461530961 0 0  0.2991452991445402 0 0  0.3021367521359845 0 0  0.3051282051274286 0 0  0.3081196581188728 0 0  0.311111111110317 0 0  0.3141025641017611 0 0  0.3170940170932053 0 0  0.3200854700846494 0 0  0.3230769230760936 0 0  0.3260683760675378 0 0  0.329059829058982 0 0  0.3320512820504261 0 0  0.3350427350418703 0 0  0.3380341880333145 0 0  0.3410256410247586 0 0  0.3440170940162028 0 0  0.3470085470076519 0 0  0.349999999999102 0 0  0.3529914529905639 0 0  0.3559829059820259 0 0  0.3589743589734879 0 0  0.3619658119649478 0 0  0.3649572649564038 0 0  0.3679487179478629 0 0  0.3709401709393249 0 0  0.3739316239307868 0 0  0.3769230769222488 0 0  0.3799145299137108 0 0  0.3829059829051727 0 0  0.3858974358966347 0 0  0.3888888888880954 0 0  0.3918803418795516 0 0  0.3948717948710098 0 0  0.3978632478624717 0 0  0.4008547008539337 0 0  0.4038461538453956 0 0  0.4068376068368576 0 0  0.4098290598283196 0 0  0.4128205128197816 0 0  0.4158119658112431 0 0  0.4188034188026991 0 0  0.4217948717941565 0 0  0.4247863247856185 0 0  0.4277777777770805 0 0  0.4307692307685425 0 0  0.4337606837600044 0 0  0.4367521367514663 0 0  0.4397435897429283 0 0  0.4427350427343902 0 0  0.4457264957258523 0 0  0.4487179487173142 0 0  0.4517094017087763 0 0  0.4547008547002366 0 0  0.4576923076916926 0 0  0.4606837606831512 0 0  0.4636752136746133 0 0  0.4666666666660752 0 0  0.4696581196575372 0 0  0.4726495726489991 0 0  0.475641025640461 0 0  0.4786324786319231 0 0  0.4816239316233843 0 0  0.4846153846148403 0 0  0.4876068376062981 0 0  0.4905982905977601 0 0  0.493589743589222 0 0  0.4965811965806841 0 0  0.4995726495721421 0 0  0.5025641025635983 0 0  0.5055555555550543 0 0  0.5085470085465102 0 0  0.5115384615379662 0 0  0.5145299145294223 0 0  0.5175213675208784 0 0  0.5205128205123384 0 0  0.5235042735038061 0 0  0.5264957264952741 0 0  0.529487179486742 0 0  0.5324786324782019 0 0  0.5354700854696579 0 0  0.538461538461114 0 0  0.54145299145257 0 0  0.544444444444026 0 0  0.5474358974354843 0 0  0.5504273504269522 0 0  0.5534188034184201 0 0  0.5564102564098879 0 0  0.5594017094013496 0 0  0.5623931623928056 0 0  0.5653846153842615 0 0  0.5683760683757176 0 0  0.5713675213671737 0 0  0.5743589743586304 0 0  0.5773504273500981 0 0  0.5803418803415661 0 0  0.5833333333330341 0 0  0.5863247863244972 0 0  0.5893162393159533 0 0  0.5923076923074093 0 0  0.5952991452988653 0 0  0.5982905982903213 0 0  0.6012820512817775 0 0  0.6042735042732442 0 0  0.6072649572647121 0 0  0.6102564102561799 0 0  0.6132478632476449 0 0  0.6162393162391009 0 0  0.619230769230557 0 0  0.6222222222220131 0 0  0.625213675213469 0 0  0.6282051282049251 0 0  0.6311965811963901 0 0  0.6341880341878581 0 0  0.637179487179326 0 0  0.6401709401707926 0 0  0.6431623931622487 0 0  0.6461538461537046 0 0  0.6491452991451606 0 0  0.6521367521366167 0 0  0.6551282051280728 0 0  0.6581196581195362 0 0  0.6611111111110041 0 0  0.6641025641024719 0 0  0.6670940170939399 0 0  0.6700854700853962 0 0  0.6730769230768523 0 0  0.6760683760683084 0 0  0.6790598290597644 0 0  0.6820512820512205 0 0  0.6850427350426822 0 0  0.6880341880341501 0 0  0.691025641025618 0 0  0.6940170940170859 0 0  0.697008547008544 0 0  0.7 0.002976190476184849 0  0.7 0.005952380952369731 0  0.7 0.008928571428554169 0  0.7 0.0119047619047381 0  0.7 0.01488095238092216 0  0.7 0.01785714285710736 0  0.7 0.02083333333329328 0  0.7 0.02380952380947921 0  0.7 0.02678571428566513 0  0.7 0.02976190476185089 0  0.7 0.03273809523803475 0  0.7 0.03571428571421671 0  0.7 0.0386904761903985 0  0.7 0.04166666666658028 0  0.7 0.04464285714276207 0  0.7 0.04761904761894387 0  0.7 0.05059523809512566 0  0.7 0.05357142857130745 0  0.7 0.05654761904748924 0  0.7 0.05952380952367103 0  0.7 0.06249999999985282 0  0.7 0.06547619047603462 0  0.7 0.06845238095221641 0  0.7 0.0714285714283982 0  0.7 0.07440476190457998 0  0.7 0.07738095238076177 0  0.7 0.08035714285694356 0  0.7 0.08333333333312536 0  0.7 0.08630952380930715 0  0.7 0.08928571428548893 0  0.7 0.09226190476167072 0  0.7 0.09523809523785251 0  0.7 0.0982142857140343 0  0.7 0.1011904761902161 0  0.7 0.1041666666663979 0  0.7 0.1071428571425797 0  0.7 0.1101190476187615 0  0.7 0.1130952380949433 0  0.7 0.1160714285711251 0  0.7 0.1190476190473068 0  0.7 0.1220238095234886 0  0.7 0.1249999999996731 0  0.7 0.1279761904758688 0  0.7 0.1309523809520671 0  0.7 0.1339285714282654 0  0.7 0.1369047619044637 0  0.7 0.1398809523806621 0  0.7 0.1428571428568604 0  0.7 0.1458333333330587 0  0.7 0.148809523809257 0  0.7 0.1517857142854553 0  0.7 0.1547619047616537 0  0.7 0.157738095237852 0  0.7 0.1607142857140503 0  0.7 0.1636904761902486 0  0.7 0.1666666666664469 0  0.7 0.1696428571426453 0  0.7 0.1726190476188436 0  0.7 0.1755952380950419 0  0.7 0.1785714285712403 0  0.7 0.1815476190474386 0  0.7 0.1845238095236369 0  0.7 0.1874999999998352 0  0.7 0.1904761904760336 0  0.7 0.1934523809522318 0  0.7 0.1964285714284301 0  0.7 0.1994047619046285 0  0.7 0.2023809523808268 0  0.7 0.2053571428570251 0  0.7 0.2083333333332235 0  0.7 0.2113095238094218 0  0.7 0.2142857142856201 0  0.7 0.2172619047618184 0  0.7 0.2202380952380167 0  0.7 0.2232142857142151 0  0.7 0.2261904761904134 0  0.7 0.2291666666666117 0  0.7 0.23214285714281 0  0.7 0.2351190476190084 0  0.7 0.2380952380952067 0  0.7 0.241071428571405 0  0.7 0.2440476190476034 0  0.7 0.2470238095238017 0  0.6970085470085443 0.25 0  0.6940170940170907 0.25 0  0.6910256410256468 0.25 0  0.6880341880342071 0.25 0  0.6850427350427751 0.25 0  0.682051282051337 0.25 0  0.6790598290598933 0.25 0  0.6760683760684413 0.25 0  0.6730769230769856 0.25 0  0.6700854700855299 0.25 0  0.6670940170940746 0.25 0  0.6641025641026308 0.25 0  0.6611111111111894 0.25 0  0.6581196581197574 0.25 0  0.655128205128321 0.25 0  0.6521367521368772 0.25 0  0.6491452991454268 0.25 0  0.6461538461539712 0.25 0  0.6431623931625156 0.25 0  0.6401709401710598 0.25 0  0.6371794871796147 0.25 0  0.6341880341881716 0.25 0  0.6311965811967397 0.25 0  0.6282051282053049 0.25 0  0.6252136752138612 0.25 0  0.6222222222224125 0.25 0  0.6192307692309569 0.25 0  0.6162393162395011 0.25 0  0.6132478632480455 0.25 0  0.6102564102565987 0.25 0  0.6072649572651548 0.25 0  0.604273504273722 0.25 0  0.601282051282289 0.25 0  0.5982905982908451 0.25 0  0.5952991452993981 0.25 0  0.5923076923079424 0.25 0  0.5893162393164868 0.25 0  0.5863247863250312 0.25 0  0.5833333333335826 0.25 0  0.5803418803421388 0.25 0  0.5773504273507043 0.25 0  0.5743589743592723 0.25 0  0.5713675213678291 0.25 0  0.5683760683763838 0.25 0  0.5653846153849281 0.25 0  0.5623931623934725 0.25 0  0.5594017094020167 0.25 0  0.5564102564105666 0.25 0  0.5534188034191229 0.25 0  0.5504273504276866 0.25 0  0.5474358974362546 0.25 0  0.5444444444448131 0.25 0  0.5414529914533692 0.25 0  0.5384615384619138 0.25 0  0.535470085470458 0.25 0  0.5324786324790024 0.25 0  0.5294871794875506 0.25 0  0.5264957264961068 0.25 0  0.5235042735046689 0.25 0  0.520512820513237 0.25 0  0.5175213675217971 0.25 0  0.5145299145303532 0.25 0  0.5115384615388994 0.25 0  0.5085470085474437 0.25 0  0.5055555555559881 0.25 0  0.5025641025645347 0.25 0  0.4995726495730908 0.25 0  0.4965811965816491 0.25 0  0.4935897435902112 0.25 0  0.490598290598767 0.25 0  0.4876068376073173 0.25 0  0.4846153846158634 0.25 0  0.481623931624407
[...]
<PointData  Scalars="pressure"> 
<DataArray  type="Float64"  Name="pressure"  format="ascii">3.0977827147455035e+04  3.8297077395101318e+00  3.8918797185653498e+00  3.0933117367699258e+04  3.0953380342252534e+04  3.0930522356223311e+04  3.0909365164044862e+04  3.0889732740443309e+04  2.2483529983358192e+04  2.2463441296789151e+04  2.2443061424772390e+04  2.2424196350970680e+04  2.2401198589588443e+04  2.2384650453298971e+04  2.2355760619963286e+04  2.2329925260566601e+04  2.2300968281658734e+04  2.2272414282744718e+04  2.2239816245426719e+04  2.2210738791616386e+04  2.2183931029832005e+04  2.2147695692663212e+04  2.2101726737449932e+04  2.2057666519679551e+04  2.2011334839698622e+04  2.1970334497925160e+04  2.1925895886892071e+04  2.1880059480838940e+04  2.1837011490893863e+04  2.1801827836262171e+04  2.1755768705715363e+04  2.1712044317414035e+04  2.1670342014687514e+04  2.1632827231086419e+04  2.1584874289800166e+04  2.1536190354787923e+04  2.1483002330225885e+04  2.1431033776216271e+04  2.1386044772887253e+04  2.1336779292837196e+04  2.1268299661099238e+04  2.1209270724496051e+04  2.1150292329340256e+04  2.1097856497643774e+04  2.1057216820403657e+04  2.1013845856540414e+04  2.0978373835514158e+04  2.0937183235790115e+04  2.0888357232305734e+04  2.0834800917746270e+04  2.0784881215017347e+04  2.0735326885995484e+04  2.0683862477616167e+04  2.0615214098122226e+04  2.0556567576455491e+04  2.0497357128836997e+04  2.0443787880341861e+04  2.0393941449011138e+04  2.0344820811354955e+04  2.0294000684078746e+04  2.0249035424673708e+04  2.0201443229667806e+04  2.0157628523161948e+04  2.0123241731519720e+04  2.0092330414090207e+04  2.0060598955337784e+04  2.0029810990897095e+04  1.9993536169838015e+04  1.9946394403336544e+04  1.9888426702851721e+04  1.9817323358912792e+04  1.9725811450088833e+04  1.9613470688939062e+04  1.9503288154138056e+04  1.9383449674010022e+04  1.9260333358274551e+04  1.9132434346594757e+04  1.9007027332818267e+04  1.8875148098951653e+04  1.8748210870021714e+04  1.8623883521818818e+04  1.8505316266922895e+04  1.8377100414821674e+04  1.8253883328765267e+04  1.8129184388210724e+04  1.8007259520721116e+04  1.7884084940379558e+04  1.7763298674939932e+04  1.7636928380159334e+04  1.7520098788633175e+04  1.7392657680561082e+04  1.7272528912471880e+04  1.7155447206804114e+04  1.7032736720280456e+04  1.6912552204433836e+04  1.6788785026594636e+04  1.6674116096733651e+04  1.6547457606371732e+04  1.6434371484616204e+04  1.6314273122582936e+04  1.6189159387827127e+04  1.6076332462906148e+04  1.5953101090211027e+04  1.5830460195358553e+04  1.5719344293097845e+04  1.5596354057278366e+04  1.5473202506634751e+04  1.5362197924016362e+04  1.5237830621802894e+04  1.5121069807916641e+04  1.5004641591645865e+04  1.4881562650041049e+04  1.4763774549608099e+04  1.4650896017841147e+04  1.4526376427497387e+04  1.4413037997222262e+04  1.4289536079346131e+04  1.4167517209277674e+04  1.4055333871443227e+04  1.3933029401357684e+04  1.3818319090224539e+04  1.3696452086858972e+04  1.3583515351761498e+04  1.3461721084585542e+04  1.3350685463059912e+04  1.3223924184111411e+04  1.3112489080169273e+04  1.2991724259313482e+04  1.2872618610286601e+04  1.2754242162576165e+04  1.2635747583896038e+04  1.2514842170976435e+04  1.2404928978682028e+04  1.2285820518976705e+04  1.2162055487254009e+04  1.2041438449291709e+04  1.1928783137918441e+04  1.1809872630064468e+04  1.1692970340349219e+04  1.1571197213596613e+04  1.1458687559287528e+04  1.1334585593474949e+04  1.1217364799896679e+04  1.1097442836289776e+04  1.0985624082409908e+04  1.0863231444695984e+04  1.0746380666742407e+04  1.0629413770669496e+04  1.0514067743558251e+04  1.0393171465181273e+04  1.0276892772610830e+04  1.0155356303154655e+04  1.0038302984575152e+04  9.9188834112834847e+03  9.8031204426814638e+03  9.6828563734557047e+03  9.5665309885911083e+03  9.4497306225382144e+03  9.3322494088242202e+03  9.2156714968952074e+03  9.0968598540822277e+03  8.9743240582342059e+03  8.8615218461002423e+03  8.7385877041935018e+03  8.6167091775918761e+03  8.5051214662961465e+03  8.3861962343099494e+03  8.2685980818319986e+03  8.1464381161604497e+03  8.0334589405031502e+03  7.9098487010120243e+03  7.7962994211925834e+03  7.6802690371917788e+03  7.5567915961329027e+03  7.4445980520476169e+03  7.3203260400782419e+03  7.2024964250007042e+03  7.0874173677261770e+03  6.9706838144629455e+03  6.8485585783914930e+03  6.7312703046504275e+03  6.6106614886940233e+03  6.4987335475391628e+03  6.3818707429514297e+03  6.2584746290960211e+03  6.1370932664765960e+03  6.0240402408504124e+03  5.9070315201648727e+03  5.7881197303102908e+03  5.6712128723922897e+03  5.5545274869593650e+03  5.4319910984541020e+03  5.3154193394910071e+03  5.1958111245153113e+03  5.0789416135100209e+03  4.9654613843138713e+03  4.8445765332080964e+03  4.7191059687804291e+03  4.6085422854433473e+03  4.4878383233143186e+03  4.3698226743256182e+03  4.2518660651070541e+03  4.1333992381307917e+03  4.0113626745216388e+03  3.8998868501026550e+03  3.7763868712486460e+03  3.6630076303982801e+03  3.5425977075306537e+03  3.4258934840491133e+03  3.3063718344827057e+03  3.1932313756315880e+03  3.0707218915441526e+03  2.9532347995055943e+03  2.8389032360295319e+03  2.7143385639426979e+03  2.6038982887284469e+03  2.4830822690432774e+03  2.3605446833103797e+03  2.2491941006832371e+03  2.1271477597728735e+03  2.0039863968884797e+03  1.8912922427829089e+03  1.7700383996577832e+03  1.6548410595173980e+03  1.5381055184872851e+03  1.4160325905355260e+03  1.3045486396733770e+03  1.1824759603786881e+03  1.0601928225975835e+03  9.4662549176734137e+02  8.2230847022417049e+02  7.1004621100452744e+02  5.9303040744912744e+02  4.6874489066696748e+02  3.5644953141271554e+02  2.3526518029896909e+02  1.2152017426261567e+02  -8.5566772114631956e-02  7.3965981415859042e-02  -1.8735605826610574e-02  4.6209256619743838e-03  -2.9171289539294345e-04  1.7945970789917188e-04  -4.1125395382286119e-05  1.5572583330541205e-05  1.9398812441620947e-05  -3.3351035062295496e-07  -2.2342681976668410e-07  2.7008219918437074e-06  -2.5678839489681712e-06  4.7930895655381751e-06  -2.2814153738346878e-05  3.7529632618126336e-06  2.5052146342513398e-05  -2.4294175621088958e-06  1.3557688914702127e-06  -1.2868367037069830e-06  -1.5620106343776719e-07  3.6271313179251183e-06  -1.6187091023585790e-05  9.1486886281223421e-06  4.9190851447947765e-06  4.5708580312245659e-06  -4.9980308974174051e-06  2.5056807805036083e-06  4.6336748460911109e-06  2.6085735328233703e-06  4.9902922958282383e-07  7.9802989940577268e-07  -4.3496165637901814e-08  4.4240556639905555e-07  1.8819181748636140e-06  1.1704245390838566e-07  -6.6738330851671802e-07  1.1229930489647626e-06  3.0338569943149052e-06  2.3972012805207132e-06  -1.2419761218939411e-07  5.4746283189506682e-07  1.1154225970734732e-06  -1.7856869305682299e-06  2.6182261582466073e-06  -9.6710888029515101e-07  -1.8753969451441590e-06  3.2981868528817315e-08  -2.1077812068062214e-06  2.6713570601633084e-06  -9.0290886435324634e-07  2.4221278033711722e-06  7.3995114824179692e-07  2.5313177534102470e-06  -2.6172113243892376e-06  -8.1686344729967902e-07  -4.8513613408208037e-07  3.1644452509655639e-06  9.9915222877824035e-07  -3.6093794535425877e-06  -2.6555138092777610e-06  -1.1615232702704198e-07  2.5180845743957624e-06  4.7486396038102085e-06  3.4155402107717899e-06  8.6369425067869498e-07  3.1892703010465291e-05  1.1997660830020998e-05  -4.2464479710782333e-05  2.2764215662081781e-05  1.4378226447546804e-05  4.4025930063456520e-05  4.4411464520340093e-05  2.1548254791505431e-05  5.0359930974840713e-04  2.0850415969114698e-04  -5.5312060751993414e-04  5.1330325700453441e-04  -3.0072918382395266e-04  6.1573600316470849e-03  -2.0117319033327766e-02  7.3260001989269116e-02  -9.3430681304671567e-02  1.2202212391357807e+02  2.3518435030003667e+02  3.5680306307362946e+02  4.7151742269830351e+02  5.9383088250811250e+02  7.1169327761754789e+02  8.2884590357371405e+02  9.4230886173198860e+02  1.0650746576509123e+03  1.1813059853006430e+03  1.2980957729270217e+03  1.4162634854107826e+03  1.5347801551211389e+03  1.6564858932567543e+03  1.7687010172840742e+03  1.8907285060287752e+03  2.0081565436268475e+03  2.1245202927848859e+03  2.2418454263424337e+03  2.3638655688469385e+03  2.4778972800968322e+03  2.5974234236612565e+03  2.7199864181298685e+03  2.8365089030517483e+03  2.9527545419728613e+03  3.0744989578189761e+03  3.1870716999748042e+03  3.3039581295403864e+03  3.4259268636975498e+03  3.5488727104495201e+03  3.6620270172582145e+03  3.7820878217802397e+03  3.8990883793621679e+03  4.0126894225101087e+03  4.1358181497144433e+03  4.2567829619268505e+03  4.3718894159942947e+03  4.4871893328564429e+03  4.6119346434080180e+03  4.7239281279036777e+03  4.8432741635705197e+03  4.9614965335991365e+03  5.0820041220529993e+03  5.1954924453928006e+03  5.3160602539488327e+03  5.4329395927566266e+03  5.5554866570689273e+03  5.6723910703825777e+03  5.7888360402530316e+03  5.9051583810205620e+03  6.0252518547699119e+03  6.1447296717500631e+03  6.2607033670182491e+03  6.3791468969151056e+03  6.5007000535692541e+03  6.6141427184769200e+03  6.7356893228533991e+03  6.8520668003385308e+03  6.9671849907243586e+03  7.0925866652853074e+03  7.2084318282902286e+03  7.3251415764896828e+03  7.4466445185402745e+03  7.5579840959980329e+03  7.6798788948725905e+03  7.7977665541382676e+03  7.9161284117899258e+03  8.0368189932516170e+03  8.1531088199446058e+03  8.2697130337485487e+03  8.3866737381057083e+03  8.5098195020375915e+03  8.6248342493047512e+03  8.7473082785148272e+03  8.8598586958701471e+03  8.9827438425999389e+03  9.0948563436647346e+03  9.2192547553690347e+03  9.3318823952341427e+03  9.4533111974357653e+03  9.5704766338819245e+03  9.6900413680869769e+03  9.8068425192453942e+03  9.9284355695032973e+03  1.0040009759323677e+04  1.0161819961403566e+04  1.0280334431490017e+04  1.0399088276980918e+04  1.0518492334766293e+04  1.0639203098896260e+04  1.0750931347409580e+04  1.0876893768486823e+04  1.0987438239987776e+04  1.1109093859672335e+04  1.1231775060910082e+04  1.1347287557260308e+04  1.1463837419977825e+04  1.1585596376567724e+04  1.1698936053902802e+04  1.1815721002815491e+04  1.1939147731680621e+04  1.2060764209094445e+04  1.2173402280953500e+04  1.2295116457872322e+04  1.2409468638485701e+04  1.2532769106324002e+04  1.2653540590414375e+04  1.2766851026392518e+04  1.2889302857873639e+04  1.3005301067033079e+04  1.3130364974505150e+04  1.3243065355012823e+04  1.3360713924091529e+04  1.3485791610278480e+04  1.3601542915512162e+04  1.3720824847269705e+04  1.3838592026113949e+04  1.3956953988146717e+04  1.4080258409437931e+04  1.4199073128794369e+04  1.4317047086052711e+04  1.4435912687891072e+04  1.4554069803006980e+04  1.4675202509813465e+04  1.4793898743566122e+04  1.4917307617544999e+04  1.5034870084184386e+04  1.5158703167069300e+04  1.5274360509521061e+04  1.5397859524528894e+04  1.5513714528547993e+04  1.5634084981485028e+04  1.5758784876403774e+04  1.5878605730616458e+04  1.5995978281642474e+04  1.6121134419485472e+04  1.6247189489850394e+04  1.6362245685584334e+04  1.6488660491145274e+04  1.6609766702180194e+04  1.6730397980181664e+04  1.6858284398890486e+04  1.6982431712658308e+04  1.7104853391713135e+04  1.7228462652261118e+04  1.7352914511864208e+04  1.7482682999671382e+04  1.7607339815904030e+04  1.7735006599527303e+04  1.7861514566675447e+04  1.7987114510882890e+04  1.8123921807061874e+04  1.8260558889809563e+04  1.8386094481196262e+04  1.8520309095877939e+04  1.8657871992550401e+04  1.8800808067376514e+04  1.8933338524130453e+04  1.9071524032024405e+04  1.9213672124805886e+04  1.9352841595219594e+04  1.9494907561025135e+04  1.9625930373496431e+04  1.9728614240751609e+04  1.9803638448758862e+04  1.9858112910577678e+04  1.9896888610338028e+04  1.9937256815824538e+04  1.9978242749690926e+04  2.0012734605606624e+04  2.0048001648900172e+04  2.0084650582411348e+04  2.0130671311856964e+04  2.0171729710567328e+04  2.0204907663192993e+04  2.0243553528578268e+04  2.0281933950760820e+04  2.0328268198629437e+04  2.0373459717148911e+04  2.0418496650883597e+04  2.0467026809639632e+04  2.0517046765522897e+04  2.0563381809559145e+04  2.0609688881680282e+04  2.0657155423794749e+04  2.0704365335660863e+04  2.0748645511745257e+04  2.0788493151330611e+04  2.0826931881363536e+04  2.0867828564494888e+04  2.0910842968782159e+04  2.0955187938144383e+04  2.1005176389457709e+04  2.1055319078948145e+04  2.1110364584765430e+04  2.1167111011232093e+04  2.1224777196174662e+04  2.1288988600665383e+04  2.1333626347746642e+04  2.1375591441759672e+04  2.1424437020371697e+04  2.1467822479973725e+04  2.1506329175819665e+04  2.1544615124302083e+04  2.1576452547665915e+04  2.1614538125969550e+04  2.1657343865703926e+04  2.1703918949174949e+04  2.1740826398253765e+04  2.1786950467566901e+04  2.1836345801174310e+04  2.1884734625262216e+04  2.1930582556099715e+04  2.1983881570060563e+04  2.2036097776160186e+04  2.2091043371907006e+04  2.2134276803824068e+04  2.2166210249207426e+04  2.2199475796552793e+04  2.2234009932114146e+04  2.2263550653749895e+04  2.2293767621913663e+04  2.2320861545329601e+04  2.2351180381357899e+04  2.2368212232642185e+04  2.2391361052126325e+04  2.2410289245769312e+04  2.2430708833173754e+04  2.2450846102940686e+04  3.0844925252564557e+04  3.0864597067304447e+04  3.0885786659526701e+04  3.0908664463131328e+04  3.0931273414551146e+04  3.0930366057325413e+04  3.0929712838630465e+04  3.0929215682349837e+04  3.0928767341314699e+04  3.0928375941459464e+04  3.0928047147244841e+04  3.0927758003849387e+04  3.0927532250946355e+04  3.0927347158398905e+04  3.0927220073071079e+04  3.0927141914838467e+04  3.0927111969020210e+04  3.0927131932975088e+04  3.0927196797769939e+04  3.0927297843660228e+04  3.0927445195055992e+04  3.0927635954901758e+04  3.0927851972399098e+04  3.0928100688453043e+04  3.0928388766305336e+04  3.0928689732439445e+04  3.0929027063723915e+04  3.0929397434353876e+04  3.0929765025010322e+04  3.0930149130492890e+04  3.0930564695048262e+04  3.0930982005161968e+04  3.0931406135765217e+04  3.0931823753729735e+04  3.0932265619351616e+04  3.0932675119976167e+04  3.0933091705391242e+04  3.0933499469581075e+04  3.0933887458253550e+04  3.0934278776417017e+04  3.0934638247215204e+04  3.0934994040764563e+04  3.0935311808377730e+04  3.0935640389521297e+04  3.0935932381879473e+04  3.0936199832853337e+04  3.0936462309103725e+04  3.0936695845919174e+04  3.0936922264262761e+04  3.0937122719058269e+04  3.0937323062771080e+04  3.0937504763463432e+04  3.0937668638296829e+04  3.0937836543216046e+04  3.0937996267090875e+04  3.0938141099442171e+04  3.0938290949712755e+04  3.0938439057177271e+04  3.0938584079956050e+04  3.0938730569284649e+04  3.0938883070484688e+04  3.0939039057584450e+04  3.0939205283047748e+04  3.0939367930200795e+04  3.0939550322947674e+04  3.0939736792760741e+04  3.0939929886735252e+04  3.0940139242037945e+04  3.0940356522837719e+04  3.0940586941129153e+04  3.0940829841918730e+04  3.0941077309391258e+04  3.0941357895828609e+04  3.0941631998550263e+04  3.0941936206139922e+04  3.0942249305495843e+04  3.0942571986904171e+04  3.0942905574637385e+04  3.0943266549169086e+04  3.0943633964375291e+04  3.0944019274406441e+04  3.0944420109051422e+04  3.0944833947479281e+04  3.0945272460913056e+04  3.0945693337042576e+04  3.0946162760130966e+04  3.0946658976415296e+04  3.0947139633028582e+04  3.0947629662180163e+04  3.0948154979289739e+04  3.0948669159784371e+04  3.0949221634088535e+04  3.0949750294839345e+04  3.0950323352796437e+04  3.0950908625040407e+04  3.0951480316152229e+04  3.0952064379606676e+04  3.0952678717945288e+04  3.0953277527730970e+04  3.0953887408518396e+04  3.0954514194401279e+04  3.0955143289601718e+04  3.0955797485976331e+04  3.0956415443824677e+04  3.0957082886114527e+04  3.0957756305213989e+04  3.0958392495520184e+04  3.0959079293242710e+04  3.0959772514860975e+04  3.0960445273825731e+04  3.0961161665305688e+04  3.0961837922485127e+04  3.0962559981850438e+04  3.0963274017700925e+04  3.0963982274550974e+04  3.0964690223093297e+04  3.0965416248110410e+04  3.0966126555145100e+04  3.0966810158444925e+04  3.0967539553248258e+04  3.0968248108375348e+04  3.0968901007964101e+04  3.0969554526776377e+04  3.0970217335121913e+04  3.0970811839902301e+04  3.0971405629441211e+04  3.0971972778256193e+04  3.0972534344708813e+04  3.0973040369106024e+04  3.0973508551363608e+04  3.0973950699665904e+04  3.0974350422660522e+04  3.0974725828006278e+04  3.0975049479062880e+04  3.0975346245547589e+04  3.0975591055562727e+04  3.0975799381188317e+04  3.0975976733448439e+04  3.0976098673413955e+04  3.0976192705676640e+04  3.0976248305788889e+04  3.0976266194872547e+04  3.0976245652461959e+04  3.0976189124095068e+04  3.0976103401873806e+04  3.0975981494880845e+04  3.0975833492687292e+04  3.0975657238229665e+04  3.0975467483976441e+04  3.0975243299308440e+04  3.0975009003530668e+04  3.0974757125863453e+04  3.0974496739824361e+04  3.0974224418225414e+04  3.0973949512629952e+04  3.0973672878875943e+04  3.0973398760553475e+04  3.0973140229397392e+04  3.0972874737024329e+04  3.0972630105558888e+04  3.0972395961186798e+04  3.0972189912321097e+04  3.0972002162718880e+04  3.0971829846857698e+04  3.0971696127496398e+04  3.0971585369042910e+04  3.0971513697628710e+04  3.0971472087277580e+04  3.0971469279480418e+04  3.0971507368869869e+04  3.0971583887881763e+04  3.0971710077851218e+04  3.0971879258266927e+04  3.0972088514532541e+04  3.0972353163796914e+04  3.0972678190688919e+04  3.0973036083756706e+04  3.0973429676576252e+04  3.0973902551631403e+04  3.0974419609610894e+04  3.0975071441332006e+04  3.0975983161815122e+04  2.1187737439906854e+04  4.9361923002313260e+03  1.7670478781471276e+04  1.1152545960324287e+04  3.0009521362737614e+04  2.1858829413271622e+04  2.2140682267906013e+04  1.4460988705915597e+04  8.0752921783696484e+03  8.4227921481338381e+03  1.5113712545624900e+04  2.0041520951282739e+04  1.9938586752219118e+04  2.8879127661321768e+03  2.8895971327534680e+03  3.0587176886492503e+04  3.0647721905620190e+04  1.2541034329776070e+04  2.2331642413014244e+04  3.0666645227185869e+04  5.9456110334103969e+03  1.2111484000308252e+04  1.6804077755064820e+04  5.7096435489297028e+03  2.1065476102890632e+04  2.8730113362849810e+04  1.7512713253450642e+04  1.0155223559641519e+04  2.1688158365784548e+03  1.3247621364648914e+04  6.9603336596754179e+03  1.0122819772732211e+04  3.0752541842749826e+04  3.0745326218201841e+04  3.0788154442643012e+04  1.8685973937260616e+04  2.0259620107844661e+04  1.5807378679119731e+04  9.2640843841832448e+03  1.5112844580063052e+04  4.3311433392670151e+03  7.3463863401159051e+03  2.9820941192176699e+04  1.4061148683946820e+04  1.9183942441676765e+04  3.0774859011209857e+04  7.4894133534901530e+03  3.0778317464065840e+04  3.0734823546014501e+04  4.1791766060564887e+03  2.1532519874571608e+04  2.1499816105905084e+04  1.6004232613505681e+04  1.6709577578169433e+03  1.6906548380817726e+03  2.9893239220521333e+04  2.0344113568483626e+04  2.0355747636720924e+04  1.3473538554517632e+04  1.8582897031822060e+04  1.8573083613692954e+04  4.4314164905473544e+03  1.0188059211144298e+04  4.3894487114247122e+03  2.0725695889631599e+04  2.0812447005072834e+04  3.0828163763088713e+04  3.0785325866598105e+04  8.8564708669047359e+03  1.1459067951353338e+04  1.5223093579398717e+03  1.5198640594220701e+03  6.0971336463321240e+03  1.1224750044879356e+04  1.2994074578801323e+04  1.6781119777199343e+04  1.9064203410695754e+04  2.9428041093217420e+04  3.0802236042944489e+04  2.1416661435293547e+04  3.0819078510220133e+04  2.2024481873765264e+04  3.5524784008276110e+03  8.8622549030957834e+03  1.1344554361740380e+04  1.3731626817487237e+04  9.4081112609942611e+03  1.6761836238697008e+04  3.0254829482600790e+03  1.4574074247018238e+04  5.8404845804280994e+03  7.0829754561364944e+03  1.7456165197213268e+04  1.2779452266004606e+04  5.5458098658367471e+03  3.0434921030111793e+04  3.0531709645255090e+04  2.9