<?xml version="1.0"?>
<VTKFile type="UnstructuredGrid"  version="0.1"  >
<UnstructuredGrid>
<Piece  NumberOfPoints="29979" NumberOfCells="59225">
<Points>
<DataArray  type="Float64"  NumberOfComponents="3"  format="ascii">0 0 0  0.7 0 0  0.7 0.25 0  0 0.25 0  0.002991452991447148 0 0  0.005982905982894296 0 0  0.008974358974341432 0 0  0.0119658119657887 0 0  0.0149572649572362 0 0  0.01794871794868352 0 0  0.02094017094013065 0 0  0.02393162393157728 0 0  0.02692307692302367 0 0  0.02991452991446975 0 0  0.03290598290591576 0 0  0.03589743589736141 0 0  0.03888888888880721 0 0  0.04188034188025361 0 0  0.04487179487170056 0 0  0.04786324786314844 0 0  0.05085470085459671 0 0  0.05384615384604534 0 0  0.05683760683749394 0 0  0.05982905982894257 0 0  0.06282051282039053 0 0  0.06581196581183844 0 0  0.06880341880328707 0 0  0.07179487179473568 0 0  0.0747863247861843 0 0  0.07777777777763231 0 0  0.08076923076907945 0 0  0.08376068376052657 0 0  0.08675213675197373 0 0  0.08974358974341974 0 0  0.09273504273486541 0 0  0.0957264957263097 0 0  0.09871794871775386 0 0  0.101709401709198 0 0  0.1047008547006426 0 0  0.1076923076920882 0 0  0.1106837606835339 0 0  0.1136752136749795 0 0  0.1166666666664243 0 0  0.1196581196578685 0 0  0.1226495726493126 0 0  0.1256410256407568 0 0  0.1286324786322038 0 0  0.1316239316236509 0 0  0.1346153846150981 0 0  0.1376068376065443 0 0  0.1405982905979885 0 0  0.1435897435894326 0 0  0.1465811965808768 0 0  0.149572649572321 0 0  0.1525641025637651 0 0  0.1555555555552093 0 0  0.1585470085466535 0 0  0.1615384615380976 0 0  0.1645299145295418 0 0  0.167521367520986 0 0  0.1705128205124302 0 0  0.1735042735038743 0 0  0.1764957264953185 0 0  0.1794871794867627 0 0  0.1824786324782068 0 0  0.185470085469651 0 0  0.1884615384610951 0 0  0.1914529914525394 0 0  0.1944444444439835 0 0  0.1974358974354277 0 0  0.2004273504268719 0 0  0.203418803418316 0 0  0.2064102564097602 0 0  0.2094017094012044 0 0  0.2123931623926485 0 0  0.2153846153840948 0 0  0.2183760683755419 0 0  0.221367521366989 0 0  0.2243589743584361 0 0  0.2273504273498802 0 0  0.2303418803413244 0 0  0.2333333333327685 0 0  0.2363247863242127 0 0  0.2393162393156569 0 0  0.2423076923071011 0 0  0.2452991452985452 0 0  0.2482905982899894 0 0  0.2512820512814336 0 0  0.2542735042728778 0 0  0.257264957264322 0 0  0.2602564102557661 0 0  0.2632478632472102 0 0  0.2662393162386544 0 0  0.2692307692300986 0 0  0.2722222222215427 0 0  0.275213675212987 0 0  0.2782051282044311 0 0  0.2811965811958753 0 0  0.2841880341873195 0 0  0.2871794871787636 0 0  0.2901709401702077 0 0  0.2931623931616519 0 0  0.2961538461530961 0 0  0.2991452991445402 0 0  0.3021367521359845 0 0  0.3051282051274286 0 0  0.3081196581188728 0 0  0.311111111110317 0 0  0.3141025641017611 0 0  0.3170940170932053 0 0  0.3200854700846494 0 0  0.3230769230760936 0 0  0.3260683760675378 0 0  0.329059829058982 0 0  0.3320512820504261 0 0  0.3350427350418703 0 0  0.3380341880333145 0 0  0.3410256410247586 0 0  0.3440170940162028 0 0  0.3470085470076519 0 0  0.349999999999102 0 0  0.3529914529905639 0 0  0.3559829059820259 0 0  0.3589743589734879 0 0  0.3619658119649478 0 0  0.3649572649564038 0 0  0.3679487179478629 0 0  0.3709401709393249 0 0  0.3739316239307868 0 0  0.3769230769222488 0 0  0.3799145299137108 0 0  0.3829059829051727 0 0  0.3858974358966347 0 0  0.3888888888880954 0 0  0.3918803418795516 0 0  0.3948717948710098 0 0  0.3978632478624717 0 0  0.4008547008539337 0 0  0.4038461538453956 0 0  0.4068376068368576 0 0  0.4098290598283196 0 0  0.4128205128197816 0 0  0.4158119658112431 0 0  0.4188034188026991 0 0  0.4217948717941565 0 0  0.4247863247856185 0 0  0.4277777777770805 0 0  0.4307692307685425 0 0  0.4337606837600044 0 0  0.4367521367514663 0 0  0.4397435897429283 0 0  0.4427350427343902 0 0  0.4457264957258523 0 0  0.4487179487173142 0 0  0.4517094017087763 0 0  0.4547008547002366 0 0  0.4576923076916926 0 0  0.4606837606831512 0 0  0.4636752136746133 0 0  0.4666666666660752 0 0  0.4696581196575372 0 0  0.4726495726489991 0 0  0.475641025640461 0 0  0.4786324786319231 0 0  0.4816239316233843 0 0  0.4846153846148403 0 0  0.4876068376062981 0 0  0.4905982905977601 0 0  0.493589743589222 0 0  0.4965811965806841 0 0  0.4995726495721421 0 0  0.5025641025635983 0 0  0.5055555555550543 0 0  0.5085470085465102 0 0  0.5115384615379662 0 0  0.5145299145294223 0 0  0.5175213675208784 0 0  0.5205128205123384 0 0  0.5235042735038061 0 0  0.5264957264952741 0 0  0.529487179486742 0 0  0.5324786324782019 0 0  0.5354700854696579 0 0  0.538461538461114 0 0  0.54145299145257 0 0  0.544444444444026 0 0  0.5474358974354843 0 0  0.5504273504269522 0 0  0.5534188034184201 0 0  0.5564102564098879 0 0  0.5594017094013496 0 0  0.5623931623928056 0 0  0.5653846153842615 0 0  0.5683760683757176 0 0  0.5713675213671737 0 0  0.5743589743586304 0 0  0.5773504273500981 0 0  0.5803418803415661 0 0  0.5833333333330341 0 0  0.5863247863244972 0 0  0.5893162393159533 0 0  0.5923076923074093 0 0  0.5952991452988653 0 0  0.5982905982903213 0 0  0.6012820512817775 0 0  0.6042735042732442 0 0  0.6072649572647121 0 0  0.6102564102561799 0 0  0.6132478632476449 0 0  0.6162393162391009 0 0  0.619230769230557 0 0  0.6222222222220131 0 0  0.625213675213469 0 0  0.6282051282049251 0 0  0.6311965811963901 0 0  0.6341880341878581 0 0  0.637179487179326 0 0  0.6401709401707926 0 0  0.6431623931622487 0 0  0.6461538461537046 0 0  0.6491452991451606 0 0  0.6521367521366167 0 0  0.6551282051280728 0 0  0.6581196581195362 0 0  0.6611111111110041 0 0  0.6641025641024719 0 0  0.6670940170939399 0 0  0.6700854700853962 0 0  0.6730769230768523 0 0  0.6760683760683084 0 0  0.6790598290597644 0 0  0.6820512820512205 0 0  0.6850427350426822 0 0  0.6880341880341501 0 0  0.691025641025618 0 0  0.6940170940170859 0 0  0.697008547008544 0 0  0.7 0.002976190476184849 0  0.7 0.005952380952369731 0  0.7 0.008928571428554169 0  0.7 0.0119047619047381 0  0.7 0.01488095238092216 0  0.7 0.01785714285710736 0  0.7 0.02083333333329328 0  0.7 0.02380952380947921 0  0.7 0.02678571428566513 0  0.7 0.02976190476185089 0  0.7 0.03273809523803475 0  0.7 0.03571428571421671 0  0.7 0.0386904761903985 0  0.7 0.04166666666658028 0  0.7 0.04464285714276207 0  0.7 0.04761904761894387 0  0.7 0.05059523809512566 0  0.7 0.05357142857130745 0  0.7 0.05654761904748924 0  0.7 0.05952380952367103 0  0.7 0.06249999999985282 0  0.7 0.06547619047603462 0  0.7 0.06845238095221641 0  0.7 0.0714285714283982 0  0.7 0.07440476190457998 0  0.7 0.07738095238076177 0  0.7 0.08035714285694356 0  0.7 0.08333333333312536 0  0.7 0.08630952380930715 0  0.7 0.08928571428548893 0  0.7 0.09226190476167072 0  0.7 0.09523809523785251 0  0.7 0.0982142857140343 0  0.7 0.1011904761902161 0  0.7 0.1041666666663979 0  0.7 0.1071428571425797 0  0.7 0.1101190476187615 0  0.7 0.1130952380949433 0  0.7 0.1160714285711251 0  0.7 0.1190476190473068 0  0.7 0.1220238095234886 0  0.7 0.1249999999996731 0  0.7 0.1279761904758688 0  0.7 0.1309523809520671 0  0.7 0.1339285714282654 0  0.7 0.1369047619044637 0  0.7 0.1398809523806621 0  0.7 0.1428571428568604 0  0.7 0.1458333333330587 0  0.7 0.148809523809257 0  0.7 0.1517857142854553 0  0.7 0.1547619047616537 0  0.7 0.157738095237852 0  0.7 0.1607142857140503 0  0.7 0.1636904761902486 0  0.7 0.1666666666664469 0  0.7 0.1696428571426453 0  0.7 0.1726190476188436 0  0.7 0.1755952380950419 0  0.7 0.1785714285712403 0  0.7 0.1815476190474386 0  0.7 0.1845238095236369 0  0.7 0.1874999999998352 0  0.7 0.1904761904760336 0  0.7 0.1934523809522318 0  0.7 0.1964285714284301 0  0.7 0.1994047619046285 0  0.7 0.2023809523808268 0  0.7 0.2053571428570251 0  0.7 0.2083333333332235 0  0.7 0.2113095238094218 0  0.7 0.2142857142856201 0  0.7 0.2172619047618184 0  0.7 0.2202380952380167 0  0.7 0.2232142857142151 0  0.7 0.2261904761904134 0  0.7 0.2291666666666117 0  0.7 0.23214285714281 0  0.7 0.2351190476190084 0  0.7 0.2380952380952067 0  0.7 0.241071428571405 0  0.7 0.2440476190476034 0  0.7 0.2470238095238017 0  0.6970085470085443 0.25 0  0.6940170940170907 0.25 0  0.6910256410256468 0.25 0  0.6880341880342071 0.25 0  0.6850427350427751 0.25 0  0.682051282051337 0.25 0  0.6790598290598933 0.25 0  0.6760683760684413 0.25 0  0.6730769230769856 0.25 0  0.6700854700855299 0.25 0  0.6670940170940746 0.25 0  0.6641025641026308 0.25 0  0.6611111111111894 0.25 0  0.6581196581197574 0.25 0  0.655128205128321 0.25 0  0.6521367521368772 0.25 0  0.6491452991454268 0.25 0  0.6461538461539712 0.25 0  0.6431623931625156 0.25 0  0.6401709401710598 0.25 0  0.6371794871796147 0.25 0  0.6341880341881716 0.25 0  0.6311965811967397 0.25 0  0.6282051282053049 0.25 0  0.6252136752138612 0.25 0  0.6222222222224125 0.25 0  0.6192307692309569 0.25 0  0.6162393162395011 0.25 0  0.6132478632480455 0.25 0  0.6102564102565987 0.25 0  0.6072649572651548 0.25 0  0.604273504273722 0.25 0  0.601282051282289 0.25 0  0.5982905982908451 0.25 0  0.5952991452993981 0.25 0  0.5923076923079424 0.25 0  0.5893162393164868 0.25 0  0.5863247863250312 0.25 0  0.5833333333335826 0.25 0  0.5803418803421388 0.25 0  0.5773504273507043 0.25 0  0.5743589743592723 0.25 0  0.5713675213678291 0.25 0  0.5683760683763838 0.25 0  0.5653846153849281 0.25 0  0.5623931623934725 0.25 0  0.5594017094020167 0.25 0  0.5564102564105666 0.25 0  0.5534188034191229 0.25 0  0.5504273504276866 0.25 0  0.5474358974362546 0.25 0  0.5444444444448131 0.25 0  0.5414529914533692 0.25 0  0.5384615384619138 0.25 0  0.535470085470458 0.25 0  0.5324786324790024 0.25 0  0.5294871794875506 0.25 0  0.5264957264961068 0.25 0  0.5235042735046689 0.25 0  0.520512820513237 0.25 0  0.5175213675217971 0.25 0  0.5145299145303532 0.25 0  0.5115384615388994 0.25 0  0.5085470085474437 0.25 0  0.5055555555559881 0.25 0  0.5025641025645347 0.25 0  0.4995726495730908 0.25 0  0.4965811965816491 0.25 0  0.4935897435902112 0.25 0  0.490598290598767 0.25 0  0.4876068376073173 0.25 0  0.4846153846158634 0.25 0  0.481623931624407
[...]
<PointData  Scalars="pressure"> 
<DataArray  type="Float64"  Name="pressure"  format="ascii">3.4746421298550747e+04  3.8300110526684943e+00  3.8915611128556487e+00  3.4756099627871874e+04  3.4721940494920062e+04  3.4698978714916353e+04  3.4677647185554561e+04  3.4657792375821227e+04  2.5228134454607691e+04  2.5207665618546951e+04  2.5186762477494249e+04  2.5167358548747528e+04  2.5143562178707583e+04  2.5126353429728832e+04  2.5096201758957872e+04  2.5069121481286831e+04  2.5038706982068459e+04  2.5008611144329647e+04  2.4974158934509607e+04  2.4943292859438781e+04  2.4914624139905107e+04  2.4875486697891454e+04  2.4825299779483572e+04  2.4776447807976518e+04  2.4724352826259077e+04  2.4677670819555457e+04  2.4626715512593641e+04  2.4574356893168235e+04  2.4526292586654054e+04  2.4489047319044032e+04  2.4442749867037197e+04  2.4398048057979999e+04  2.4350975510210868e+04  2.4285885236322749e+04  2.4175165858902437e+04  2.4055100791156397e+04  2.3919534888489612e+04  2.3781510893206734e+04  2.3648414418896940e+04  2.3514585980476299e+04  2.3382067026835630e+04  2.3255021659554750e+04  2.3126002774628218e+04  2.2998915285492643e+04  2.2873904427844485e+04  2.2744608206823908e+04  2.2625398219470710e+04  2.2502637709852221e+04  2.2379490474018105e+04  2.2251768581664997e+04  2.2129626015184556e+04  2.2006524742389942e+04  2.1891207966467660e+04  2.1762840432277484e+04  2.1649055910987481e+04  2.1524800127413291e+04  2.1404676756090601e+04  2.1286915674906162e+04  2.1167873550406548e+04  2.1042327751307119e+04  2.0929813205419407e+04  2.0806708708385693e+04  2.0683318258534789e+04  2.0567650896988613e+04  2.0451383179771801e+04  2.0327929445261096e+04  2.0208660876290447e+04  2.0095219964303593e+04  1.9972388685311176e+04  1.9855053880854754e+04  1.9738024779747469e+04  1.9619761975899630e+04  1.9494273232492913e+04  1.9380423422439086e+04  1.9263782154146222e+04  1.9146109247620840e+04  1.9025560403282296e+04  1.8907800264198671e+04  1.8784004421371694e+04  1.8664629590714645e+04  1.8547350825385536e+04  1.8435103700041207e+04  1.8313304820133675e+04  1.8195839484556123e+04  1.8076547495996398e+04  1.7959526527771628e+04  1.7840908199806425e+04  1.7724303111119745e+04  1.7601937921154298e+04  1.7488529869372018e+04  1.7364529279079634e+04  1.7247397788319486e+04  1.7132996705226153e+04  1.7012836954612128e+04  1.6895004653521923e+04  1.6773425491167254e+04  1.6660617935450591e+04  1.6535842782225485e+04  1.6424302979516287e+04  1.6305695868156965e+04  1.6182002624384379e+04  1.6070345480841623e+04  1.5948272979896843e+04  1.5826683147079519e+04  1.5716429943554100e+04  1.5594302621866649e+04  1.5471933437593178e+04  1.5361565346425736e+04  1.5237831453867975e+04  1.5121618936910532e+04  1.5005667698314939e+04  1.4883042421458422e+04  1.4765640983936051e+04  1.4653086499675099e+04  1.4528883553901174e+04  1.4415798043348377e+04  1.4292534230347877e+04  1.4170718513458653e+04  1.4058694937075054e+04  1.3936536863715284e+04  1.3821941570900357e+04  1.3700173652660114e+04  1.3587310310028010e+04  1.3465576543858186e+04  1.3354580975590501e+04  1.3227849586681725e+04  1.3116429268981838e+04  1.2995667428762539e+04  1.2876554382506141e+04  1.2758160835062088e+04  1.2639640556324586e+04  1.2518701411534701e+04  1.2408751420812378e+04  1.2289596806026775e+04  1.2165778720476259e+04  1.2045105487318939e+04  1.1932394002147876e+04  1.1813420485146893e+04  1.1696454040025876e+04  1.1574611336407233e+04  1.1462035641189383e+04  1.1337859222284354e+04  1.1220567006652062e+04  1.1100571006966440e+04  1.0988682675141104e+04  1.0866213511502174e+04  1.0749289584019927e+04  1.0632249600834151e+04  1.0516831702537902e+04  1.0395860574587843e+04  1.0279510485422654e+04  1.0157900104552145e+04  1.0040776404936474e+04  9.9212860528347683e+03  9.8054552948805631e+03  9.6851221476698811e+03  9.5687306921084091e+03  9.4518656614328211e+03  9.3343202274949745e+03  9.2176802177206682e+03  9.0988062622560446e+03  8.9762077427839504e+03  8.8633490909101329e+03  8.7403548564515204e+03  8.6184181408621080e+03  8.5067784035475070e+03  8.3877993466041935e+03  8.2701490024365921e+03  8.1479364188951477e+03  8.0349098392048772e+03  7.9112491053826952e+03  7.7976546677649030e+03  7.6815795097722903e+03  7.5580556745785480e+03  7.4458211935993349e+03  7.3215051226347769e+03  7.2036350163445168e+03  7.0885173773810011e+03  6.9717460362916199e+03  6.8495823703004207e+03  6.7322582749491221e+03  6.6116137421703825e+03  6.4996536369092319e+03  6.3827583331758779e+03  6.2593288989805314e+03  6.1379157704727368e+03  6.0248340189978207e+03  5.9077966405424668e+03  5.7888564602235665e+03  5.6719225698593791e+03  5.5552111076701867e+03  5.4326481447687074e+03  5.3160518700648208e+03  5.1964194020580662e+03  5.0795267251866462e+03  4.9660248298440438e+03  4.8451176052691453e+03  4.7196245069724591e+03  4.6090415508774549e+03  4.4883172309755673e+03  4.3702822503905199e+03  4.2523069203570612e+03  4.1338218586484172e+03  4.0117670589102781e+03  3.9002750711156332e+03  3.7767577038770933e+03  3.6633629407605440e+03  3.5429370608241961e+03  3.4262177317008186e+03  3.3066810777581036e+03  3.1935267895444822e+03  3.0710027844131687e+03  2.9535020296820471e+03  2.8391575922850066e+03  2.7145792149181402e+03  2.6041270831311790e+03  2.4832984175899423e+03  2.3607482905333850e+03  2.2493865702829212e+03  2.1273282911271485e+03  2.0041551297481728e+03  1.8914503876375675e+03  1.7701853817370218e+03  1.6549776199931187e+03  1.5382317053347206e+03  1.4161480992733957e+03  1.3046545433210172e+03  1.1825714958863116e+03  1.0602781042548083e+03  9.4670135939011459e+02  8.2237414498992166e+02  7.1010275711494774e+02  5.9307752345384233e+02  4.6878205378195378e+02  3.5647774680387715e+02  2.3528378243133503e+02  1.2152977594124999e+02  -8.5573753080435522e-02  7.3969989283035137e-02  -1.8738286649278114e-02  4.6230239490559115e-03  -2.9205285969932708e-04  1.8007337616780857e-04  -4.4358972255903246e-05  1.6474041889070272e-05  2.5240081609522324e-05  -5.5594355650605906e-07  -4.2736423917451354e-08  3.5420050781291574e-06  -3.1783080848535278e-06  5.9779468260850051e-06  -2.9268435907536407e-05  4.5740729077761389e-06  3.3048864552373098e-05  -3.5267835639594864e-06  1.3754723361114729e-06  -2.1931710620752931e-06  -9.7070659957956259e-07  5.4209553383436521e-06  -2.7527056318771284e-05  1.6174119571908762e-05  8.4440918011892030e-06  9.2713794629864776e-06  -1.2931389998552794e-05  5.5281364096770731e-06  1.4584524386604866e-05  9.6802705746399356e-06  7.8992146177260752e-07  4.1910053314448949e-06  -6.3649427067601930e-06  -2.0274261048002908e-06  -1.9153303852706140e-05  9.7220698453542002e-07  3.5088425275626560e-06  -2.6095435043068246e-06  -7.4652085144756821e-06  -4.2888305458976852e-06  1.1244710393979535e-06  -4.5011583230601731e-07  -1.3586269926400508e-06  3.0762901852910799e-06  -3.7708865117313829e-06  1.6759673428780433e-06  2.7891081344750811e-06  1.1125324607279996e-08  2.9465508331395624e-06  -3.8241557028097281e-06  1.2327512827459220e-06  -3.5834823617046424e-06  -1.2061988246766311e-06  -3.8907859777319884e-06  3.9800395763497192e-06  1.3406428728718210e-06  8.1997128829170832e-07  -4.1802217100253597e-06  -6.9644537979592106e-07  3.7938162166079274e-06  1.9692081320509537e-06  4.5386544254689980e-07  1.5749358829672825e-06  2.1833150391715809e-06  3.1876183123712974e-06  1.5769807687445718e-06  2.2870147890543653e-05  1.1111457183302312e-05  -3.5254589227534648e-05  2.1425333522746946e-05  1.5061500038453166e-05  4.3065325683920271e-05  4.4179415064865953e-05  2.1802966994423932e-05  4.9690698459411270e-04  2.0750960375701133e-04  -5.4962566761929555e-04  5.1247775216421525e-04  -3.0029650420948457e-04  6.1548801235609407e-03  -2.0114311583817972e-02  7.3256107204190221e-02  -9.3422806921095142e-02  1.2201216056583564e+02  2.3516513195900669e+02  3.5677386950300468e+02  4.7147877730409954e+02  5.9378209936462383e+02  7.1163465522598847e+02  8.2877741471460865e+02  9.4223071912200874e+02  1.0649859363009455e+03  1.1812071283151854e+03  1.2979866055273544e+03  1.4161436848260726e+03  1.5346495387127636e+03  1.6563439562412154e+03  1.7685484385850739e+03  1.8905641234475042e+03  2.0079805534041157e+03  2.1243325299215794e+03  2.2416455455147488e+03  2.3636527465475701e+03  2.4776720607395414e+03  2.5971848488947585e+03  2.7197337878363069e+03  2.8362425446982415e+03  2.9524740288558783e+03  3.0742032614462196e+03  3.1867615064548972e+03  3.3036323901944115e+03  3.4255844140186155e+03  3.5485128678908422e+03  3.6616506552303458e+03  3.7816932343254412e+03  3.8986755954800883e+03  4.0122582250240534e+03  4.1353663472001181e+03  4.2563102181296008e+03  4.3713959833761246e+03  4.4866744385624797e+03  4.6113956594224719e+03  4.7233667538715563e+03  4.8426880287517952e+03  4.9608848011550390e+03  5.0813655586321147e+03  5.1948274724589583e+03  5.3153661720375503e+03  5.4322161538073860e+03  5.5547312680817440e+03  5.6716038875028535e+03  5.7880162613045368e+03  5.9043041805734010e+03  6.0243611147338243e+03  6.1438009875569878e+03  6.2597360657510553e+03  6.3781389953395428e+03  6.4996484687332259e+03  6.6130487033470381e+03  6.7345479330352136e+03  6.8508781708693441e+03  6.9659475063557611e+03  7.0912938326075327e+03  7.2070855269778285e+03  7.3237393045739200e+03  7.4451812628344533e+03  7.5564625323370101e+03  7.6782908006251782e+03  7.7961107834193399e+03  7.9144024814015620e+03  8.0350174808505963e+03  8.1512323136425384e+03  8.2677565011026018e+03  8.3846341982608774e+03  8.5076883120053790e+03  8.6226134978366117e+03  8.7449877120751353e+03  8.8574420817028440e+03  8.9802175709010990e+03  9.0922252847174786e+03  9.2165018993765516e+03  9.3290141183015476e+03  9.4503124954310097e+03  9.5673452952192038e+03  9.6867693302591506e+03  9.8034254965122309e+03  9.9248602354451832e+03  1.0036281948727994e+04  1.0157917392868643e+04  1.0276253477358860e+04  1.0394819248374108e+04  1.0514024459057149e+04  1.0634524046046043e+04  1.0746046242173394e+04  1.0871764752735498e+04  1.0982084278184020e+04  1.1103478454801520e+04  1.1225882384991619e+04  1.1341118934685284e+04  1.1457376798669407e+04  1.1578813073560495e+04  1.1691836531041619e+04  1.1808276431399354e+04  1.1931319103590622e+04  1.2052536120754196e+04  1.2164782815298227e+04  1.2286050294855471e+04  1.2399957508167037e+04  1.2522750974404209e+04  1.2642998262727007e+04  1.2755786409294164e+04  1.2877640862194723e+04  1.2993038631456999e+04  1.3117416962647079e+04  1.3229464624309263e+04  1.3346384454398558e+04  1.3470642827301806e+04  1.3585592705071436e+04  1.3703982209032778e+04  1.3820834073570888e+04  1.3938203143240957e+04  1.4060410525565461e+04  1.4178103872094103e+04  1.4294877544534020e+04  1.4412484826463797e+04  1.4529268281900881e+04  1.4648931588699239e+04  1.4766078083305867e+04  1.4887767364062918e+04  1.5003578936603482e+04  1.5125444595463316e+04  1.5239137058467095e+04  1.5360390765904134e+04  1.5473993345909028e+04  1.5591855714941408e+04  1.5713777620646462e+04  1.5830710601551125e+04  1.5945088351617000e+04  1.6066787340147446e+04  1.6189116445361635e+04  1.6300520521421102e+04  1.6422619543897345e+04  1.6539261568235983e+04  1.6655136443055453e+04  1.6777576693407224e+04  1.6895974729435020e+04  1.7012439366272738e+04  1.7129353130598662e+04  1.7246670367702704e+04  1.7368361449405285e+04  1.7484579515648089e+04  1.7603003070136252e+04  1.7719555072594132e+04  1.7834392530847563e+04  1.7958578325769984e+04  1.8081562071445751e+04  1.8193551291003336e+04  1.8311900118625912e+04  1.8432168573640403e+04  1.8555612924251349e+04  1.8668942919010336e+04  1.8785725978494869e+04  1.8905331714414344e+04  1.9022545799808129e+04  1.9144136740491715e+04  1.9262130799319933e+04  1.9378069436022364e+04  1.9494431614908572e+04  1.9619890016922800e+04  1.9734854693450721e+04  1.9855771221127427e+04  1.9977651626170500e+04  2.0089833244756850e+04  2.0210716495209581e+04  2.0328097606389445e+04  2.0451113642972348e+04  2.0570272763194327e+04  2.0687691729253525e+04  2.0810455249653471e+04  2.0923543331991714e+04  2.1046218733178670e+04  2.1166503832703092e+04  2.1284029987834459e+04  2.1403877119796289e+04  2.1528106745695313e+04  2.1642748290922438e+04  2.1767293984478445e+04  2.1888418447654785e+04  2.2006995652183366e+04  2.2128384061429850e+04  2.2253464089104687e+04  2.2368341053562945e+04  2.2495171502309968e+04  2.2623682617743798e+04  2.2744900438712739e+04  2.2872841957792469e+04  2.2994154848486764e+04  2.3121787545979765e+04  2.3250660550402132e+04  2.3377298909636698e+04  2.3509354824308262e+04  2.3642738208497278e+04  2.3775449631104257e+04  2.3913188382393539e+04  2.4048622708646646e+04  2.4168642298461211e+04  2.4279282870803483e+04  2.4343989410444465e+04  2.4390050210944559e+04  2.4433257575858304e+04  2.4477933150615649e+04  2.4513948067588346e+04  2.4560443217194352e+04  2.4611073236806678e+04  2.4660887687995539e+04  2.4708085684229594e+04  2.4762784981348283e+04  2.4816193188368081e+04  2.4872199134149974e+04  2.4916156381095643e+04  2.4948546616358963e+04  2.4982237782509601e+04  2.5017174000771734e+04  2.5047035796040505e+04  2.5077552205498090e+04  2.5104900531788924e+04  2.5135472217985091e+04  2.5152630288490505e+04  2.5175920579323149e+04  2.5194939839110397e+04  2.5215445643114996e+04  2.5235643434005451e+04  3.4667825050813342e+04  3.4687531308780533e+04  3.4708747789643836e+04  3.4731641511171052e+04  3.4754255623983452e+04  3.4753351721925959e+04  3.4752703943915491e+04  3.4752215074799620e+04  3.4751777546443052e+04  3.4751399490419812e+04  3.4751086131949378e+04  3.4750815474697076e+04  3.4750609916639172e+04  3.4750448483795510e+04  3.4750346428539662e+04  3.4750296197726493e+04  3.4750295576780838e+04  3.4750346558942874e+04  3.4750446280371922e+04  3.4750581949958483e+04  3.4750766867009239e+04  3.4750998424231671e+04  3.4751255019850214e+04  3.4751545567172005e+04  3.4751878431115867e+04  3.4752223398536109e+04  3.4752607452225806e+04  3.4753027148430898e+04  3.4753442339201196e+04  3.4753874875882902e+04  3.4754341967451270e+04  3.4754810418937384e+04  3.4755286236299013e+04  3.4755754580380650e+04  3.4756250142134886e+04  3.4756709593692147e+04  3.4757177346471333e+04  3.4757635399298008e+04  3.4758071597310227e+04  3.4758511728411868e+04  3.4758916099454480e+04  3.4759316193603489e+04  3.4759672976664435e+04  3.4760041049222746e+04  3.4760366855886015e+04  3.4760663209721599e+04  3.4760951447542669e+04  3.4761204575776719e+04  3.4761445711299522e+04  3.4761654013497115e+04  3.4761856005311711e+04  3.4762032513347527e+04  3.4762183387224235e+04  3.4762329157662818e+04  3.4762458364814993e+04  3.4762565855371817e+04  3.4762666578592412e+04  3.4762754573460872e+04  3.4762832242527191e+04  3.4762901435671884e+04  3.4762962253960846e+04  3.4763018255501083e+04  3.4763069026659665e+04  3.4763112533522697e+04  3.4763155307136039e+04  3.4763193756845802e+04  3.4763229972710964e+04  3.4763264675975188e+04  3.4763298594593158e+04  3.4763331713594482e+04  3.4763364860463284e+04  3.4763397246060689e+04  3.4763432870848876e+04  3.4763467051040410e+04  3.4763504431726411e+04  3.4763542700042417e+04  3.4763582071172903e+04  3.4763622782142389e+04  3.4763666965230470e+04  3.4763712039301368e+04  3.4763759455931402e+04  3.4763808874764502e+04  3.4763859911640844e+04  3.4763913893489756e+04  3.4763965494624135e+04  3.4764022489035640e+04  3.4764082045825831e+04  3.4764138828733856e+04  3.4764195357672616e+04  3.4764254361676161e+04  3.4764310066961312e+04  3.4764367525880909e+04  3.4764419730801324e+04  3.4764472953354525e+04  3.4764523785722427e+04  3.4764568880950268e+04  3.4764611717934284e+04  3.4764651157255525e+04  3.4764685703873220e+04  3.4764715195935423e+04  3.4764740547376990e+04  3.4764761926034225e+04  3.4764778782563677e+04  3.4764790818636378e+04  3.4764799658719436e+04  3.4764805274326980e+04  3.4764807848683042e+04  3.4764808077820679e+04  3.4764806323678138e+04  3.4764803289442825e+04  3.4764798395297032e+04  3.4764792484940772e+04  3.4764784488262820e+04  3.4764774023922451e+04  3.4764760933361358e+04  3.4764744300990438e+04  3.4764720753615562e+04  3.4764692245515143e+04  3.4764654724256834e+04  3.4764604276443257e+04  3.4764542046484290e+04  3.4764471174278726e+04  3.4764377992546550e+04  3.4764267389687026e+04  3.4764143245177591e+04  3.4763992413382701e+04  3.4763816577705889e+04  3.4763608925521614e+04  3.4763386981683245e+04  3.4763132283708903e+04  3.4762854359336307e+04  3.4762543604435268e+04  3.4762195267039846e+04  3.4761830311420184e+04  3.4761418595449810e+04  3.4761002593028439e+04  3.4760528434626314e+04  3.4760043494783793e+04  3.4759542246765202e+04  3.4758976237502415e+04  3.4758375130310727e+04  3.4757783017656424e+04  3.4757182830860962e+04  3.4756521016242179e+04  3.4755873686811632e+04  3.4755173808239415e+04  3.4754478566151047e+04  3.4753755171688987e+04  3.4753065986542184e+04  3.4752322122502781e+04  3.4751596234355398e+04  3.4750867388017949e+04  3.4750139306958597e+04  3.4749420001502644e+04  3.4748707882957227e+04  3.4748006938408136e+04  3.4747325865006482e+04  3.4746687961149961e+04  3.4746034089310575e+04  3.4745426192332874e+04  3.4744836890826744e+04  3.4744303427789215e+04  3.4743795563225154e+04  3.4743302720387670e+04  3.4742883917556195e+04  3.4742486875055991e+04  3.4742162043813856e+04  3.4741863607523272e+04  3.4741631748479551e+04  3.4741446127314339e+04  3.4741327677378285e+04  3.4741260961008695e+04  3.4741262367123411e+04  3.4741318097199568e+04  3.4741447577570674e+04  3.4741646712289941e+04  3.4741898596562161e+04  3.4742209143779721e+04  3.4742609548841705e+04  3.4743071095375482e+04  3.4743687623388294e+04  3.4744577028269021e+04  2.2661046023853414e+04  4.9362165540869983e+03  1.7751980134066733e+04  1.1153846382594227e+04  3.3894595884683702e+04  2.4569003482611839e+04  2.4925408571787335e+04  1.4472665691136839e+04  8.0746590364704089e+03  8.4238521442980236e+03  1.5113669712428578e+04  2.0256166081122290e+04  2.0228883448573630e+04  2.8877526675489603e+03  2.8897597386495995e+03  3.4409529715782708e+04  3.4414491759090000e+04  1.2536948721749819e+04  2.5119708958389656e+04  3.4469115726908894e+04  5.9461758245576430e+03  1.2115698015387572e+04  1.6822212420018481e+04  5.7091172676403576e+03  2.2462762926464162e+04  2.2462149625730242e+04  1.7501400940158725e+04  1.0152852921442898e+04  2.1688197339029593e+03  1.3251589546387757e+04  6.9605177070377231e+03  1.0125170800298694e+04  3.4566293723358394e+04  3.4571356870126030e+04  3.4572860088351736e+04  1.8674154747392862e+04  2.0751925375798881e+04  1.5832410178835811e+04  9.2644469335230478e+03  1.5119471831861159e+04  4.3315320945151489e+03  7.3452411951901731e+03  2.4031362971732102e+04  1.4048261131716556e+04  1.9096137804310794e+04  3.4595396522038711e+04  7.4905167510696156e+03  3.4547618528894869e+04  3.4557984033029919e+04  4.1787891858738822e+03  2.3836614460505592e+04  2.3841763300114442e+04  1.5974213272410119e+04  1.6708352762367663e+03  1.6907759887033335e+03  2.4238243345705829e+04  2.0994923454585663e+04  2.1000796931375502e+04  1.3478747256587318e+04  1.8678331437840061e+04  1.8682554516434648e+04  4.4316540049239538e+03  1.0189817830575679e+04  4.3892380136455067e+03  2.1725372915589127e+04  2.1744439659847219e+04  3.4604526732540762e+04  3.4609573119733090e+04  8.8544384074333921e+03  1.1453891524620980e+04  1.5223650011709008e+03  1.5198116944915382e+03  6.0969183531128119e+03  1.1223465026586133e+04  1.2999893396795575e+04  1.6811675019927796e+04  1.9259008428625639e+04  2.3435669992096096e+04  3.4625977965971826e+04  2.3442754602875335e+04  3.4622499390625017e+04  2.4808726325912263e+04  3.5525307723315900e+03  8.8639830096924397e+03  1.1347891058560399e+04  1.3730428022277525e+04  9.4073229965903520e+03  1.6803311649708121e+04  3.0257349182745788e+03  1.4583105318058962e+04  5.8407702265954522e+03  7.0836144380704245e+03  1.7442853422817050e+04  1.2770314883004870e+04  5.5464420726378930e+03  3.4273377338490143e+04  3.4310590340152499e+04  2.