<?xml version="1.0"?>
<VTKFile type="UnstructuredGrid"  version="0.1"  >
<UnstructuredGrid>
<Piece  NumberOfPoints="21337" NumberOfCells="41988">
<Points>
<DataArray  type="Float64"  NumberOfComponents="3"  format="ascii">0 0 0  0.77 0 0  0.77 0.15 0  0 0.15 0  0.002692307692302917 0 0  0.005384615384605834 0 0  0.008076923076908835 0 0  0.01076923076921186 0 0  0.01346153846151489 0 0  0.01615384615381792 0 0  0.01884615384612085 0 0  0.02153846153842357 0 0  0.02423076923072626 0 0  0.02692307692302838 0 0  0.02961538461533049 0 0  0.03230769230763287 0 0  0.03499999999993529 0 0  0.03769230769223771 0 0  0.04038461538454013 0 0  0.04307692307684255 0 0  0.04576923076914497 0 0  0.04846153846144754 0 0  0.05115384615375117 0 0  0.0538461538460548 0 0  0.05653846153835843 0 0  0.05923076923066205 0 0  0.06192307692296529 0 0  0.06461538461526832 0 0  0.06730769230757135 0 0  0.06999999999987438 0 0  0.07269230769217741 0 0  0.07538461538448044 0 0  0.07807692307678345 0 0  0.08076923076908764 0 0  0.08346153846139188 0 0  0.08615384615369612 0 0  0.08884615384600036 0 0  0.0915384615383034 0 0  0.09423076923060524 0 0  0.09692307692290673 0 0  0.09961538461520734 0 0  0.1023076923075079 0 0  0.1049999999998086 0 0  0.1076923076921091 0 0  0.1103846153844097 0 0  0.1130769230767103 0 0  0.1157692307690103 0 0  0.1184615384613097 0 0  0.1211538461536087 0 0  0.1238461538459068 0 0  0.126538461538205 0 0  0.1292307692305032 0 0  0.1319230769228014 0 0  0.1346153846151016 0 0  0.1373076923074022 0 0  0.1399999999997043 0 0  0.1426923076920073 0 0  0.1453846153843103 0 0  0.1480769230766134 0 0  0.150769230768916 0 0  0.1534615384612166 0 0  0.1561538461535172 0 0  0.1588461538458156 0 0  0.1615384615381138 0 0  0.164230769230412 0 0  0.1669230769227102 0 0  0.1696153846150083 0 0  0.1723076923073065 0 0  0.1749999999996047 0 0  0.1776923076919029 0 0  0.180384615384201 0 0  0.1830769230765016 0 0  0.1857692307688022 0 0  0.1884615384611046 0 0  0.1911538461534076 0 0  0.1938461538457106 0 0  0.1965384615380136 0 0  0.199230769230316 0 0  0.2019230769226166 0 0  0.2046153846149171 0 0  0.2073076923072153 0 0  0.2099999999995135 0 0  0.2126923076918116 0 0  0.2153846153841098 0 0  0.218076923076408 0 0  0.2207692307687062 0 0  0.2234615384610044 0 0  0.2261538461533025 0 0  0.2288461538456009 0 0  0.2315384615379015 0 0  0.2342307692302022 0 0  0.2369230769225048 0 0  0.2396153846148079 0 0  0.2423076923071109 0 0  0.2449999999994139 0 0  0.247692307691715 0 0  0.2503846153840132 0 0  0.2530769230763114 0 0  0.2557692307686096 0 0  0.2584615384609077 0 0  0.2611538461532104 0 0  0.2638461538455134 0 0  0.2665384615378165 0 0  0.2692307692301195 0 0  0.2719230769224225 0 0  0.2746153846147255 0 0  0.2773076923070275 0 0  0.2799999999993256 0 0  0.2826923076916238 0 0  0.285384615383922 0 0  0.2880769230762202 0 0  0.2907692307685183 0 0  0.2934615384608165 0 0  0.2961538461531147 0 0  0.2988461538454129 0 0  0.3015384615377124 0 0  0.3042307692300155 0 0  0.3069230769223185 0 0  0.3096153846146215 0 0  0.3123076923069245 0 0  0.3149999999992276 0 0  0.3176923076915306 0 0  0.3203846153838307 0 0  0.323076923076129 0 0  0.3257692307684272 0 0  0.3284615384607253 0 0  0.3311538461530235 0 0  0.3338461538453217 0 0  0.3365384615376198 0 0  0.339230769229918 0 0  0.3419230769222162 0 0  0.3446153846145144 0 0  0.3473076923068126 0 0  0.3499999999991107 0 0  0.3526923076914089 0 0  0.3553846153837079 0 0  0.3580769230760109 0 0  0.360769230768314 0 0  0.363461538460617 0 0  0.3661538461529201 0 0  0.3688461538452231 0 0  0.3715384615375261 0 0  0.3742307692298269 0 0  0.3769230769221251 0 0  0.3796153846144243 0 0  0.3823076923067274 0 0  0.3849999999990304 0 0  0.3876923076913432 0 0  0.3903846153836559 0 0  0.3930769230759686 0 0  0.3957692307682814 0 0  0.3984615384605941 0 0  0.4011538461529068 0 0  0.4038461538452195 0 0  0.4065384615375321 0 0  0.409230769229845 0 0  0.4119230769221576 0 0  0.4146153846144704 0 0  0.4173076923067831 0 0  0.4199999999990959 0 0  0.4226923076914115 0 0  0.425384615383729 0 0  0.4280769230760466 0 0  0.4307692307683642 0 0  0.4334615384606818 0 0  0.4361538461529995 0 0  0.438846153845317 0 0  0.4415384615376347 0 0  0.4442307692299522 0 0  0.4469230769222666 0 0  0.4496153846145793 0 0  0.4523076923068921 0 0  0.4549999999992048 0 0  0.4576923076915175 0 0  0.4603846153838302 0 0  0.463076923076143 0 0  0.4657692307684557 0 0  0.4684615384607684 0 0  0.471153846153081 0 0  0.4738461538453938 0 0  0.4765384615377089 0 0  0.4792307692300266 0 0  0.4819230769223441 0 0  0.4846153846146617 0 0  0.4873076923069792 0 0  0.489999999999292 0 0  0.4926923076916048 0 0  0.4953846153839174 0 0  0.4980769230762301 0 0  0.5007692307685402 0 0  0.5034615384608481 0 0  0.5061538461531575 0 0  0.5088461538454702 0 0  0.5115384615377837 0 0  0.5142307692301061 0 0  0.5169230769224287 0 0  0.5196153846147429 0 0  0.5223076923070555 0 0  0.5249999999993683 0 0  0.527692307691681 0 0  0.5303846153839974 0 0  0.5330769230763198 0 0  0.5357692307686409 0 0  0.5384615384609537 0 0  0.5411538461532663 0 0  0.5438461538455703 0 0  0.5465384615378733 0 0  0.5492307692301829 0 0  0.5519230769224956 0 0  0.5546153846148125 0 0  0.5573076923071351 0 0  0.5599999999994555 0 0  0.5626923076917683 0 0  0.5653846153840809 0 0  0.5680769230763936 0 0  0.5707692307687064 0 0  0.5734615384610262 0 0  0.5761538461533487 0 0  0.5788461538456712 0 0  0.5815384615379936 0 0  0.5842307692303135 0 0  0.5869230769226261 0 0  0.5896153846149389 0 0  0.5923076923072516 0 0  0.5949999999995643 0 0  0.5976923076918849 0 0  0.6003846153842073 0 0  0.6030769230765242 0 0  0.605769230768837 0 0  0.6084615384611465 0 0  0.6111538461534496 0 0  0.6138461538457535 0 0  0.6165384615380662 0 0  0.6192307692303789 0 0  0.6219230769227 0 0  0.6246153846150224 0 0  0.6273076923073388 0 0  0.6299999999996516 0 0  0.6326923076919642 0 0  0.6353846153842769 0 0  0.6380769230765913 0 0  0.6407692307689137 0 0  0.6434615384612361 0 0  0.6461538461535496 0 0  0.6488461538458623 0 0  0.6515384615381684 0 0  0.6542307692304714 0 0  0.6569230769227788 0 0  0.6596153846150916 0 0  0.6623076923074064 0 0  0.6649999999997288 0 0  0.6676923076920513 0 0  0.6703846153843642 0 0  0.6730769230766769 0 0  0.6757692307689896 0 0  0.6784615384613023 0 0  0.6811538461536201 0 0  0.6838461538459425 0 0  0.6865384615382623 0 0  0.689230769230575 0 0  0.6919230769228872 0 0  0.6946153846151903 0 0  0.6973076923074933 0 0  0.6999999999998043 0 0  0.702692307692117 0 0  0.7053846153844354 0 0  0.7080769230767577 0 0  0.7107692307690769 0 0  0.7134615384613896 0 0  0.7161538461537023 0 0  0.718846153846015 0 0  0.7215384615383277 0 0  0.724230769230649 0 0  0.7269230769229713 0 0  0.7296153846152876 0 0  0.7323076923076003 0 0  0.7349999999999092 0 0  0.7376923076922122 0 0  0.7403846153845167 0 0  0.7430769230768295 0 0  0.7457692307691423 0 0  0.748461538461464 0 0  0.7511538461537864 0 0  0.7538461538461021 0 0  0.7565384615384148 0 0  0.7592307692307275 0 0  0.7619230769230403 0 0  0.7646153846153552 0 0  0.7673076923076777 0 0  0.77 0.002678571428566427 0  0.77 0.005357142857132536 0  0.77 0.008035714285698086 0  0.77 0.01071428571426477 0  0.77 0.01339285714283192 0  0.77 0.01607142857139917 0  0.77 0.01874999999996588 0  0.77 0.02142857142853017 0  0.77 0.02410714285709379 0  0.77 0.0267857142856574 0  0.77 0.02946428571422236 0  0.77 0.03214285714278598 0  0.77 0.03482142857134959 0  0.77 0.0374999999999132 0  0.77 0.04017857142847682 0  0.77 0.04285714285704043 0  0.77 0.04553571428560405 0  0.77 0.04821428571416767 0  0.77 0.05089285714273128 0  0.77 0.05357142857129488 0  0.77 0.05624999999985985 0  0.77 0.05892857142842482 0  0.77 0.06160714285698844 0  0.77 0.06428571428555205 0  0.77 0.06696428571411567 0  0.77 0.06964285714267927 0  0.77 0.07232142857124288 0  0.77 0.07499999999980922 0  0.77 0.07767857142838523 0  0.77 0.08035714285696278 0  0.77 0.08303571428554266 0  0.77 0.08571428571411904 0  0.77 0.08839285714270011 0  0.77 0.09107142857127612 0  0.77 0.09374999999985754 0  0.77 0.09642857142843357 0  0.77 0.09910714285701384 0  0.77 0.101785714285591 0  0.77 0.1044642857141701 0  0.77 0.1071428571427485 0  0.77 0.1098214285713264 0  0.77 0.1124999999999059 0  0.77 0.1151785714284854 0  0.77 0.1178571428570634 0  0.77 0.1205357142856417 0  0.77 0.1232142857142209 0  0.77 0.1258928571427942 0  0.77 0.1285714285713702 0  0.77 0.1312499999999516 0  0.77 0.1339285714285276 0  0.77 0.1366071428571091 0  0.77 0.1392857142856851 0  0.77 0.1419642857142665 0  0.77 0.1446428571428425 0  0.77 0.1473214285714224 0  0.7673076923077067 0.15 0  0.7646153846154133 0.15 0  0.7619230769231125 0.15 0  0.7592307692308095 0.15 0  0.7565384615385063 0.15 0  0.7538461538462033 0.15 0  0.7511538461539002 0.15 0  0.7484615384615971 0.15 0  0.7457692307692941 0.15 0  0.743076923076991 0.15 0  0.7403846153846879 0.15 0  0.7376923076923849 0.15 0  0.7350000000000818 0.15 0  0.7323076923077787 0.15 0  0.7296153846154757 0.15 0  0.7269230769231726 0.15 0  0.7242307692308696 0.15 0  0.7215384615385665 0.15 0  0.7188461538462634 0.15 0  0.7161538461539604 0.15 0  0.7134615384616573 0.15 0  0.7107692307693542 0.15 0  0.7080769230770512 0.15 0  0.7053846153847481 0.15 0  0.702692307692445 0.15 0  0.700000000000142 0.15 0  0.6973076923078388 0.15 0  0.6946153846155358 0.15 0  0.6919230769232327 0.15 0  0.6892307692309296 0.15 0  0.6865384615386265 0.15 0  0.6838461538463235 0.15 0  0.6811538461540204 0.15 0  0.6784615384617174 0.15 0  0.6757692307694143 0.15 0  0.6730769230771112 0.15 0  0.6703846153848081 0.15 0  0.6676923076925051 0.15 0  0.665000000000202 0.15 0  0.662307692307899 0.15 0  0.6596153846155959 0.15 0  0.6569230769232928 0.15 0  0.6542307692309897 0.15 0  0.6515384615386867 0.15 0  0.6488461538463836 0.15 0  0.6461538461540804 0.15 0  0.6434615384617781 0.15 0  0.6407692307694848 0.15 0  0.6380769230771914 0.15 0  0.6353846153848981 0.15 0  0.6326923076926048 0.
[...]
<PointData  Vectors="velocity"> 
<DataArray  type="Float64"  Name="velocity"  NumberOfComponents="3" format="ascii">0.0000000000000000e+00 0.0000000000000000e+00 0.0000000000000000e+00  0.0000000000000000e+00 0.0000000000000000e+00 0.0000000000000000e+00  0.0000000000000000e+00 0.0000000000000000e+00 0.0000000000000000e+00  0.0000000000000000e+00 0.0000000000000000e+00 0.0000000000000000e+00  0.0000000000000000e+00 0.0000000000000000e+00 0.0000000000000000e+00  0.0000000000000000e+00 0.0000000000000000e+00 0.0000000000000000e+00  0.0000000000000000e+00 0.0000000000000000e+00 0.0000000000000000e+00  0.0000000000000000e+00 0.0000000000000000e+00 0.0000000000000000e+00  0.0000000000000000e+00 0.0000000000000000e+00 0.0000000000000000e+00  0.0000000000000000e+00 0.0000000000000000e+00 0.0000000000000000e+00  0.0000000000000000e+00 0.0000000000000000e+00 0.0000000000000000e+00  0.0000000000000000e+00 0.0000000000000000e+00 0.0000000000000000e+00  0.0000000000000000e+00 0.0000000000000000e+00 0.0000000000000000e+00  0.0000000000000000e+00 0.0000000000000000e+00 0.0000000000000000e+00  0.0000000000000000e+00 0.0000000000000000e+00 0.0000000000000000e+00  0.0000000000000000e+00 0.0000000000000000e+00 0.0000000000000000e+00  0.0000000000000000e+00 0.0000000000000000e+00 0.0000000000000000e+00  0.0000000000000000e+00 0.0000000000000000e+00 0.0000000000000000e+00  0.0000000000000000e+00 0.0000000000000000e+00 0.0000000000000000e+00  0.0000000000000000e+00 0.0000000000000000e+00 0.0000000000000000e+00  0.0000000000000000e+00 0.0000000000000000e+00 0.0000000000000000e+00  0.0000000000000000e+00 0.0000000000000000e+00 0.0000000000000000e+00  0.0000000000000000e+00 0.0000000000000000e+00 0.0000000000000000e+00  0.0000000000000000e+00 0.0000000000000000e+00 0.0000000000000000e+00  0.0000000000000000e+00 0.0000000000000000e+00 0.0000000000000000e+00  0.0000000000000000e+00 0.0000000000000000e+00 0.0000000000000000e+00  0.0000000000000000e+00 0.0000000000000000e+00 0.0000000000000000e+00  0.0000000000000000e+00 0.0000000000000000e+00 0.0000000000000000e+00  0.0000000000000000e+00 0.0000000000000000e+00 0.0000000000000000e+00  0.0000000000000000e+00 0.0000000000000000e+00 0.0000000000000000e+00  0.0000000000000000e+00 0.0000000000000000e+00 0.0000000000000000e+00  0.0000000000000000e+00 0.0000000000000000e+00 0.0000000000000000e+00  0.0000000000000000e+00 0.0000000000000000e+00 0.0000000000000000e+00  0.0000000000000000e+00 0.0000000000000000e+00 0.0000000000000000e+00  0.0000000000000000e+00 0.0000000000000000e+00 0.0000000000000000e+00  0.0000000000000000e+00 0.0000000000000000e+00 0.0000000000000000e+00  0.0000000000000000e+00 0.0000000000000000e+00 0.0000000000000000e+00  0.0000000000000000e+00 0.0000000000000000e+00 0.0000000000000000e+00  0.0000000000000000e+00 0.0000000000000000e+00 0.0000000000000000e+00  0.0000000000000000e+00 0.0000000000000000e+00 0.0000000000000000e+00  0.0000000000000000e+00 0.0000000000000000e+00 0.0000000000000000e+00  0.0000000000000000e+00 0.0000000000000000e+00 0.0000000000000000e+00  0.0000000000000000e+00 0.0000000000000000e+00 0.0000000000000000e+00  0.0000000000000000e+00 0.0000000000000000e+00 0.0000000000000000e+00  0.0000000000000000e+00 0.0000000000000000e+00 0.0000000000000000e+00  0.0000000000000000e+00 0.0000000000000000e+00 0.0000000000000000e+00  0.0000000000000000e+00 0.0000000000000000e+00 0.0000000000000000e+00  0.0000000000000000e+00 0.0000000000000000e+00 0.0000000000000000e+00  0.0000000000000000e+00 0.0000000000000000e+00 0.0000000000000000e+00  0.0000000000000000e+00 0.0000000000000000e+00 0.0000000000000000e+00  0.0000000000000000e+00 0.0000000000000000e+00 0.0000000000000000e+00  0.0000000000000000e+00 0.0000000000000000e+00 0.0000000000000000e+00  0.0000000000000000e+00 0.0000000000000000e+00 0.0000000000000000e+00  0.0000000000000000e+00 0.0000000000000000e+00 0.0000000000000000e+00  0.0000000000000000e+00 0.0000000000000000e+00 0.0000000000000000e+00  0.0000000000000000e+00 0.0000000000000000e+00 0.0000000000000000e+00  0.0000000000000000e+00 0.0000000000000000e+00 0.0000000000000000e+00  0.0000000000000000e+00 0.0000000000000000e+00 0.0000000000000000e+00  0.0000000000000000e+00 0.0000000000000000e+00 0.0000000000000000e+00  0.0000000000000000e+00 0.0000000000000000e+00 0.0000000000000000e+00  0.0000000000000000e+00 0.0000000000000000e+00 0.0000000000000000e+00  0.0000000000000000e+00 0.0000000000000000e+00 0.0000000000000000e+00  0.0000000000000000e+00 0.0000000000000000e+00 0.0000000000000000e+00  0.0000000000000000e+00 0.0000000000000000e+00 0.0000000000000000e+00  0.0000000000000000e+00 0.0000000000000000e+00 0.0000000000000000e+00  0.0000000000000000e+00 0.0000000000000000e+00 0.0000000000000000e+00  0.0000000000000000e+00 0.0000000000000000e+00 0.0000000000000000e+00  0.0000000000000000e+00 0.0000000000000000e+00 0.0000000000000000e+00  0.0000000000000000e+00 0.0000000000000000e+00 0.0000000000000000e+00  0.0000000000000000e+00 0.0000000000000000e+00 0.0000000000000000e+00  0.0000000000000000e+00 0.0000000000000000e+00 0.0000000000000000e+00  0.0000000000000000e+00 0.0000000000000000e+00 0.0000000000000000e+00  0.0000000000000000e+00 0.0000000000000000e+00 0.0000000000000000e+00  0.0000000000000000e+00 0.0000000000000000e+00 0.0000000000000000e+00  0.0000000000000000e+00 0.0000000000000000e+00 0.0000000000000000e+00  0.0000000000000000e+00 0.0000000000000000e+00 0.0000000000000000e+00  0.0000000000000000e+00 0.0000000000000000e+00 0.0000000000000000e+00  0.0000000000000000e+00 0.0000000000000000e+00 0.0000000000000000e+00  0.0000000000000000e+00 0.0000000000000000e+00 0.0000000000000000e+00  0.0000000000000000e+00 0.0000000000000000e+00 0.0000000000000000e+00  0.0000000000000000e+00 0.0000000000000000e+00 0.0000000000000000e+00  0.0000000000000000e+00 0.0000000000000000e+00 0.0000000000000000e+00  0.0000000000000000e+00 0.0000000000000000e+00 0.0000000000000000e+00  0.0000000000000000e+00 0.0000000000000000e+00 0.0000000000000000e+00  0.0000000000000000e+00 0.0000000000000000e+00 0.0000000000000000e+00  0.0000000000000000e+00 0.0000000000000000e+00 0.0000000000000000e+00  0.0000000000000000e+00 0.0000000000000000e+00 0.0000000000000000e+00  0.0000000000000000e+00 0.0000000000000000e+00 0.0000000000000000e+00  0.0000000000000000e+00 0.0000000000000000e+00 0.0000000000000000e+00  0.0000000000000000e+00 0.0000000000000000e+00 0.0000000000000000e+00  0.0000000000000000e+00 0.0000000000000000e+00 0.0000000000000000e+00  0.0000000000000000e+00 0.0000000000000000e+00 0.0000000000000000e+00  0.0000000000000000e+00 0.0000000000000000e+00 0.0000000000000000e+00  0.0000000000000000e+00 0.0000000000000000e+00 0.0000000000000000e+00  0.0000000000000000e+00 0.0000000000000000e+00 0.0000000000000000e+00  0.0000000000000000e+00 0.0000000000000000e+00 0.0000000000000000e+00  0.0000000000000000e+00 0.0000000000000000e+00 0.0000000000000000e+00  0.0000000000000000e+00 0.0000000000000000e+00 0.0000000000000000e+00  0.0000000000000000e+00 0.0000000000000000e+00 0.0000000000000000e+00  0.0000000000000000e+00 0.0000000000000000e+00 0.0000000000000000e+00  0.0000000000000000e+00 0.0000000000000000e+00 0.0000000000000000e+00  0.0000000000000000e+00 0.0000000000000000e+00 0.0000000000000000e+00  0.0000000000000000e+00 0.0000000000000000e+00 0.0000000000000000e+00  0.0000000000000000e+00 0.0000000000000000e+00 0.0000000000000000e+00  0.0000000000000000e+00 0.0000000000000000e+00 0.0000000000000000e+00  0.0000000000000000e+00 0.0000000000000000e+00 0.0000000000000000e+00  0.0000000000000000e+00 0.0000000000000000e+00 0.0000000000000000e+00  0.0000000000000000e+00 0.0000000000000000e+00 0.0000000000000000e+00  0.0000000000000000e+00 0.0000000000000000e+00 0.0000000000000000e+00  0.0000000000000000e+00 0.0000000000000000e+00 0.0000000000000000e+00  0.0000000000000000e+00 0.0000000000000000e+00 0.0000000000000000e+00  0.0000000000000000e+00 0.0000000000000000e+00 0.0000000000000000e+00  0.0000000000000000e+00 0.0000000000000000e+00 0.0000000000000000e+00  0.0000000000000000e+00 0.0000000000000000e+00 0.0000000000000000e+00  0.0000000000000000e+00 0.0000000000000000e+00 0.0000000000000000e+00  0.0000000000000000e+00 0.0000000000000000e+00 0.0000000000000000e+00  0.0000000000000000e+00 0.0000000000000000e+00 0.0000000000000000e+00  0.0000000000000000e+00 0.0000000000000000e+00 0.0000000000000000e+00  0.0000000000000000e+00 0.0000000000000000e+00 0.0000000000000000e+00  0.0000000000000000e+00 0.0000000000000000e+00 0.0000000000000000e+00  0.0000000000000000e+00 0.0000000000000000e+00 0.0000000000000000e+00  0.0000000000000000e+00 0.0000000000000000e+00 0.0000000000000000e+00  0.0000000000000000e+00 0.0000000000000000e+00 0.0000000000000000e+00  0.0000000000000000e+00 0.0000000000000000e+00 0.0000000000000000e+00  0.0000000000000000e+00 0.0000000000000000e+00 0.0000000000000000e+00  0.0000000000000000e+00 0.0000000000000000e+00 0.0000000000000000e+00  0.0000000000000000e+00 0.0000000000000000e+00 0.0000000000000000e+00  0.0000000000000000e+00 0.0000000000000000e+00 0.0000000000000000e+00  0.0000000000000000e+00 0.0000000000000000e+00 0.0000000000000000e+00  0.0000000000000000e+00 0.0000000000000000e+00 0.0000000000000000e+00  0.0000000000000000e+00 0.0000000000000000e+00 0.0000000000000000e+00  0.0000000000000000e+00 0.0000000000000000e+00 0.0000000000000000e+00  0.0000000000000000e+00 0.0000000000000000e+00 0.0000000000000000e+00  0.0000000000000000e+00 0.0000000000000000e+00 0.0000000000000000e+00  0.0000000000000000e+00 0.0000000000000000e+00 0.0000000000000000e+00  0.0000000000000000e+00 0.0000000000000000e+00 0.0000000000000000e+00  0.0000000000000000e+00 0.0000000000000000e+00 0.0000000000000000e+00  0.0000000000000000e+00 0.0000000000000000e+00 0.0000000000000000e+00  0.0000000000000000e+00 0.0000000000000000e+00 0.0000000000000000e+00  0.0000000000000000e+00 0.0000000000000000e+00 0.0000000000000000e+00  0.0000000000000000e+00 0.0000000000000000e+00 0.0000000000000000e+00  0.0000000000000000e+00 0.0000000000000000e+00 0.0000000000000000e+00  0.0000000000000000e+00 0.0000000000000000e+00 0.0000000000000000e+00  0.0000000000000000e+00 0.0000000000000000e+00 0.0000000000000000e+00  0.0000000000000000e+00 0.0000000000000000e+00 0.0000000000000000e+00  0.0000000000000000e+00 0.0000000000000000e+00 0.0000000000000000e+00  0.0000000000000000e+00 0.0000000000000000e+00 0.0000000000000000e+00  0.0000000000000000e+00 0.0000000000000000e+00 0.0000000000000000e+00  0.0000000000000000e+00 0.0000000000000000e+00 0.0000000000000000e+00  0.0000000000000000e+00 0.0000000000000000e+00 0.0000000000000000e+00  0.0000000000000000e+00 0.0000000000000000e+00 0.0000000000000000e+00  0.0000000000000000e+00 0.0000000000000000e+00 0.0000000000000000e+00  0.0000000000000000e+00 0.0000000000000000e+00 0.0000000000000000e+00  0.0000000000000000e+00 0.0000000000000000e+00 0.0000000000000000e+00  0.0000000000000000e+00 0.0000000000000000e+00 0.0000000000000000e+00  0.0000000000000000e+00 0.0000000000000000e+00 0.0000000000000000e+00  0.0000000000000000e+00 0.0000000000000000e+00 0.0000000000000000e+00  0.0000000000000000e+00 0.0000000000000000e+00 0.0000000000000000e+00  0.0000000000000000e+00 0.0000000000000000e+00 0.0000000000000000e+00  0.0000000000000000e+00 0.0000000000000000e+00 0.0000000000000000e+00  0.0000000000000000e+00 0.0000000000000000e+00 0.0000000000000000e+00  0.0000000000000000e+00 0.0000000000000000e+00 0.0000000000000000e+00  0.0000000000000000e+00 0.0000000000000000e+00 0.0000000000000000e+00  0.0000000000000000e+00 0.0000000000000000e+00 0.0000000000000000e+00  0.0000000000000000e+00 0.0000000000000000e+00 0.0000000000000000e+00  0.0000000000000000e+00 0.0000000000000000e+00 0.0000000000000000e+00  0.0000000000000000e+00 0.0000000000000000e+00 0.0000000000000000e+00  0.0000000000000000e+00 0.0000000000000000e+00 0.0000000000000000e+00  0.0000000000000000e+00 0.0000000000000000e+00 0.0000000000000000e+00  0.0000000000000000e+00 0.0000000000000000e+00 0.0000000000000000e+00  0.0000000000000000e+00 0.0000000000000000e+00 0.0000000000000000e+00  0.0000000000000000e+00 0.0000000000000000e+00 0.0000000000000000e+00  0.0000000000000000e+00 0.0000000000000000e+00 0.0000000000000000e+00  0.0000000000000000e+00 0.0000000000000000e+00 0.0000000000000000e+00  0.0000000000000000e+00 0.0000000000000000e+00 0.0000000000000000e+00  0.0000000000000000e+00 0.0000000000000000e+00 0.0000000000000000e+00  0.0000000000000000e+00 0.0000000000000000e+00 0.0000000000000000e+00  0.0000000000000000e+00 0.0000000000000000e+00 0.0000000000000000e+00  0.0000000000000000e+00 0.0000000000000000e+00 0.0000000000000000e+00  0.0000000000000000e+00 0.0000000000000000e+00 0.0000000000000000e+00  0.0000000000000000e+00 0.0000000000000000e+00 0.0000000000000000e+00  0.0000000000000000e+00 0.0000000000000000e+00 0.0000000000000000e+00  0.0000000000000000e+00 0.0000000000000000e+00 0.0000000000000000e+00  0.0000000000000000e+00 0.0000000000000000e+00 0.0000000000000000e+00  0.0000000000000000e+00 0.0000000000000000e+00 0.0000000000000000e+00  0.0000000000000000e+00 0.0000000000000000e+00 0.0000000000000000e+00  0.0000000000000000e+00 0.0000000000000000e+00 0.0000000000000000e+00  0.0000000000000000e+00 0.0000000000000000e+00 0.0000000000000000e+00  0.0000000000000000e+00 0.0000000000000000e+00 0.0000000000000000e+00  0.0000000000000000e+00 0.0000000000000000e+00 0.0000000000000000e+00  0.0000000000000000e+00 0.0000000000000000e+00 0.0000000000000000e+00  0.0000000000000000e+00 0.0000000000000000e+00 0.0000000000000000e+00  0.0000000000000000e+00 0.0000000000000000e+00 0.0000000000000000e+00  0.0000000000000000e+00 0.0000000000000000e+00 0.0000000000000000e+00  0.0000000000000000e+00 0.0000000000000000e+00 0.0000000000000000e+00  0.0000000000000000e+00 0.0000000000000000e+00 0.0000000000000000e+00  0.0000000000000000e+00 0.0000000000000000e+00 0.0000000000000000e+00  0.0000000000000000e+00 0.0000000000000000e+00 0.0000000000000000e+00  0.0000000000000000e+00 0.0000000000000000e+00 0.0000000000000000e+00  0.0000000000000000e+00 0.0000000000000000e+00 0.0000000000000000e+00  0.0000000000000000e+00 0.0000000000000000e+00 0.0000000000000000e+00  0.0000000000000000e+00 0.0000000000000000e+00 0.0000000000000000e+00  0.0000000000000000e+00 0.0000000000000000e+00 0.0000000000000000e+00  0.0000000000000000e+00 0.0000000000000000e+00 0.0000000000000000e+00  0.0000000000000000e+00 0.0000000000000000e+00 0.0000000000000000e+00  0.0000000000000000e+00 0.0000000000000000e+00 0.0000000000000000e+00  0.0000000000000000e+00 0.0000000000000000e+00 0.0000000000000000e+00  0.0000000000000000e+00 0.0000000000000000e+00 0.0000000000000000e+00  0.0000000000000000e+00 0.0000000000000000e+00 0.0000000000000000e+00  0.0000000000000000e+00 0.0000000000000000e+00 0.0000000000000000e+00  0.0000000000000000e+00 0.0000000000000000e+00 0.0000000000000000e+00  0.0000000000000000e+00 0.0000000000000000e+00 0.0000000000000000e+00  0.0000000000000000e+00 0.0000000000000000e+00 0.0000000000000000e+00  0.0000000000000000e+00 0.0000000000000000e+00 0.0000000000000000e+00  0.0000000000000000e+00 0.0000000000000000e+00 0.0000000000000000e+00  0.0000000000000000e+00 0.0000000000000000e+00 0.0000000000000000e+00  0.0000000000000000e+00 0.0000000000000000e+00 0.0000000000000000e+00  0.0000000000000000e+00 0.0000000000000000e+00 0.0000000000000000e+00  0.0000000000000000e+00 0.0000000000000000e+00 0.0000000000000000e+00  0.0000000000000000e+00 0.0000000000000000e+00 0.0000000000000000e+00  0.0000000000000000e+00 0.0000000000000000e+00 0.0000000000000000e+00  0.0000000000000000e+00 0.0000000000000000e+00 0.0000000000000000e+00  0.0000000000000000e+00 0.0000000000000000e+00 0.0000000000000000e+00  0.0000000000000000e+00 0.0000000000000000e+00 0.0000000000000000e+00  0.0000000000000000e+00 0.0000000000000000e+00 0.0000000000000000e+00  0.0000000000000000e+00 0.0000000000000000e+00 0.0000000000000000e+00  0.0000000000000000e+00 0.0000000000000000e+00 0.0000000000000000e+00  0.0000000000000000e+00 0.0000000000000000e+00 0.0000000000000000e+00  0.0000000000000000e+00 0.0000000000000000e+00 0.0000000000000000e+00  0.0000000000000000e+00 0.0000000000000000e+00 0.0000000000000000e+00  0.0000000000000000e+00 0.0000000000000000e+00 0.0000000000000000e+00  0.0000000000000000e+00 0.0000000000000000e+00 0.0000000000000000e+00  0.0000000000000000e+00 0.0000000000000000e+00 0.0000000000000000e+00  0.0000000000000000e+00 0.0000000000000000e+00 0.0000000000000000e+00  0.0000000000000000e+00 0.0000000000000000e+00 0.0000000000000000e+00  0.0000000000000000e+00 0.0000000000000000e+00 0.0000000000000000e+00  0.0000000000000000e+00 0.0000000000000000e+00 0.0000000000000000e+00  0.0000000000000000e+00 0.0000000000000000e+00 0.0000000000000000e+00  0.0000000000000000e+00 0.0000000000000000e+00 0.0000000000000000e+00  0.0000000000000000e+00 0.0000000000000000e+00 0.0000000000000000e+00  0.0000000000000000e+00 0.0000000000000000e+00 0.0000000000000000e+00  0.0000000000000000e+00 0.0000000000000000e+00 0.0000000000000000e+00  0.0000000000000000e+00 0.0000000000000000e+00 0.0000000000000000e+00  0.0000000000000000e+00 0.0000000000000000e+00 0.0000000000000000e+00  0.0000000000000000e+00 0.0000000000000000e+00 0.0000000000000000e+00  0.0000000000000000e+00 0.0000000000000000e+00 0.0000000000000000e+00  0.0000000000000000e+00 0.0000000000000000e+00 0.0000000000000000e+00  0.0000000000000000e+00 0.0000000000000000e+00 0.0000000000000000e+00  0.0000000000000000e+00 0.0000000000000000e+00 0.0000000000000000e+00  0.0000000000000000e+00 0.0000000000000000e+00 0.0000000000000000e+00  0.0000000000000000e+00 0.0000000000000000e+00 0.0000000000000000e+00  0.0000000000000000e+00 0.0000000000000000e+00 0.0000000000000000e+00  0.0000000000000000e+00 0.0000000000000000e+00 0.0000000000000000e+00  0.0000000000000000e+00 0.0000000000000000e+00 0.0000000000000000e+00  0.0000000000000000e+00 0.0000000000000000e+00 0.0000000000000000e+00  0.0000000000000000e+00 0.0000000000000000e+00 0.0000000000000000e+00  0.0000000000000000e+00 0.0000000000000000e+00 0.0000000000000000e+00  0.0000000000000000e+00 0.0000000000000000e+00 0.0000000000000000e+00  0.0000000000000000e+00 0.0000000000000000e+00 0.0000000000000000e+00  0.0000000000000000e+00 0.0000000000000000e+00 0.0000000000000000e+00  0.0000000000000000e+00 0.0000000000000000e+00 0.0000000000000000e+00  0.0000000000000000e+00 0.0000000000000000e+00 0.0000000000000000e+00  0.0000000000000000e+00 0.0000000000000000e+00 0.0000000000000000e+00  0.0000000000000000e+00 0.0000000000000000e+00 0.0000000000000000e+00  0.0000000000000000e+00 0.0000000000000000e+00 0.0000000000000000e+00  0.0000000000000000e+00 0.0000000000000000e+00 0.0000000000000000e+00  0.0000000000000000e+00 0.0000000000000000e+00 0.0000000000000000e+00  0.0000000000000000e+00 0.0000000000000000e+00 0.0000000000000000e+00  0.0000000000000000e+00 0.0000000000000000e+00 0.0000000000000000e+00  0.0000000000000000e+00 0.0000000000000000e+00 0.0000000000000000e+00  0.0000000000000000e+00 0.0000000000000000e+00 0.0000000000000000e+00  0.0000000000000000e+00 0.0000000000000000e+00 0.0000000000000000e+00  0.0000000000000000e+00 0.0000000000000000e+00 0.0000000000000000e+00  0.0000000000000000e+00 0.0000000000000000e+00 0.0000000000000000e+00  0.0000000000000000e+00 0.0000000000000000e+00 0.0000000000000000e+00  0.0000000000000000e+00 0.0000000000000000e+00 0.0000000000000000e+00  0.0000000000000000e+00 0.0000000000000000e+00 0.0000000000000000e+00  0.0000000000000000e+00 0.0000000000000000e+00 0.0000000000000000e+00  0.0000000000000000e+00 0.0000000000000000e+00 0.0000000000000000e+00  0.0000000000000000e+00 0.0000000000000000e+00 0.0000000000000000e+00  0.0000000000000000e+00 0.0000000000000000e+00 0.0000000000000000e+00  0.0000000000000000e+00 0.0000000000000000e+00 0.0000000000000000e+00  0.0000000000000000e+00 0.0000000000000000e+00 0.0000000000000000e+00  0.0000000000000000e+00 0.0000000000000000e+00 0.0000000000000000e+00  0.00