<?xml version="1.0"?>
<VTKFile type="UnstructuredGrid"  version="0.1"  >
<UnstructuredGrid>
<Piece  NumberOfPoints="4882" NumberOfCells="9241">
<Points>
<DataArray  type="Float64"  NumberOfComponents="3"  format="ascii">6 0.1 0  8 0.1 0  8 0.22 0  7.1 0.22 0  7 0.22 0  6 0.22 0  6.01 0.1 0  6.02 0.1 0  6.03 0.1 0  6.04 0.1 0  6.05 0.1 0  6.06 0.1 0  6.07 0.1 0  6.08 0.1 0  6.09 0.1 0  6.1 0.1 0  6.109999999999999 0.1 0  6.12 0.1 0  6.13 0.1 0  6.14 0.1 0  6.149999999999999 0.1 0  6.16 0.1 0  6.17 0.1 0  6.18 0.1 0  6.19 0.1 0  6.199999999999999 0.1 0  6.21 0.1 0  6.22 0.1 0  6.23 0.1 0  6.239999999999999 0.1 0  6.25 0.1 0  6.26 0.1 0  6.27 0.1 0  6.279999999999999 0.1 0  6.289999999999999 0.1 0  6.3 0.1 0  6.31 0.1 0  6.319999999999999 0.1 0  6.329999999999999 0.1 0  6.34 0.1 0  6.35 0.1 0  6.359999999999999 0.1 0  6.369999999999999 0.1 0  6.379999999999999 0.1 0  6.389999999999999 0.1 0  6.399999999999999 0.1 0  6.409999999999999 0.1 0  6.419999999999999 0.1 0  6.429999999999999 0.1 0  6.44 0.1 0  6.449999999999999 0.1 0  6.459999999999999 0.1 0  6.469999999999999 0.1 0  6.479999999999999 0.1 0  6.489999999999999 0.1 0  6.499999999999999 0.1 0  6.509999999999999 0.1 0  6.519999999999999 0.1 0  6.529999999999998 0.1 0  6.539999999999999 0.1 0  6.549999999999999 0.1 0  6.559999999999999 0.1 0  6.569999999999999 0.1 0  6.579999999999998 0.1 0  6.589999999999998 0.1 0  6.599999999999999 0.1 0  6.609999999999999 0.1 0  6.619999999999998 0.1 0  6.629999999999998 0.1 0  6.639999999999999 0.1 0  6.649999999999999 0.1 0  6.659999999999998 0.1 0  6.669999999999998 0.1 0  6.679999999999999 0.1 0  6.689999999999999 0.1 0  6.699999999999998 0.1 0  6.709999999999998 0.1 0  6.719999999999999 0.1 0  6.729999999999999 0.1 0  6.739999999999998 0.1 0  6.749999999999998 0.1 0  6.759999999999998 0.1 0  6.769999999999999 0.1 0  6.779999999999998 0.1 0  6.789999999999998 0.1 0  6.799999999999999 0.1 0  6.809999999999999 0.1 0  6.819999999999999 0.1 0  6.829999999999998 0.1 0  6.839999999999999 0.1 0  6.849999999999999 0.1 0  6.859999999999999 0.1 0  6.869999999999998 0.1 0  6.879999999999999 0.1 0  6.889999999999999 0.1 0  6.899999999999999 0.1 0  6.909999999999998 0.1 0  6.919999999999998 0.1 0  6.929999999999999 0.1 0  6.939999999999999 0.1 0  6.949999999999998 0.1 0  6.959999999999999 0.1 0  6.969999999999999 0.1 0  6.979999999999999 0.1 0  6.989999999999998 0.1 0  6.999999999999999 0.1 0  7.009999999999999 0.1 0  7.019999999999999 0.1 0  7.029999999999999 0.1 0  7.039999999999999 0.1 0  7.049999999999999 0.1 0  7.059999999999999 0.1 0  7.069999999999999 0.1 0  7.079999999999998 0.1 0  7.089999999999999 0.1 0  7.099999999999999 0.1 0  7.109999999999999 0.1 0  7.119999999999999 0.1 0  7.129999999999999 0.1 0  7.139999999999999 0.1 0  7.149999999999999 0.1 0  7.159999999999999 0.1 0  7.169999999999999 0.1 0  7.179999999999999 0.1 0  7.19 0.1 0  7.199999999999999 0.1 0  7.209999999999999 0.1 0  7.219999999999999 0.1 0  7.229999999999999 0.1 0  7.239999999999998 0.1 0  7.249999999999999 0.1 0  7.259999999999999 0.1 0  7.27 0.1 0  7.279999999999999 0.1 0  7.289999999999999 0.1 0  7.299999999999999 0.1 0  7.309999999999999 0.1 0  7.319999999999999 0.1 0  7.329999999999999 0.1 0  7.339999999999999 0.1 0  7.35 0.1 0  7.359999999999999 0.1 0  7.369999999999999 0.1 0  7.379999999999999 0.1 0  7.389999999999999 0.1 0  7.399999999999999 0.1 0  7.409999999999999 0.1 0  7.419999999999999 0.1 0  7.43 0.1 0  7.44 0.1 0  7.449999999999999 0.1 0  7.459999999999999 0.1 0  7.469999999999999 0.1 0  7.48 0.1 0  7.489999999999999 0.1 0  7.499999999999999 0.1 0  7.51 0.1 0  7.52 0.1 0  7.529999999999999 0.1 0  7.539999999999999 0.1 0  7.549999999999999 0.1 0  7.56 0.1 0  7.569999999999999 0.1 0  7.579999999999999 0.1 0  7.59 0.1 0  7.6 0.1 0  7.609999999999999 0.1 0  7.619999999999999 0.1 0  7.629999999999999 0.1 0  7.64 0.1 0  7.649999999999999 0.1 0  7.66 0.1 0  7.67 0.1 0  7.68 0.1 0  7.69 0.1 0  7.699999999999999 0.1 0  7.709999999999999 0.1 0  7.72 0.1 0  7.73 0.1 0  7.739999999999999 0.1 0  7.75 0.1 0  7.76 0.1 0  7.77 0.1 0  7.779999999999999 0.1 0  7.789999999999999 0.1 0  7.8 0.1 0  7.81 0.1 0  7.82 0.1 0  7.83 0.1 0  7.84 0.1 0  7.85 0.1 0  7.859999999999999 0.1 0  7.869999999999999 0.1 0  7.88 0.1 0  7.89 0.1 0  7.899999999999999 0.1 0  7.91 0.1 0  7.92 0.1 0  7.93 0.1 0  7.94 0.1 0  7.949999999999999 0.1 0  7.96 0.1 0  7.97 0.1 0  7.98 0.1 0  7.99 0.1 0  8 0.1099999999999788 0  8 0.1199999999999512 0  8 0.1299999999999173 0  8 0.1399999999998952 0  8 0.1499999999998641 0  8 0.1599999999998293 0  8 0.1699999999998686 0  8 0.1799999999998971 0  8 0.1899999999999147 0  8 0.1999999999999323 0  8 0.2099999999999607 0  7.990085836355354 0.22 0  7.980171672710533 0.22 0  7.970257509065752 0.22 0  7.960343345421177 0.22 0  7.950429181776419 0.22 0  7.940515018131598 0.22 0  7.930600854486929 0.22 0  7.920686690842305 0.22 0  7.910772527197484 0.22 0  7.900858363552682 0.22 0  7.890944199908105 0.22 0  7.88103003626337 0.22 0  7.87111587261855 0.22 0  7.861201708973858 0.22 0  7.851287545329257 0.22 0  7.841373381684436 0.22 0  7.831459218039615 0.22 0  7.821545054395035 0.22 0  7.811630890750322 0.22 0  7.801716727105502 0.22 0  7.791802563460787 0.22 0  7.781888399816208 0.22 0  7.771974236171387 0.22 0  7.762060072526567 0.22 0  7.752145908881964 0.22 0  7.742231745237274 0.22 0  7.732317581592453 0.22 0  7.722403417947716 0.22 0  7.712489254303141 0.22 0  7.702575090658339 0.22 0  7.692660927013642 0.22 0  7.682746763369046 0.22 0  7.672832599724225 0.22 0  7.662918436079405 0.22 0  7.653004272434819 0.22 0  7.643090108790111 0.22 0  7.633175945145291 0.22 0  7.623261781500571 0.22 0  7.613347617855996 0.22 0  7.603433454211177 0.22 0  7.593519290566356 0.22 0  7.583605126921748 0.22 0  7.573690963277063 0.22 0  7.563776799632242 0.22 0  7.5538626359875 0.22 0  7.543948472342924 0.22 0  7.534034308698129 0.22 0  7.524120145053308 0.22 0  7.514205981408487 0.22 0  7.504291817763667 0.22 0  7.494377654118846 0.22 0  7.484463490474027 0.22 0  7.474549326829206 0.22 0  7.464635163184385 0.22 0  7.454720999539565 0.22 0  7.444806835894744 0.22 0  7.434892672249925 0.22 0  7.424978508605104 0.22 0  7.415064344960284 0.22 0  7.405150181315463 0.22 0  7.395236017670642 0.22 0  7.385321854025823 0.22 0  7.375407690381002 0.22 0  7.365493526736182 0.22 0  7.355579363091362 0.22 0  7.345665199446541 0.22 0  7.335751035801721 0.22 0  7.3258368721569 0.22 0  7.315922708512131 0.22 0  7.306008544867555 0.22 0  7.296094381222787 0.22 0  7.286180217577966 0.22 0  7.276266053933307 0.22 0  7.266351890288672 0.22 0  7.256437726643852 0.22 0  7.24652356299906 0.22 0  7.236609399354484 0.22 0  7.226695235709738 0.22 0  7.216781072064918 0.22 0  7.206866908420237 0.22 0  7.196952744775624 0.22 0  7.187038581130803 0.22 0  7.177124417485989 0.22 0  7.167210253841413 0.22 0  7.15729609019669 0.22 0  7.147381926551869 0.22 0  7.137467762907166 0.22 0  7.127609887754289 0.22 0  7.119267423713023 0.22 0  7.112902479254871 0.22 0  7.108462887920409 0.22 0  7.105141639945627 0.22 0  7.101184123304556 0.22 0  7.09900000000009 0.22 0  7.097999999999909 0.22 0  7.09699999999975 0.22 0  7.095999999999861 0.22 0  7.09499999999993 0.22 0  7.093999999999729 0.22 0  7.092999999999591 0.22 0  7.091999999999723 0.22 0  7.090999999999771 0.22 0  7.089999999999549 0.22 0  7.088999999999444 0.22 0  7.087999999999584 0.22 0  7.086999999999611 0.22 0  7.085999999999368 0.22 0  7.084999999999305 0.22 0  7.083999999999445 0.22 0  7.082999999999451 0.22 0  7.081999999999375 0.22 0  7.080999999999514 0.22 0  7.079999999999653 0.22 0  7.078999999999639 0.22 0  7.077999999999584 0.22 0  7.076999999999722 0.22 0  7.075999999999861 0.22 0  7.074999999999826 0.22 0  7.073999999999792 0.22 0  7.07299999999993 0.22 0  7.072000000000069 0.22 0  7.071000000000014 0.22 0  7.069999999999999 0.22 0  7.069000000000139 0.22 0  7.068000000000278 0.22 0  7.067000000000201 0.22 0  7.066000000000208 0.22 0  7.065000000000347 0.22 0  7.064000000000472 0.22 0  7.063000000000389 0.22 0  7.062000000000416 0.22 0  7.061000000000555 0.22 0  7.060000000000451 0.22 0  7.059000000000228 0.22 0  7.058000000000278 0.22 0  7.057000000000409 0.22 0  7.05600000000027 0.22 0  7.055000000000069 0.22 0  7.054000000000139 0.22 0  7.05300000000025 0.22 0  7.05200000000009 0.22 0  7.05099999999991 0.22 0  7.05 0.22 0  7.04900000000009 0.22 0  7.047999999999909 0.22 0  7.04699999999975 0.22 0  7.045999999999861 0.22 0  7.044999999999931 0.22 0  7.04399999999973 0.22 0  7.042999999999591 0.22 0  7.041999999999723 0.22 0  7.040999999999771 0.22 0  7.039999999999549 0.22 0  7.038999999999445 0.22 0  7.037999999999584 0.22 0  7.036999999999612 0.22 0  7.035999999999528 0.22 0  7.034999999999653 0.22 0  7.033999999999792 0.22 0  7.032999999999799 0.22 0  7.031999999999723 0.22 0  7.030999999999861 0.22 0  7.03 0.22 0  7.028999999999987 0.22 0  7.02799999999993 0.22 0  7.027000000000069 0.22 0  7.026000000000209 0.22 0  7.025000000000174 0.22 0  7.024000000000139 0.22 0  7.023000000000278 0.22 0  7.022000000000416 0.22 0  7.021000000000361 0.22 0  7.020000000000347 0.22 0  7.019000000000486 0.22 0  7.018000000000624 0.22 0  7.017000000000548 0.22 0  7.016000000000555 0.22 0  7.015000000000694 0.22 0  7.014000000000632 0.22 0  7.013000000000389 0.22 0  7.012000000000416 0.22 0  7.011000000000555 0.22 0  7.010000000000451 0.22 0  7.009000000000229 0.22 0  7.008000000000278 0.22 0  7.007000000000409 0.22 0  7.00600000000027 0.22 0  7.005000000000069 0.22 0  7.004000000000139 0.22 0  7.00300000000025 0.22 0  7.00200000000009 0.22 0  7.00099999999991 0.22 0  6.994809698470582 0.22 0  6.991569006236496 0.22 0  6.987074728859082 0.22 0  6.980583540116057 0.22 0  6.972279556173985 0.22 0  6.962550869064059 0.22 0  6.952627664228347 0.22 0  6.942704459392635 0.22 0  6.932781254556923 0.22 0  6.922858049721211 0.22 0  6.912934844885499 0.22 0  6.903011640049788 0.22 0  6.893088435214075 0.22 0  6.883165230378363 0.22 0  6.873242025542651 0.22 0
[...]
<PointData  Scalars="concentration"> 
<DataArray  type="Float64"  Name="concentration"  format="ascii">5.0000000000000000e-01  5.0000005908420564e-01  5.0000005912036405e-01  1.0000000000000000e+00  1.0000000000000000e+00  5.0000000000000000e-01  5.0000000126543387e-01  5.0000000261079336e-01  5.0000000411468348e-01  5.0000000586362170e-01  5.0000000796956523e-01  5.0000001054264742e-01  5.0000001375387082e-01  5.0000001776486935e-01  5.0000002285508083e-01  5.0000002924370934e-01  5.0000003728555320e-01  5.0000004760035999e-01  5.0000006068082170e-01  5.0000007735371499e-01  5.0000009775563425e-01  5.0000012416770634e-01  5.0000015754348481e-01  5.0000019945451013e-01  5.0000025233986645e-01  5.0000031882342955e-01  5.0000040422258607e-01  5.0000050805064089e-01  5.0000064077894824e-01  5.0000080756314436e-01  5.0000101577047507e-01  5.0000127639894132e-01  5.0000160220867595e-01  5.0000201695715751e-01  5.0000251721070899e-01  5.0000315271483853e-01  5.0000394439887419e-01  5.0000492566164512e-01  5.0000614174025548e-01  5.0000765213300424e-01  5.0000955605249087e-01  5.0001182874705186e-01  5.0001469701837875e-01  5.0001823726936845e-01  5.0002259439570262e-01  5.0002794158813346e-01  5.0003449371920194e-01  5.0004258932626677e-01  5.0005245985453461e-01  5.0006453159219555e-01  5.0007930689899338e-01  5.0009729833301819e-01  5.0011922031647904e-01  5.0014583541181157e-01  5.0017816522594294e-01  5.0021718486162992e-01  5.0026447190671908e-01  5.0032156745430523e-01  5.0039032876349587e-01  5.0047311478543621e-01  5.0057214503217251e-01  5.0069047522734011e-01  5.0083332149913562e-01  5.0100223036541913e-01  5.0120351381625017e-01  5.0144207915076167e-01  5.0172579983526266e-01  5.0206104988077471e-01  5.0245634734311972e-01  5.0292136192364478e-01  5.0346704790817554e-01  5.0410657684437243e-01  5.0485524509124335e-01  5.0572542505246898e-01  5.0673687341129992e-01  5.0790545062605041e-01  5.0925902144625146e-01  5.1081974186031309e-01  5.1261067001743155e-01  5.1466624156486496e-01  5.1700692342758225e-01  5.1967227691580709e-01  5.2269781799382431e-01  5.2611782600239199e-01  5.2996597562704939e-01  5.3428546000574184e-01  5.3910815138134238e-01  5.4447892317331292e-01  5.5043213034227134e-01  5.5700209326705263e-01  5.6421324293030195e-01  5.7209039836472053e-01  5.8064908795612136e-01  5.8988887627632147e-01  5.9979836964885491e-01  6.1034247277543596e-01  6.2140664650511068e-01  6.3308356893618178e-01  6.4516157260450513e-01  6.5747053250659637e-01  6.6988465234027617e-01  6.8214650476416994e-01  6.9422446797068138e-01  7.0554650602706481e-01  7.1615915993112633e-01  7.2574615307737134e-01  7.3385573540726479e-01  7.4035550120575011e-01  7.4522364163675048e-01  7.4810698749456517e-01  7.4908340360478931e-01  7.4801816664018117e-01  7.4502649704861901e-01  7.4021270903752301e-01  7.3359914642531743e-01  7.2543756077214527e-01  7.1583215520029053e-01  7.0526906800658273e-01  6.9389478121183401e-01  6.8190223331627464e-01  6.6956498757072103e-01  6.5710944669923677e-01  6.4481088582938240e-01  6.3277727687876750e-01  6.2116650802103512e-01  6.1006883180134330e-01  5.9954135420593502e-01  5.8965737090288273e-01  5.8044367487354598e-01  5.7189946609972497e-01  5.6405087249732300e-01  5.5685991572667626e-01  5.5031343825969925e-01  5.4437535930159486e-01  5.3901870090006587e-01  5.3420171204594391e-01  5.2989267394644257e-01  5.2605485445760558e-01  5.2264886027951407e-01  5.1962812109640055e-01  5.1696928901700157e-01  5.1463216130689271e-01  5.1258495002741222e-01  5.1080166168740926e-01  5.0924502134120664e-01  5.0789435203985667e-01  5.0672275518303844e-01  5.0571373822370147e-01  5.0484588640240113e-01  5.0410052874175126e-01  5.0346262243747075e-01  5.0291752322339700e-01  5.0245336717625955e-01  5.0205887273838790e-01  5.0172401445145043e-01  5.0144077896940464e-01  5.0120223926303475e-01  5.0100131185235020e-01  5.0083236501804873e-01  5.0069047936678213e-01  5.0057186477573157e-01  5.0047271740530086e-01  5.0039015493589512e-01  5.0032157361140528e-01  5.0026436182839484e-01  5.0021725748939871e-01  5.0017820180034134e-01  5.0014587058796700e-01  5.0011918877306683e-01  5.0009723394338201e-01  5.0007957687334215e-01  5.0006457725096853e-01  5.0005249586539047e-01  5.0004262992273851e-01  5.0003456303716809e-01  5.0002796636873303e-01  5.0002259547024142e-01  5.0001831238480532e-01  5.0001472000700919e-01  5.0001185926497183e-01  5.0000954232106365e-01  5.0000766995439172e-01  5.0000615224105516e-01  5.0000492978057287e-01  5.0000396215344556e-01  5.0000315838979026e-01  5.0000252480249963e-01  5.0000201588409898e-01  5.0000160795771431e-01  5.0000127991820609e-01  5.0000101774383610e-01  5.0000081315858347e-01  5.0000064470250860e-01  5.0000051142565394e-01  5.0000040558766823e-01  5.0000032265908223e-01  5.0000025670054116e-01  5.0000020430739556e-01  5.0000016349208809e-01  5.0000013158023859e-01  5.0000010715423060e-01  5.0000008865977474e-01  5.0000007527703738e-01  5.0000006616209269e-01  5.0000006085893689e-01  5.0000005929132418e-01  5.0000005921308843e-01  5.0000005900131672e-01  5.0000005917613710e-01  5.0000005929539837e-01  5.0000005927815583e-01  5.0000005892933308e-01  5.0000005924863522e-01  5.0000005914651247e-01  5.0000005922029200e-01  5.0000005931576808e-01  5.0000006086670468e-01  5.0000006604211922e-01  5.0000007498222099e-01  5.0000008813796792e-01  5.0000010614368040e-01  5.0000012993959730e-01  5.0000016135742431e-01  5.0000020129128153e-01  5.0000025206584398e-01  5.0000031669427136e-01  5.0000039756543146e-01  5.0000049969585125e-01  5.0000062808750012e-01  5.0000078859338315e-01  5.0000098968321460e-01  5.0000124135465451e-01  5.0000155586138395e-01  5.0000194793452268e-01  5.0000243426189883e-01  5.0000304240961679e-01  5.0000379501946102e-01  5.0000473216780883e-01  5.0000589397859196e-01  5.0000733366905925e-01  5.0000911340410747e-01  5.0001130285509188e-01  5.0001401667651779e-01  5.0001734558277544e-01  5.0002145340196091e-01  5.0002649958531209e-01  5.0003269460275890e-01  5.0004028122748656e-01  5.0004952682735471e-01  5.0006087244287556e-01  5.0007465427195197e-01  5.0009148619432109e-01  5.0011194963529004e-01  5.0013680494779811e-01  5.0016691590959483e-01  5.0020321526527467e-01  5.0024725073745646e-01  5.0030014426381830e-01  5.0036397684262646e-01  5.0044065000454874e-01  5.0053257995498490e-01  5.0064241942908094e-01  5.0077398211268154e-01  5.0093110366437910e-01  5.0111765561972266e-01  5.0133916257449285e-01  5.0160131178506540e-01  5.0191131928204835e-01  5.0227740696732603e-01  5.0270902802753936e-01  5.0321525249146493e-01  5.0380672505286284e-01  5.0449990887221974e-01  5.0530980744287723e-01  5.0625113309670644e-01  5.0734317845553945e-01  5.0860557871842038e-01  5.1006453345696690e-01  5.1174783022409931e-01  5.1368602452526546e-01  5.1589998218104505e-01  5.1843011881760437e-01  5.2131444879317301e-01  5.2459610263405632e-01  5.2831436179396229e-01  5.3251569312273206e-01  5.3725446984077851e-01  5.4258388248713296e-01  5.4856034241833318e-01  5.5525806312154558e-01  5.6275129503642307e-01  5.7111616396195153e-01  5.8030617095208392e-01  5.9058496660477433e-01  6.0200420524452358e-01  6.1461223814327259e-01  6.2857997872849691e-01  6.4413360460064728e-01  6.6137776777911594e-01  6.8045733721432811e-01  7.0204975362459543e-01  7.2635400716172172e-01  7.5463378571487327e-01  7.8775018914923267e-01  8.2152292700610163e-01  8.5346428172981814e-01  8.8168327723742745e-01  9.0804264504471954e-01  9.5860620346439851e-01  1.0000000000000000e+00  1.0000000000000000e+00  1.0000000000000000e+00  1.0000000000000000e+00  1.0000000000000000e+00  1.0000000000000000e+00  1.0000000000000000e+00  1.0000000000000000e+00  1.0000000000000000e+00  1.0000000000000000e+00  1.0000000000000000e+00  1.0000000000000000e+00  1.0000000000000000e+00  1.0000000000000000e+00  1.0000000000000000e+00  1.0000000000000000e+00  1.0000000000000000e+00  1.0000000000000000e+00  1.0000000000000000e+00  1.0000000000000000e+00  1.0000000000000000e+00  1.0000000000000000e+00  1.0000000000000000e+00  1.0000000000000000e+00  1.0000000000000000e+00  1.0000000000000000e+00  1.0000000000000000e+00  1.0000000000000000e+00  1.0000000000000000e+00  1.0000000000000000e+00  1.0000000000000000e+00  1.0000000000000000e+00  1.0000000000000000e+00  1.0000000000000000e+00  1.0000000000000000e+00  1.0000000000000000e+00  1.0000000000000000e+00  1.0000000000000000e+00  1.0000000000000000e+00  1.0000000000000000e+00  1.0000000000000000e+00  1.0000000000000000e+00  1.0000000000000000e+00  1.0000000000000000e+00  1.0000000000000000e+00  1.0000000000000000e+00  9.9999999999999989e-01  1.0000000000000000e+00  1.0000000000000000e+00  1.0000000000000000e+00  1.0000000000000000e+00  1.0000000000000000e+00  1.0000000000000000e+00  1.0000000000000000e+00  1.0000000000000000e+00  1.0000000000000000e+00  1.0000000000000000e+00  1.0000000000000000e+00  1.0000000000000000e+00  1.0000000000000000e+00  1.0000000000000000e+00  1.0000000000000000e+00  1.0000000000000000e+00  1.0000000000000000e+00  1.0000000000000000e+00  1.0000000000000000e+00  1.0000000000000000e+00  1.0000000000000000e+00  1.0000000000000000e+00  1.0000000000000000e+00  1.0000000000000000e+00  1.0000000000000000e+00  1.0000000000000000e+00  1.0000000000000000e+00  1.0000000000000000e+00  1.0000000000000000e+00  1.0000000000000000e+00  1.0000000000000000e+00  1.0000000000000000e+00  1.0000000000000000e+00  9.9999999999999989e-01  1.0000000000000000e+00  1.0000000000000000e+00  1.0000000000000000e+00  1.0000000000000000e+00  1.0000000000000000e+00  1.0000000000000000e+00  1.0000000000000000e+00  1.0000000000000000e+00  1.0000000000000000e+00  1.0000000000000000e+00  9.9999999999999989e-01  1.0000000000000000e+00  1.0000000000000000e+00  1.0000000000000000e+00  1.0000000000000000e+00  1.0000000000000000e+00  1.0000000000000000e+00  1.0000000000000000e+00  9.0899659738970351e-01  8.8439742088937134e-01  8.5563815140961308e-01  8.2246768771357814e-01  7.8863746365492704e-01  7.5607378588187557e-01  7.2757187786124256e-01  7.0287266283600303e-01  6.8119876132546942e-01  6.6191496907334624e-01  6.4455327513927130e-01  6.2899570861601239e-01  6.1496986782379537e-01  6.0226294836547056e-01  5.9083186968851731e-01  5.8048815265572429e-01  5.7121059181437739e-01  5.6284251398072671e-01  5.5534530225057321e-01  5.4867802571844937e-01  5.4264883166961209e-01  5.3728725462262894e-01  5.3253201807671835e-01  5.2832241352567499e-01  5.2459847114892921e-01  5.2131433812303218e-01  5.1842646577329277e-01  5.1589124593243452e-01  5.1367256894466484e-01  5.1173879022813462e-01  5.1005629591191037e-01  5.0859600165041141e-01  5.0732774483435328e-01  5.0623511367782770e-01  5.0529565820487599e-01  5.0448903126985978e-01  5.0379651081358745e-01  5.0320406231462333e-01  5.0269809762037532e-01  5.0226821496209273e-01  5.0190408835841582e-01  5.0159457284283826e-01  5.0133249385129786e-01  5.0111171571635660e-01  5.0092600161464496e-01  5.0076993415598303e-01  5.0063906658121549e-01  5.0052935206425719e-01  5.0043779868068206e-01  5.0036129261825235e-01  5.0029799080384518e-01  5.0024541025338343e-01  5.0020162496766563e-01  5.0016547879102624e-01  5.0013554709249408e-01  5.0011091687131637e-01  5.0009063599447023e-01  5.0007396008035887e-01  5.0006026780763402e-01  5.0004899669077441e-01  5.0003979828597844e-01  5.0003239239274011e-01  5.0002615282254070e-01  5.0002119150377433e-01  5.0001713400749692e-01  5.0001382330586730e-01  5.0001114085841980e-01  5.0000900873886123e-01  5.0000722448041657e-01  5.0000580796169047e-01  5.0000466644297170e-01  5.0000374148180093e-01  5.0000299598048270e-01  5.0000239669188573e-01  5.0000191512853709e-01  5.0000152994606151e-01  5.0000121976237233e-01  5.0000097265528187e-01  5.0000077416118760e-01  5.0000061548410946e-01  5.0000048893037685e-01  5.0000038800708357e-01  5.0000030788220506e-01  5.0000024383219699e-01  5.0000019317691291e-01  5.0000015276034515e-01  5.0000012066997324e-01  5.0000009524653444e-01  5.0000007512395639e-01  5.0000005920673241e-01  5.0000004657369612e-01  5.0000003659262060e-01  5.0000002872653437e-01  5.0000002244920272e-01  5.0000001750026513e-01  5.0000001356232082e-01  5.0000001039199826e-01  5.0000000787155408e-01  5.0000000580566695e-01  5.0000000407634948e-01  5.0000000258861355e-01  5.0000000125621813e-01  5.0000000000000000e-01  5.0000000000000000e-01  5.0000000000000000e-01  5.0000000000000000e-01  5.0000000000000000e-01  5.0000000000000000e-01  5.0000000000000000e-01  5.0000000000000000e-01  5.0000000000000000e-01  5.0000000000000000e-01  5.0000000000000000e-01  8.0518297900429159e-01  7.8007354024824371e-01  8.1736428869451727e-01  8.5826754132162286e-01  8.8745542528059007e-01  8.5065958862964042e-01  8.9447775966690579e-01  9.2333736180633152e-01  9.2002938796850509e-01  9.1807636037093288e-01  9.3892297118102475e-01  8.8661922770267565e-01  9.4201696176245742e-01  8.8856715534942943e-01  9.5171624906481178e-01  9.5133873847754769e-01  9.6005406626432088e-01  7.5415000442647961e-01  9.4573385941244015e-01  6.8218123346047588e-01  9.6464915123234651e-01  6.3754649404228192e-01  9.3755684425660324e-01  9.3524339320095151e-01  7.8992266519518417e-01  6.0085638393706764e-01  5.0000014501846557e-01  5.0000072616384728e-01  5.0000001191914212e-01  5.0000351027533674e-01  5.0000006935750574e-01  5.0001612054846944e-01  5.0006957465628410e-01  5.0000035922041419e-01  5.6606034088395940e-01  5.0028085865214322e-01  5.2551103368106344e-01  5.0106310034939483e-01  5.0902403700345966e-01  5.0000177325770911e-01  5.0000827412309790e-01  5.0003476567504068e-01  5.4520916076109860e-01  5.0014720943679691e-01  5.1646363434509690e-01  5.0060701407725616e-01  5.0557388311016505e-01  5.0294399741208662e-01  9.6507033642707696e-01  5.0173730845116193e-01  9.6075163950991793e-01  9.7024934606594637e-01  9.7131836915640191e-01  7.0749625854642884e-01  7.4646780793229683e-01  9.7026991350781489e-01  9.7216925934777720e-01  9.3417979865626488e-01  8.8177655578933178e-01  9.7464820584504719e-01  8.2003986274752183e-01  8.7384712037279222e-01  9.7389087100507266e-01  9.7523518883776872e-01  9.1712156399729095e-01  7.4975027036487696e-01  7.6329383175067467e-01  9.7913381595217541e-01  8.2272027386373314e-01  7.7367297080150943e-01  9.3175432018376203e-01  9.7598039195699993e-01  9.6971655906471088e-01  9.7920653541628677e-01  5.0988275074973466e-01  5.1558184126502138e-01  5.0029878952486950e-01  5.0000031309081283e-01  5.2705670814482763e-01  5.0000002839950208e-01  5.0000164402221936e-01  5.0053368037035095e-01  5.0000016184283236e-01  5.0000773038767377e-01  5.4040580164488783e-01  8.4065097194341687e-01  5.0000081808406571e-01  5.0003433213731985e-01  5.0007750609818702e-01  5.0014330372777405e-01  5.0000393903692297e-01  5.4237655128550677e-01  5.0055668659017871e-01  5.1531468932817226e-01  5.0001721532398580e-01  5.2827730893213676e-01  5.0029563961938162e-01  5.0968351017184432e-01  5.0013708816487401e-01  5.0007050598526648e-01  5.0003301308876957e-01  5.0001718244133708e-01  5.0000741247290603e-01  5.0000380408624434e-01  5.0000158928230609e-01  5.0000078247947821e-01  5.0000033399028709e-01  5.0320444123318098e-01  5.0000015629185057e-01  5.0000003035498886e-01  5.0536787201596700e-01  5.0309081592803018e-01  5.0512925859354840e-01  9.7033226302328712e-01  6.0044585499072500e-01  9.7963288975509422e-01  9.8187768465709169e-01  5.9359624439555558e-01  5.7114174718996225e-01  5.6581244968892797e-01  8.0800850858518358e-01  7.3374552990657671e-01  9.1183041939015330e-01  9.8178268471475683e-01  6.4128977436504975e-01  9.1517880194658441e-01  6.3108490716133114e-01  5.0180763194849054e-01  5.0104910870505748e-01  7.9478544678455521e-01  5.0180634524053580e-01  5.0104969782072206e-01  8.4360895681604875e-01  5.0000000485622831e-01  5.0000008065542367e-01  5.0000000518967469e-01  5.0000008309783806e-01  6.8267057304043732e-01  9.1684444517020014e-01  9.8381497321493594e-01  8.2036491992182325e-01  9.7117642390535297e-01  6.5739417811613454e-01  7.8465814639792775e-01  8.8233590366721282e-01  6.8995247764457790e-01  8.5644557750893968e-01  8.2353082076928807e-01  7.4428283538081175e-01  9.4511043958841834e-01  9.6881740274154160e-01  9.8583797527652894e-01  8.7938314450143495e-01  9.3446033464540867e-01  9.4117851569671895e-01  6.9906367380279644e-01  9.3912641560572263e-01  9.8473642563703745e-01  9.8021880179185317e-01  7.6953836760977978e-01  7.5904494814162005e-01  6.9573181094274061e-01  8.9443110061868381e-01  5.0089981957359353e-01  5.1844052497658411e-01  5.2812088464840401e-01  5.0051128747341667e-01  5.0013247287603990e-01  5.0024149537718632e-01  5.1014373827371340e-01  5.0630898114153566e-01  5.0003148397774433e-01  5.0005938437805464e-01  5.0000703086063070e-01  5.0001366969401340e-01  5.0000016217279641e-01  5.0000148555231883e-01  5.0000058512738077e-01  5.0000001364934188e-01  5.0000284205666456e-01  9.8243474833829925e-01  5.0191698387669093e-01  5.0322621081878893e-01  5.0001323234200801e-01  5.0000005494294264e-01  5.3991831415512959e-01  5.5774865141407204e-01  5.0000295851436893e-01  5.0005759937994632e-01  5.0000028654277173e-01  5.0023465288413105e-01  5.6034890375507096e-01  5.0000029860086226e-01  5.2938120447389780e-01  5.0089130908414525e-01  5.1050232504146320e-01  5.0000143905182726e-01  5.0000678342133753e-01  5.0004247631582222e-01  5.4129331694222749e-01  5.0017289778822538e-01  5.0336213162923438e-01  5.1930604142217207e-01  5.0049844949068800e-01  5.0652557314939106e-01  5.0000060991585449e-01  5.0000005733394404e-01  5.0199432612205008e-01  5.9638865517919926e-01  5.0000016381120782e-01  5.0000001379615533e-01  5.9583765137616751e-01  9.8552974280605044e-01  9.8625659203165017e-01  9.4438296309472780e-01  8.7866554783752648e-01  7.4486863329246833e-01  6.3500210063314488e-01  8.7860572681563076e-01  7.9201330983069240e-01  6.2106367800067286e-01  8.5405224343370834e-01  9.5331073336968419e-01  7.8830849494360977e-01  9.8650567549516344e-01  9.3856135310338107e-01  9.8821050720213166e-01  9.8481954030449614e-01  9.6947413903531743e-01  9.8200904009109924e-01  9.6033401360139636e-01  9.1389952531126606e-01  8.6228742036714756e-01  9.8817865088807888e-01  8.5445063939954302e-01  9.5751280867960664e-01  8.8759099613743275e-01  9.6179884908660485e-01  9.6390584079981534e-01  7.1379239978046127e-01  9.0952032164710894e-01  9.4236562425623049e-01  8.8878749526115330e-01  5.0000007238237798e-01  5.0000000367687347e-01  6.5577281383874830e-01  8.4069550548630689e-01  7.4523563530410497e-01  9.0492062821602115e-01  9.8840491623252213e-01  9.5761469932589194e-01  9.3628280554414967e-01  8.1980135513933372e-01  7.1433978835303302e-01  8.5226907237147032e-01  9.1459536295975163e-01  9.1621735253134373e-01  8.5238463506032880e-01  8.2205576907817424e-01  9.8410128672525266e-01  9.5805923190987874e-01  9.4740607690763501e-01  9.8305950822782440e-01  9.0233251774513057e-01  9.3320835477817510e-01  9.5416407497164857e-01  9.8863176150973031e-01  8.2032507277726818e-01  5.0002408572522283e-01  5.1326595209188031e-01  5.0001191265192124e-01  5.0000251118566219e-01  5.0000051341404583e-01  5.0000010024019692e-01  5.2063459929609723e-01  5.0037887345316312e-01  5.0009545808618350e-01  5.0002245354531460e-01  5.0000496021717478e-01  5.0000103980660981e-01  5.0010646663458325e-01  5.0435118454280414e-01  5.0711765367302220e-01  5.0005048771980942e-01  5.0000009907256393e-01  9.0272189649820711e-01  5.0000102934097290e-01  5.0000050744227520e-01  5.0000491344641484e-01  5.0000248649175216e-01  5.0020907940669990e-01  5.0037692608893614e-01  5.0001148724751754e-01  7.6808189472888633e-01  5.1310028380697659e-01  5.0002219666257541e-01  7.2454225749564916e-01  5.0009409981520603e-01  5.2034170256775170e-01  9.6468238693520603e-01  6.8002931547745749e-01  5.0432029762667130e-01  5.0705989978288712e-01  6.4698898108768332e-01  8.8177720865000320e-01  5.0154182644140743e-01  5.0089049135457020e-01  5.8117566340287252e-01  5