<?xml version="1.0"?>
<VTKFile type="UnstructuredGrid"  version="0.1"  >
<UnstructuredGrid>
<Piece  NumberOfPoints="4882" NumberOfCells="9241">
<Points>
<DataArray  type="Float64"  NumberOfComponents="3"  format="ascii">6 0.1 0  8 0.1 0  8 0.22 0  7.1 0.22 0  7 0.22 0  6 0.22 0  6.01 0.1 0  6.02 0.1 0  6.03 0.1 0  6.04 0.1 0  6.05 0.1 0  6.06 0.1 0  6.07 0.1 0  6.08 0.1 0  6.09 0.1 0  6.1 0.1 0  6.109999999999999 0.1 0  6.12 0.1 0  6.13 0.1 0  6.14 0.1 0  6.149999999999999 0.1 0  6.16 0.1 0  6.17 0.1 0  6.18 0.1 0  6.19 0.1 0  6.199999999999999 0.1 0  6.21 0.1 0  6.22 0.1 0  6.23 0.1 0  6.239999999999999 0.1 0  6.25 0.1 0  6.26 0.1 0  6.27 0.1 0  6.279999999999999 0.1 0  6.289999999999999 0.1 0  6.3 0.1 0  6.31 0.1 0  6.319999999999999 0.1 0  6.329999999999999 0.1 0  6.34 0.1 0  6.35 0.1 0  6.359999999999999 0.1 0  6.369999999999999 0.1 0  6.379999999999999 0.1 0  6.389999999999999 0.1 0  6.399999999999999 0.1 0  6.409999999999999 0.1 0  6.419999999999999 0.1 0  6.429999999999999 0.1 0  6.44 0.1 0  6.449999999999999 0.1 0  6.459999999999999 0.1 0  6.469999999999999 0.1 0  6.479999999999999 0.1 0  6.489999999999999 0.1 0  6.499999999999999 0.1 0  6.509999999999999 0.1 0  6.519999999999999 0.1 0  6.529999999999998 0.1 0  6.539999999999999 0.1 0  6.549999999999999 0.1 0  6.559999999999999 0.1 0  6.569999999999999 0.1 0  6.579999999999998 0.1 0  6.589999999999998 0.1 0  6.599999999999999 0.1 0  6.609999999999999 0.1 0  6.619999999999998 0.1 0  6.629999999999998 0.1 0  6.639999999999999 0.1 0  6.649999999999999 0.1 0  6.659999999999998 0.1 0  6.669999999999998 0.1 0  6.679999999999999 0.1 0  6.689999999999999 0.1 0  6.699999999999998 0.1 0  6.709999999999998 0.1 0  6.719999999999999 0.1 0  6.729999999999999 0.1 0  6.739999999999998 0.1 0  6.749999999999998 0.1 0  6.759999999999998 0.1 0  6.769999999999999 0.1 0  6.779999999999998 0.1 0  6.789999999999998 0.1 0  6.799999999999999 0.1 0  6.809999999999999 0.1 0  6.819999999999999 0.1 0  6.829999999999998 0.1 0  6.839999999999999 0.1 0  6.849999999999999 0.1 0  6.859999999999999 0.1 0  6.869999999999998 0.1 0  6.879999999999999 0.1 0  6.889999999999999 0.1 0  6.899999999999999 0.1 0  6.909999999999998 0.1 0  6.919999999999998 0.1 0  6.929999999999999 0.1 0  6.939999999999999 0.1 0  6.949999999999998 0.1 0  6.959999999999999 0.1 0  6.969999999999999 0.1 0  6.979999999999999 0.1 0  6.989999999999998 0.1 0  6.999999999999999 0.1 0  7.009999999999999 0.1 0  7.019999999999999 0.1 0  7.029999999999999 0.1 0  7.039999999999999 0.1 0  7.049999999999999 0.1 0  7.059999999999999 0.1 0  7.069999999999999 0.1 0  7.079999999999998 0.1 0  7.089999999999999 0.1 0  7.099999999999999 0.1 0  7.109999999999999 0.1 0  7.119999999999999 0.1 0  7.129999999999999 0.1 0  7.139999999999999 0.1 0  7.149999999999999 0.1 0  7.159999999999999 0.1 0  7.169999999999999 0.1 0  7.179999999999999 0.1 0  7.19 0.1 0  7.199999999999999 0.1 0  7.209999999999999 0.1 0  7.219999999999999 0.1 0  7.229999999999999 0.1 0  7.239999999999998 0.1 0  7.249999999999999 0.1 0  7.259999999999999 0.1 0  7.27 0.1 0  7.279999999999999 0.1 0  7.289999999999999 0.1 0  7.299999999999999 0.1 0  7.309999999999999 0.1 0  7.319999999999999 0.1 0  7.329999999999999 0.1 0  7.339999999999999 0.1 0  7.35 0.1 0  7.359999999999999 0.1 0  7.369999999999999 0.1 0  7.379999999999999 0.1 0  7.389999999999999 0.1 0  7.399999999999999 0.1 0  7.409999999999999 0.1 0  7.419999999999999 0.1 0  7.43 0.1 0  7.44 0.1 0  7.449999999999999 0.1 0  7.459999999999999 0.1 0  7.469999999999999 0.1 0  7.48 0.1 0  7.489999999999999 0.1 0  7.499999999999999 0.1 0  7.51 0.1 0  7.52 0.1 0  7.529999999999999 0.1 0  7.539999999999999 0.1 0  7.549999999999999 0.1 0  7.56 0.1 0  7.569999999999999 0.1 0  7.579999999999999 0.1 0  7.59 0.1 0  7.6 0.1 0  7.609999999999999 0.1 0  7.619999999999999 0.1 0  7.629999999999999 0.1 0  7.64 0.1 0  7.649999999999999 0.1 0  7.66 0.1 0  7.67 0.1 0  7.68 0.1 0  7.69 0.1 0  7.699999999999999 0.1 0  7.709999999999999 0.1 0  7.72 0.1 0  7.73 0.1 0  7.739999999999999 0.1 0  7.75 0.1 0  7.76 0.1 0  7.77 0.1 0  7.779999999999999 0.1 0  7.789999999999999 0.1 0  7.8 0.1 0  7.81 0.1 0  7.82 0.1 0  7.83 0.1 0  7.84 0.1 0  7.85 0.1 0  7.859999999999999 0.1 0  7.869999999999999 0.1 0  7.88 0.1 0  7.89 0.1 0  7.899999999999999 0.1 0  7.91 0.1 0  7.92 0.1 0  7.93 0.1 0  7.94 0.1 0  7.949999999999999 0.1 0  7.96 0.1 0  7.97 0.1 0  7.98 0.1 0  7.99 0.1 0  8 0.1099999999999788 0  8 0.1199999999999512 0  8 0.1299999999999173 0  8 0.1399999999998952 0  8 0.1499999999998641 0  8 0.1599999999998293 0  8 0.1699999999998686 0  8 0.1799999999998971 0  8 0.1899999999999147 0  8 0.1999999999999323 0  8 0.2099999999999607 0  7.990085836355354 0.22 0  7.980171672710533 0.22 0  7.970257509065752 0.22 0  7.960343345421177 0.22 0  7.950429181776419 0.22 0  7.940515018131598 0.22 0  7.930600854486929 0.22 0  7.920686690842305 0.22 0  7.910772527197484 0.22 0  7.900858363552682 0.22 0  7.890944199908105 0.22 0  7.88103003626337 0.22 0  7.87111587261855 0.22 0  7.861201708973858 0.22 0  7.851287545329257 0.22 0  7.841373381684436 0.22 0  7.831459218039615 0.22 0  7.821545054395035 0.22 0  7.811630890750322 0.22 0  7.801716727105502 0.22 0  7.791802563460787 0.22 0  7.781888399816208 0.22 0  7.771974236171387 0.22 0  7.762060072526567 0.22 0  7.752145908881964 0.22 0  7.742231745237274 0.22 0  7.732317581592453 0.22 0  7.722403417947716 0.22 0  7.712489254303141 0.22 0  7.702575090658339 0.22 0  7.692660927013642 0.22 0  7.682746763369046 0.22 0  7.672832599724225 0.22 0  7.662918436079405 0.22 0  7.653004272434819 0.22 0  7.643090108790111 0.22 0  7.633175945145291 0.22 0  7.623261781500571 0.22 0  7.613347617855996 0.22 0  7.603433454211177 0.22 0  7.593519290566356 0.22 0  7.583605126921748 0.22 0  7.573690963277063 0.22 0  7.563776799632242 0.22 0  7.5538626359875 0.22 0  7.543948472342924 0.22 0  7.534034308698129 0.22 0  7.524120145053308 0.22 0  7.514205981408487 0.22 0  7.504291817763667 0.22 0  7.494377654118846 0.22 0  7.484463490474027 0.22 0  7.474549326829206 0.22 0  7.464635163184385 0.22 0  7.454720999539565 0.22 0  7.444806835894744 0.22 0  7.434892672249925 0.22 0  7.424978508605104 0.22 0  7.415064344960284 0.22 0  7.405150181315463 0.22 0  7.395236017670642 0.22 0  7.385321854025823 0.22 0  7.375407690381002 0.22 0  7.365493526736182 0.22 0  7.355579363091362 0.22 0  7.345665199446541 0.22 0  7.335751035801721 0.22 0  7.3258368721569 0.22 0  7.315922708512131 0.22 0  7.306008544867555 0.22 0  7.296094381222787 0.22 0  7.286180217577966 0.22 0  7.276266053933307 0.22 0  7.266351890288672 0.22 0  7.256437726643852 0.22 0  7.24652356299906 0.22 0  7.236609399354484 0.22 0  7.226695235709738 0.22 0  7.216781072064918 0.22 0  7.206866908420237 0.22 0  7.196952744775624 0.22 0  7.187038581130803 0.22 0  7.177124417485989 0.22 0  7.167210253841413 0.22 0  7.15729609019669 0.22 0  7.147381926551869 0.22 0  7.137467762907166 0.22 0  7.127609887754289 0.22 0  7.119267423713023 0.22 0  7.112902479254871 0.22 0  7.108462887920409 0.22 0  7.105141639945627 0.22 0  7.101184123304556 0.22 0  7.09900000000009 0.22 0  7.097999999999909 0.22 0  7.09699999999975 0.22 0  7.095999999999861 0.22 0  7.09499999999993 0.22 0  7.093999999999729 0.22 0  7.092999999999591 0.22 0  7.091999999999723 0.22 0  7.090999999999771 0.22 0  7.089999999999549 0.22 0  7.088999999999444 0.22 0  7.087999999999584 0.22 0  7.086999999999611 0.22 0  7.085999999999368 0.22 0  7.084999999999305 0.22 0  7.083999999999445 0.22 0  7.082999999999451 0.22 0  7.081999999999375 0.22 0  7.080999999999514 0.22 0  7.079999999999653 0.22 0  7.078999999999639 0.22 0  7.077999999999584 0.22 0  7.076999999999722 0.22 0  7.075999999999861 0.22 0  7.074999999999826 0.22 0  7.073999999999792 0.22 0  7.07299999999993 0.22 0  7.072000000000069 0.22 0  7.071000000000014 0.22 0  7.069999999999999 0.22 0  7.069000000000139 0.22 0  7.068000000000278 0.22 0  7.067000000000201 0.22 0  7.066000000000208 0.22 0  7.065000000000347 0.22 0  7.064000000000472 0.22 0  7.063000000000389 0.22 0  7.062000000000416 0.22 0  7.061000000000555 0.22 0  7.060000000000451 0.22 0  7.059000000000228 0.22 0  7.058000000000278 0.22 0  7.057000000000409 0.22 0  7.05600000000027 0.22 0  7.055000000000069 0.22 0  7.054000000000139 0.22 0  7.05300000000025 0.22 0  7.05200000000009 0.22 0  7.05099999999991 0.22 0  7.05 0.22 0  7.04900000000009 0.22 0  7.047999999999909 0.22 0  7.04699999999975 0.22 0  7.045999999999861 0.22 0  7.044999999999931 0.22 0  7.04399999999973 0.22 0  7.042999999999591 0.22 0  7.041999999999723 0.22 0  7.040999999999771 0.22 0  7.039999999999549 0.22 0  7.038999999999445 0.22 0  7.037999999999584 0.22 0  7.036999999999612 0.22 0  7.035999999999528 0.22 0  7.034999999999653 0.22 0  7.033999999999792 0.22 0  7.032999999999799 0.22 0  7.031999999999723 0.22 0  7.030999999999861 0.22 0  7.03 0.22 0  7.028999999999987 0.22 0  7.02799999999993 0.22 0  7.027000000000069 0.22 0  7.026000000000209 0.22 0  7.025000000000174 0.22 0  7.024000000000139 0.22 0  7.023000000000278 0.22 0  7.022000000000416 0.22 0  7.021000000000361 0.22 0  7.020000000000347 0.22 0  7.019000000000486 0.22 0  7.018000000000624 0.22 0  7.017000000000548 0.22 0  7.016000000000555 0.22 0  7.015000000000694 0.22 0  7.014000000000632 0.22 0  7.013000000000389 0.22 0  7.012000000000416 0.22 0  7.011000000000555 0.22 0  7.010000000000451 0.22 0  7.009000000000229 0.22 0  7.008000000000278 0.22 0  7.007000000000409 0.22 0  7.00600000000027 0.22 0  7.005000000000069 0.22 0  7.004000000000139 0.22 0  7.00300000000025 0.22 0  7.00200000000009 0.22 0  7.00099999999991 0.22 0  6.994809698470582 0.22 0  6.991569006236496 0.22 0  6.987074728859082 0.22 0  6.980583540116057 0.22 0  6.972279556173985 0.22 0  6.962550869064059 0.22 0  6.952627664228347 0.22 0  6.942704459392635 0.22 0  6.932781254556923 0.22 0  6.922858049721211 0.22 0  6.912934844885499 0.22 0  6.903011640049788 0.22 0  6.893088435214075 0.22 0  6.883165230378363 0.22 0  6.873242025542651 0.22 0
[...]
<PointData  Scalars="concentration"> 
<DataArray  type="Float64"  Name="concentration"  format="ascii">5.0000000000000000e-01  5.1427421120242456e-01  5.1427473304543436e-01  1.0000000000000000e+00  1.0000000000000000e+00  5.0000000000000000e-01  5.0050893009491382e-01  5.0102001008602848e-01  5.0153516841692281e-01  5.0205631635849679e-01  5.0258562738906531e-01  5.0312480295789286e-01  5.0367624265878363e-01  5.0424156524599972e-01  5.0482349971013885e-01  5.0542309785263961e-01  5.0604259177442734e-01  5.0668571637159709e-01  5.0735350514853028e-01  5.0804877741594445e-01  5.0876895657987864e-01  5.0952354828849122e-01  5.1031165280033963e-01  5.1113477705482402e-01  5.1199617689426613e-01  5.1289775832253837e-01  5.1384590940433394e-01  5.1483290028911743e-01  5.1587157621171043e-01  5.1696099748236624e-01  5.1810255406883055e-01  5.1929975487739244e-01  5.2055520659698451e-01  5.2187653379492061e-01  5.2325201765930551e-01  5.2469990928052324e-01  5.2621727293628540e-01  5.2780578953401791e-01  5.2946864202881938e-01  5.3121002686898877e-01  5.3303840550378445e-01  5.3493684302543909e-01  5.3693092702895284e-01  5.3901480124659740e-01  5.4119087287426459e-01  5.4346134860766315e-01  5.4582944243575160e-01  5.4830255730691035e-01  5.5087776766876084e-01  5.5356034655367503e-01  5.5635472679272913e-01  5.5926179519615049e-01  5.6228552887526595e-01  5.6542767188761145e-01  5.6869234021222015e-01  5.7207938339961262e-01  5.7559512598730034e-01  5.7924112121190796e-01  5.8301928746546006e-01  5.8693313791248658e-01  5.9098197562709709e-01  5.9516861936765131e-01  5.9950425351275693e-01  6.0397618890183791e-01  6.0859492926915726e-01  6.1335926225824910e-01  6.1827562806944059e-01  6.2334174078082849e-01  6.2855897880465350e-01  6.3392877792609559e-01  6.3945198786977697e-01  6.4513056699664262e-01  6.5096646968705052e-01  6.5695554008301538e-01  6.6310092086119909e-01  6.6939902140280538e-01  6.7585544732389757e-01  6.8246751784001680e-01  6.8923240701035904e-01  6.9615258035765715e-01  7.0322113610288439e-01  7.1044013306918297e-01  7.1780713802886620e-01  7.2531848160897228e-01  7.3296948996104194e-01  7.4075798321800090e-01  7.4867673240705335e-01  7.5672187441855043e-01  7.6488540957646622e-01  7.7315914766405669e-01  7.8153145381901701e-01  7.8998901549883183e-01  7.9851761760181550e-01  8.0709605987022282e-01  8.1570260936983663e-01  8.2430127913654849e-01  8.3285846724462964e-01  8.4134497380448525e-01  8.4969972967420604e-01  8.5784894204336826e-01  8.6573519926852904e-01  8.7326127890233218e-01  8.8038996435841510e-01  8.8692887996865000e-01  8.9288271024763166e-01  8.9814699875800474e-01  9.0255043609601326e-01  9.0605789195663622e-01  9.0863009512795445e-01  9.1016928602508196e-01  9.1069887848003872e-01  9.1017580457773761e-01  9.0862757491139923e-01  9.0609459990528851e-01  9.0259189827260089e-01  8.9820466328623549e-01  8.9296626803397017e-01  8.8707725999416942e-01  8.8053874612146010e-01  8.7346346596784075e-01  8.6594823738933047e-01  8.5807884587313454e-01  8.4996328287523981e-01  8.4165047420892036e-01  8.3320798674118468e-01  8.2468731215367153e-01  8.1611534442511779e-01  8.0754449064587353e-01  7.9899991153379357e-01  7.9050021943241167e-01  7.8207259605117285e-01  7.7372782998671552e-01  7.6548060048637490e-01  7.5734002072316209e-01  7.4931629309723113e-01  7.4141513772350354e-01  7.3364429268359532e-01  7.2600907800325620e-01  7.1851381110088797e-01  7.1115845903100128e-01  7.0395075664285178e-01  6.9689083909173488e-01  6.8998094986057668e-01  6.8322572552286320e-01  6.7662060316293626e-01  6.7016990516463859e-01  6.6387137149087261e-01  6.5773002806661685e-01  6.5174458137339797e-01  6.4591374348949493e-01  6.4023836721869076e-01  6.3471669111677465e-01  6.2934926617844777e-01  6.2413453824841414e-01  6.1907059022999911e-01  6.1415725130632548e-01  6.0939486258837727e-01  6.0478042781298091e-01  6.0031192675589373e-01  5.9598685867503065e-01  5.9180521391984264e-01  5.8776361971760616e-01  5.8386149062959269e-01  5.8009685201256611e-01  5.7646303592116344e-01  5.7296580512422568e-01  5.6959707390750913e-01  5.6635396808923899e-01  5.6323504681403358e-01  5.6023844190888650e-01  5.5737517736832376e-01  5.5460893876668971e-01  5.5196641484152120e-01  5.4943693191075993e-01  5.4701637081607335e-01  5.4470129078012941e-01  5.4249048081183093e-01  5.4039142549454822e-01  5.3837646579354670e-01  5.3646624589195424e-01  5.3465044248541405e-01  5.3292710071150007e-01  5.3129203804941338e-01  5.2974489660000057e-01  5.2829028841770009e-01  5.2690672119620607e-01  5.2561091646907721e-01  5.2439396881063149e-01  5.2325429242843546e-01  5.2218847196181706e-01  5.2119626136361752e-01  5.2028384125921057e-01  5.1943205420860039e-01  5.1865083804121281e-01  5.1793712852190377e-01  5.1729327944940817e-01  5.1671350764510915e-01  5.1619564937204776e-01  5.1574269243416937e-01  5.1535101460904265e-01  5.1502182545645092e-01  5.1475242780596964e-01  5.1454402297356594e-01  5.1439478753678525e-01  5.1430487701763261e-01  5.1427776796779068e-01  5.1427641790979650e-01  5.1427276667287647e-01  5.1427577431049853e-01  5.1427779366364990e-01  5.1427748352023728e-01  5.1427149849898790e-01  5.1427696669464784e-01  5.1427520303506247e-01  5.1427647097014118e-01  5.1427809164162053e-01  5.1430489546881464e-01  5.1439270320678854e-01  5.1453926454789545e-01  5.1474442402328735e-01  5.1500803151878682e-01  5.1533075600524147e-01  5.1571770280036866e-01  5.1616325256437412e-01  5.1667063196798180e-01  5.1724223641543332e-01  5.1787552159213401e-01  5.1857506280766630e-01  5.1934103567596357e-01  5.2017398786715485e-01  5.2107604458507306e-01  5.2204913350904514e-01  5.2309456925733033e-01  5.2421382189118437e-01  5.2540725145422418e-01  5.2667995804503809e-01  5.2803067590995434e-01  5.2946394964943921e-01  5.3098082624858167e-01  5.3258358398931782e-01  5.3427415623027352e-01  5.3605317954609732e-01  5.3792680091564926e-01  5.3989343244698151e-01  5.4195858817476472e-01  5.4412341627384331e-01  5.4639055372716427e-01  5.4876218597118187e-01  5.5123887807313943e-01  5.5382767427740709e-01  5.5652640778113693e-01  5.5934126897012348e-01  5.6227322605400176e-01  5.6532492719023086e-01  5.6849846483822453e-01  5.7179401184431800e-01  5.7521922353426991e-01  5.7877101092977778e-01  5.8245584682759832e-01  5.8627412353648534e-01  5.9022775262528959e-01  5.9431782607649819e-01  5.9854928178580813e-01  6.0292399389970619e-01  6.0743936316118841e-01  6.1209958308381152e-01  6.1690517707782744e-01  6.2185847340603806e-01  6.2696156702834294e-01  6.3221614748356258e-01  6.3762023695594738e-01  6.4317375294676549e-01  6.4888202341154311e-01  6.5474518759891587e-01  6.6076045023131358e-01  6.6692897212868174e-01  6.7324968306615907e-01  6.7972502960147063e-01  6.8635564774532731e-01  6.9314138907872080e-01  7.0007631932784209e-01  7.0716322836770751e-01  7.1440212009278159e-01  7.2179312361372472e-01  7.2933440561733254e-01  7.3702515461073381e-01  7.4486690548160317e-01  7.5285953369796477e-01  7.6100453711496341e-01  7.6930501643355276e-01  7.7776653060801704e-01  7.8639281609934619e-01  7.9517419951238366e-01  8.0414545754770372e-01  8.1332141233411970e-01  8.2270780200576188e-01  8.3234201360394489e-01  8.4229116460487552e-01  8.5256384092163884e-01  8.6326429123334203e-01  8.7455751466574083e-01  8.8656502595749431e-01  8.9974094838299268e-01  9.1441092713571903e-01  9.2877468945141706e-01  9.4194992561331015e-01  9.5334913370379948e-01  9.6386555410340569e-01  9.8380035999698345e-01  1.0000000000000000e+00  9.9999999999999989e-01  1.0000000000000000e+00  1.0000000000000000e+00  1.0000000000000000e+00  1.0000000000000000e+00  1.0000000000000000e+00  1.0000000000000000e+00  1.0000000000000000e+00  1.0000000000000000e+00  1.0000000000000000e+00  1.0000000000000000e+00  1.0000000000000000e+00  1.0000000000000000e+00  1.0000000000000000e+00  9.9999999999999989e-01  1.0000000000000000e+00  1.0000000000000000e+00  1.0000000000000000e+00  1.0000000000000000e+00  1.0000000000000000e+00  1.0000000000000000e+00  1.0000000000000000e+00  1.0000000000000000e+00  1.0000000000000000e+00  1.0000000000000000e+00  1.0000000000000000e+00  1.0000000000000000e+00  1.0000000000000000e+00  1.0000000000000000e+00  9.9999999999999989e-01  1.0000000000000000e+00  1.0000000000000000e+00  1.0000000000000000e+00  1.0000000000000000e+00  1.0000000000000000e+00  9.9999999999999989e-01  1.0000000000000000e+00  1.0000000000000000e+00  1.0000000000000000e+00  1.0000000000000000e+00  1.0000000000000000e+00  1.0000000000000000e+00  1.0000000000000000e+00  1.0000000000000000e+00  1.0000000000000000e+00  1.0000000000000000e+00  1.0000000000000000e+00  1.0000000000000000e+00  1.0000000000000000e+00  1.0000000000000000e+00  1.0000000000000000e+00  9.9999999999999989e-01  1.0000000000000000e+00  1.0000000000000000e+00  1.0000000000000000e+00  1.0000000000000000e+00  1.0000000000000000e+00  1.0000000000000000e+00  1.0000000000000000e+00  1.0000000000000000e+00  1.0000000000000000e+00  1.0000000000000000e+00  9.9999999999999989e-01  1.0000000000000000e+00  1.0000000000000000e+00  1.0000000000000000e+00  1.0000000000000000e+00  1.0000000000000000e+00  1.0000000000000000e+00  1.0000000000000000e+00  1.0000000000000000e+00  1.0000000000000000e+00  1.0000000000000000e+00  1.0000000000000000e+00  1.0000000000000000e+00  1.0000000000000000e+00  1.0000000000000000e+00  1.0000000000000000e+00  1.0000000000000000e+00  1.0000000000000000e+00  9.9999999999999989e-01  1.0000000000000000e+00  1.0000000000000000e+00  1.0000000000000000e+00  1.0000000000000000e+00  1.0000000000000000e+00  1.0000000000000000e+00  1.0000000000000000e+00  1.0000000000000000e+00  1.0000000000000000e+00  1.0000000000000000e+00  1.0000000000000000e+00  1.0000000000000000e+00  1.0000000000000000e+00  9.9999999999999989e-01  1.0000000000000000e+00  1.0000000000000000e+00  1.0000000000000000e+00  9.6414166371945775e-01  9.5428705842766026e-01  9.4264035378117872e-01  9.2893728256940411e-01  9.1450794127245127e-01  9.0002330572382439e-01  8.8671643011387280e-01  8.7452699276709067e-01  8.6315442250672092e-01  8.5236963220524553e-01  8.4199938174554068e-01  8.3201166196177001e-01  8.2231863465606181e-01  8.1286867964425380e-01  8.0365578915040603e-01  7.9463067281441202e-01  7.8580083507661291e-01  7.7713912954338060e-01  7.6864773257491381e-01  7.6032480914996137e-01  7.5214397822312729e-01  7.4412018002651192e-01  7.3625260935507320e-01  7.2853942286762186e-01  7.2097860177815887e-01  7.1357038397190309e-01  7.0631562800684700e-01  6.9921308564684126e-01  6.9226421131119797e-01  6.8547056490766889e-01  6.7883177980280474e-01  6.7234753084007826e-01  6.6601459430052623e-01  6.5983858139076523e-01  6.5381890984253133e-01  6.4795456208576829e-01  6.4224233525616936e-01  6.3668285039945127e-01  6.3127434450520892e-01  6.2601897087173175e-01  6.2091573846463022e-01  6.1595911634063982e-01  6.1114850973296686e-01  6.0648504569998074e-01  6.0196656970238438e-01  5.9759023265079581e-01  5.9335437126195012e-01  5.8925557455131261e-01  5.8529359049598451e-01  5.8146371662741836e-01  5.7776960367833774e-01  5.7420494555699297e-01  5.7076414115337537e-01  5.6744931638101503e-01  5.6425456436030030e-01  5.6118032248142591e-01  5.5822227626734588e-01  5.5537778043276764e-01  5.5264363893488921e-01  5.5001487264370252e-01  5.4749237347702573e-01  5.4507965247761814e-01  5.4275041651833567e-01  5.4052851535096880e-01  5.3839766295988367e-01  5.3635545542742857e-01  5.3440125632540469e-01  5.3253967105380617e-01  5.3074710062990638e-01  5.2903970486240504e-01  5.2740913479056528e-01  5.2585009752244505e-01  5.2436127885343731e-01  5.2294022581417710e-01  5.2158407755804992e-01  5.2029098749028579e-01  5.1905629209744308e-01  5.1787983080091671e-01  5.1675663646391523e-01  5.1568515043813501e-01  5.1466303789212176e-01  5.1368770565765132e-01  5.1275729778266643e-01  5.1186804606040159e-01  5.1101926235824269e-01  5.1020697093032585e-01  5.0942959409682276e-01  5.0868500801854477e-01  5.0797107086005755e-01  5.0728546194897883e-01  5.0662572447715659e-01  5.0599007883027736e-01  5.0537672467090822e-01  5.0478252132353008e-01  5.0420653492526679e-01  5.0364627394794126e-01  5.0309933374118809e-01  5.0256493016261994e-01  5.0204020691812312e-01  5.0152320298759123e-01  5.0101211269055501e-01  5.0050503105508815e-01  5.0000000000000000e-01  5.0000000000000000e-01  5.0000000000000000e-01  5.0000000000000000e-01  5.0000000000000000e-01  5.0000000000000000e-01  5.0000000000000000e-01  5.0000000000000000e-01  5.0000000000000000e-01  5.0000000000000000e-01  5.0000000000000000e-01  9.2972986340723129e-01  9.1799805184656080e-01  9.3058633124268808e-01  9.4865107647571867e-01  9.5907189036498219e-01  9.4363543336513622e-01  9.6054014253563469e-01  9.7225010473755213e-01  9.7065962669959061e-01  9.6919497808784139e-01  9.7778336125448029e-01  9.5615798685935938e-01  9.7858699252227976e-01  9.5695115840462908e-01  9.8243717291225918e-01  9.8194070564635871e-01  9.8552128926518978e-01  9.0176249834825717e-01  9.7959264133902635e-01  8.6809176420196887e-01  9.8703143130717486e-01  8.4126292881888476e-01  9.7613724366269594e-01  9.7517747054378778e-01  9.2450405971126470e-01  8.1407113150125887e-01  5.1551906947947990e-01  5.1986403147846361e-01  5.0337091579159265e-01  5.2754379195056111e-01  5.0773726984150691e-01  5.3920239018958072e-01  5.5557827211939792e-01  5.1337136210862300e-01  7.8284089702917614e-01  5.7754283682454788e-01  7.2430647057295350e-01  6.0623525751798757e-01  6.7540171060033516e-01  5.2112986672422967e-01  5.3184253897339351e-01  5.4590813161391127e-01  7.5680655176061606e-01  5.6556706862460371e-01  7.0127744907210965e-01  5.9225402109322678e-01  6.5581893132468994e-01  6.3490070566959000e-01  9.8722624662095726e-01  6.1838836021585697e-01  9.8524909630783775e-01  9.8921131610486146e-01  9.8957067837890289e-01  8.8496137886961734e-01  9.0521476221129915e-01  9.8904644711707301e-01  9.8964668602479411e-01  9.7448948279031611e-01  9.5620279042338252e-01  9.9075774881386824e-01  9.3358501065492128e-01  9.5447498825304899e-01  9.9035515620202019e-01  9.9077271965620484e-01  9.6989256673667490e-01  9.0855506610353243e-01  9.1545058455076500e-01  9.9243626579242250e-01  9.3629537227629200e-01  9.0960662317153451e-01  9.7344082667235610e-01  9.9097530248262278e-01  9.8849775924303740e-01  9.9244502966447690e-01  6.7844276384510627e-01  6.9964564089525394e-01  5.7783156952449632e-01  5.1721114894558651e-01  7.2690937502156328e-01  5.0534756965101157e-01  5.2335585670860396e-01  5.9029580721056552e-01  5.1039789746530184e-01  5.3297656409470273e-01  7.5096270620520400e-01  9.4128259003789472e-01  5.1701667341871294e-01  5.4692513763660089e-01  5.5601436824543560e-01  5.6604178401135352e-01  5.2619807278663366e-01  7.5303752948820124e-01  5.9116737712416523e-01  6.9846532100084580e-01  5.3843155051223113e-01  7.2876552426756014e-01  5.7761478754347184e-01  6.7733641987976323e-01  5.6536414601350138e-01  5.5471439541226242e-01  5.4649741507765848e-01  5.3841879309817964e-01  5.3266328299616095e-01  5.2596140598174523e-01  5.2319532868696905e-01  5.1680612329018805e-01  5.1738279400814424e-01  6.3681107308968621e-01  5.1028248576911106e-01  5.0551136917475137e-01  6.5533578351671207e-01  6.3555514798606494e-01  6.5354320761972795e-01  9.8874426372395985e-01  8.1312523745318810e-01  9.9257157664428985e-01  9.9342282736708587e-01  8.0986806386681287e-01  7.8654182287269725e-01  7.8255102214034611e-01  9.2516321939383850e-01  8.9573857994297024e-01  9.6805297231009158e-01  9.9333174051003048e-01  8.4125634138469796e-01  9.6897490726006519e-01  8.3842578302292670e-01  6.2029953854656839e-01  6.0504614697196168e-01  9.2183388095588925e-01  6.2035879266411820e-01  6.0510282136561644e-01  9.4351087307525694e-01  5.0176497464287739e-01  5.1462896055372775e-01  5.0186834356783172e-01  5.1466778332587448e-01  8.6595800575477044e-01  9.6916079579816550e-01  9.9407047360466905e-01  9.3492960218777577e-01  9.8897252060179619e-01  8.5662890149123272e-01  9.2055475291209410e-01  9.5696689209613706e-01  8.7596091852229918e-01  9.4335810368244943e-01  9.3030937980106498e-01  9.0122283102181711e-01  9.8010030878780852e-01  9.8804593935588481e-01  9.9486402531895990e-01  9.5413521845695537e-01  9.7625010077545038e-01  9.7850197811688033e-01  8.7395783465423282e-01  9.7771415948005724e-01  9.9438463157808465e-01  9.9256844833693081e-01  9.1651513488411063e-01  9.1376613919259841e-01  8.7549759169479668e-01  9.6182415165775914e-01  6.0215141855169796e-01  7.0705800965122800e-01  7.3001489291695187e-01  5.8854462455424961e-01  5.6389285690731628e-01  5.7480716382624819e-01  6.8044273555078871e-01  6.6052958259578121e-01  5.4477291519386328e-01  5.5350461278309593e-01  5.3051621160868245e-01  5.3769770894015834e-01  5.1572749880717816e-01  5.2012176599242965e-01  5.1909425516488394e-01  5.0366093293827408e-01  5.2628100371143649e-01  9.9349315502008784e-01  6.2123658771252976e-01  6.3791381153401716e-01  5.3741671037059402e-01  5.0707461847782875e-01  7.4967313286272130e-01  7.7441605597903218e-01  5.2650970989314694e-01  5.5312431895461767e-01  5.1247770580078611e-01  5.7429662092358846e-01  7.7550274924152807e-01  5.1263266519033490e-01  7.3155025874383595e-01  6.0189739001785481e-01  6.8159459527590371e-01  5.1995171116995675e-01  5.3024319202131687e-01  5.4826657296965819e-01  7.5045558804376022e-01  5.6817600588278250e-01  6.3911451595945068e-01  7.0872813655558720e-01  5.8798371748005818e-01  6.6160121825473206e-01  5.1923577092113327e-01  5.0719170679871139e-01  6.2228210110374738e-01  8.0888520025603272e-01  5.1574701933518485e-01  5.0368456597613820e-01  8.1162388221487103e-01  9.9473768408539975e-01  9.9499739335995530e-01  9.7953557600478813e-01  9.5241168109498331e-01  9.0441492908015686e-01  8.3731593547275163e-01  9.5532981887612634e-01  9.2552908177908999e-01  8.3227805855610104e-01  9.4632003307558898e-01  9.8305152417158259e-01  9.2278745734950984e-01  9.9503806602705525e-01  9.7703707644498927e-01  9.9569820092230144e-01  9.9437453987796021e-01  9.8823179041374742e-01  9.9327642047647069e-01  9.8463075209262152e-01  9.6735001594517167e-01  9.4770853011578204e-01  9.9571338380899010e-01  9.4698478536054775e-01  9.8448488948031099e-01  9.5785563510712324e-01  9.8515372633206955e-01  9.8689136280960832e-01  8.9054896431402630e-01  9.6651712169277226e-01  9.7912566066248863e-01  9.5963032885165100e-01  5.1449715416746222e-01  5.0139154016130449e-01  8.5585280970764643e-01  9.3874634168471427e-01  9.0720059135338849e-01  9.6380594668853137e-01  9.9579130026316476e-01  9.8455801453489900e-01  9.7590141902070227e-01  9.3250214497979178e-01  8.9068823407130104e-01  9.4673814325665995e-01  9.6892688780862102e-01  9.6720500211552396e-01  9.4503298801551971e-01  9.3071063589199043e-01  9.9399389353863454e-01  9.8363560900459734e-01  9.8043787177710873e-01  9.9360330159701571e-01  9.6398700528058867e-01  9.7575277085616097e-01  9.8316291962175240e-01  9.9587887315881440e-01  9.3466243188582254e-01  5.4184750500074397e-01  6.9093002129228642e-01  5.3497844490537383e-01  5.2322642668193309e-01  5.1487226292639288e-01  5.0884017805790815e-01  7.1281838757383820e-01  5.8323424612656249e-01  5.5993880167263188e-01  5.4240888461113090e-01  5.2977706563740246e-01  5.2127919701112591e-01  5.6055908121805831e-01  6.4687992514642367e-01  6.6573009757549861e-01  5.5039139595389053e-01  5.0880658273732160e-01  9.6482896629867232e-01  5.2123985686641661e-01  5.1482536974064907e-01  5.2971929886812696e-01  5.2317137275416947e-01  5.7140995499993918e-01  5.8316941584274928e-01  5.3466166200191279e-01  9.1181791764281539e-01  6.9088463936578659e-01  5.4230520129990956e-01  8.8640347401561037e-01  5.5974834588674183e-01  7.1286901751963905e-01  9.8720092410201976e-01  8.7141129812725182e-01  6.4684259459179327e-01  6.6572062041821800e-01  8.4723442248254088e-01  9.5722323492211880e-01  6.1592507228846471e-01  6.0105827655402433e-01  7.9624055946784611e-01  7