<?xml version="1.0"?>
<VTKFile type="UnstructuredGrid"  version="0.1"  >
<UnstructuredGrid>
<Piece  NumberOfPoints="4882" NumberOfCells="9241">
<Points>
<DataArray  type="Float64"  NumberOfComponents="3"  format="ascii">6 0.1 0  8 0.1 0  8 0.22 0  7.1 0.22 0  7 0.22 0  6 0.22 0  6.01 0.1 0  6.02 0.1 0  6.03 0.1 0  6.04 0.1 0  6.05 0.1 0  6.06 0.1 0  6.07 0.1 0  6.08 0.1 0  6.09 0.1 0  6.1 0.1 0  6.109999999999999 0.1 0  6.12 0.1 0  6.13 0.1 0  6.14 0.1 0  6.149999999999999 0.1 0  6.16 0.1 0  6.17 0.1 0  6.18 0.1 0  6.19 0.1 0  6.199999999999999 0.1 0  6.21 0.1 0  6.22 0.1 0  6.23 0.1 0  6.239999999999999 0.1 0  6.25 0.1 0  6.26 0.1 0  6.27 0.1 0  6.279999999999999 0.1 0  6.289999999999999 0.1 0  6.3 0.1 0  6.31 0.1 0  6.319999999999999 0.1 0  6.329999999999999 0.1 0  6.34 0.1 0  6.35 0.1 0  6.359999999999999 0.1 0  6.369999999999999 0.1 0  6.379999999999999 0.1 0  6.389999999999999 0.1 0  6.399999999999999 0.1 0  6.409999999999999 0.1 0  6.419999999999999 0.1 0  6.429999999999999 0.1 0  6.44 0.1 0  6.449999999999999 0.1 0  6.459999999999999 0.1 0  6.469999999999999 0.1 0  6.479999999999999 0.1 0  6.489999999999999 0.1 0  6.499999999999999 0.1 0  6.509999999999999 0.1 0  6.519999999999999 0.1 0  6.529999999999998 0.1 0  6.539999999999999 0.1 0  6.549999999999999 0.1 0  6.559999999999999 0.1 0  6.569999999999999 0.1 0  6.579999999999998 0.1 0  6.589999999999998 0.1 0  6.599999999999999 0.1 0  6.609999999999999 0.1 0  6.619999999999998 0.1 0  6.629999999999998 0.1 0  6.639999999999999 0.1 0  6.649999999999999 0.1 0  6.659999999999998 0.1 0  6.669999999999998 0.1 0  6.679999999999999 0.1 0  6.689999999999999 0.1 0  6.699999999999998 0.1 0  6.709999999999998 0.1 0  6.719999999999999 0.1 0  6.729999999999999 0.1 0  6.739999999999998 0.1 0  6.749999999999998 0.1 0  6.759999999999998 0.1 0  6.769999999999999 0.1 0  6.779999999999998 0.1 0  6.789999999999998 0.1 0  6.799999999999999 0.1 0  6.809999999999999 0.1 0  6.819999999999999 0.1 0  6.829999999999998 0.1 0  6.839999999999999 0.1 0  6.849999999999999 0.1 0  6.859999999999999 0.1 0  6.869999999999998 0.1 0  6.879999999999999 0.1 0  6.889999999999999 0.1 0  6.899999999999999 0.1 0  6.909999999999998 0.1 0  6.919999999999998 0.1 0  6.929999999999999 0.1 0  6.939999999999999 0.1 0  6.949999999999998 0.1 0  6.959999999999999 0.1 0  6.969999999999999 0.1 0  6.979999999999999 0.1 0  6.989999999999998 0.1 0  6.999999999999999 0.1 0  7.009999999999999 0.1 0  7.019999999999999 0.1 0  7.029999999999999 0.1 0  7.039999999999999 0.1 0  7.049999999999999 0.1 0  7.059999999999999 0.1 0  7.069999999999999 0.1 0  7.079999999999998 0.1 0  7.089999999999999 0.1 0  7.099999999999999 0.1 0  7.109999999999999 0.1 0  7.119999999999999 0.1 0  7.129999999999999 0.1 0  7.139999999999999 0.1 0  7.149999999999999 0.1 0  7.159999999999999 0.1 0  7.169999999999999 0.1 0  7.179999999999999 0.1 0  7.19 0.1 0  7.199999999999999 0.1 0  7.209999999999999 0.1 0  7.219999999999999 0.1 0  7.229999999999999 0.1 0  7.239999999999998 0.1 0  7.249999999999999 0.1 0  7.259999999999999 0.1 0  7.27 0.1 0  7.279999999999999 0.1 0  7.289999999999999 0.1 0  7.299999999999999 0.1 0  7.309999999999999 0.1 0  7.319999999999999 0.1 0  7.329999999999999 0.1 0  7.339999999999999 0.1 0  7.35 0.1 0  7.359999999999999 0.1 0  7.369999999999999 0.1 0  7.379999999999999 0.1 0  7.389999999999999 0.1 0  7.399999999999999 0.1 0  7.409999999999999 0.1 0  7.419999999999999 0.1 0  7.43 0.1 0  7.44 0.1 0  7.449999999999999 0.1 0  7.459999999999999 0.1 0  7.469999999999999 0.1 0  7.48 0.1 0  7.489999999999999 0.1 0  7.499999999999999 0.1 0  7.51 0.1 0  7.52 0.1 0  7.529999999999999 0.1 0  7.539999999999999 0.1 0  7.549999999999999 0.1 0  7.56 0.1 0  7.569999999999999 0.1 0  7.579999999999999 0.1 0  7.59 0.1 0  7.6 0.1 0  7.609999999999999 0.1 0  7.619999999999999 0.1 0  7.629999999999999 0.1 0  7.64 0.1 0  7.649999999999999 0.1 0  7.66 0.1 0  7.67 0.1 0  7.68 0.1 0  7.69 0.1 0  7.699999999999999 0.1 0  7.709999999999999 0.1 0  7.72 0.1 0  7.73 0.1 0  7.739999999999999 0.1 0  7.75 0.1 0  7.76 0.1 0  7.77 0.1 0  7.779999999999999 0.1 0  7.789999999999999 0.1 0  7.8 0.1 0  7.81 0.1 0  7.82 0.1 0  7.83 0.1 0  7.84 0.1 0  7.85 0.1 0  7.859999999999999 0.1 0  7.869999999999999 0.1 0  7.88 0.1 0  7.89 0.1 0  7.899999999999999 0.1 0  7.91 0.1 0  7.92 0.1 0  7.93 0.1 0  7.94 0.1 0  7.949999999999999 0.1 0  7.96 0.1 0  7.97 0.1 0  7.98 0.1 0  7.99 0.1 0  8 0.1099999999999788 0  8 0.1199999999999512 0  8 0.1299999999999173 0  8 0.1399999999998952 0  8 0.1499999999998641 0  8 0.1599999999998293 0  8 0.1699999999998686 0  8 0.1799999999998971 0  8 0.1899999999999147 0  8 0.1999999999999323 0  8 0.2099999999999607 0  7.990085836355354 0.22 0  7.980171672710533 0.22 0  7.970257509065752 0.22 0  7.960343345421177 0.22 0  7.950429181776419 0.22 0  7.940515018131598 0.22 0  7.930600854486929 0.22 0  7.920686690842305 0.22 0  7.910772527197484 0.22 0  7.900858363552682 0.22 0  7.890944199908105 0.22 0  7.88103003626337 0.22 0  7.87111587261855 0.22 0  7.861201708973858 0.22 0  7.851287545329257 0.22 0  7.841373381684436 0.22 0  7.831459218039615 0.22 0  7.821545054395035 0.22 0  7.811630890750322 0.22 0  7.801716727105502 0.22 0  7.791802563460787 0.22 0  7.781888399816208 0.22 0  7.771974236171387 0.22 0  7.762060072526567 0.22 0  7.752145908881964 0.22 0  7.742231745237274 0.22 0  7.732317581592453 0.22 0  7.722403417947716 0.22 0  7.712489254303141 0.22 0  7.702575090658339 0.22 0  7.692660927013642 0.22 0  7.682746763369046 0.22 0  7.672832599724225 0.22 0  7.662918436079405 0.22 0  7.653004272434819 0.22 0  7.643090108790111 0.22 0  7.633175945145291 0.22 0  7.623261781500571 0.22 0  7.613347617855996 0.22 0  7.603433454211177 0.22 0  7.593519290566356 0.22 0  7.583605126921748 0.22 0  7.573690963277063 0.22 0  7.563776799632242 0.22 0  7.5538626359875 0.22 0  7.543948472342924 0.22 0  7.534034308698129 0.22 0  7.524120145053308 0.22 0  7.514205981408487 0.22 0  7.504291817763667 0.22 0  7.494377654118846 0.22 0  7.484463490474027 0.22 0  7.474549326829206 0.22 0  7.464635163184385 0.22 0  7.454720999539565 0.22 0  7.444806835894744 0.22 0  7.434892672249925 0.22 0  7.424978508605104 0.22 0  7.415064344960284 0.22 0  7.405150181315463 0.22 0  7.395236017670642 0.22 0  7.385321854025823 0.22 0  7.375407690381002 0.22 0  7.365493526736182 0.22 0  7.355579363091362 0.22 0  7.345665199446541 0.22 0  7.335751035801721 0.22 0  7.3258368721569 0.22 0  7.315922708512131 0.22 0  7.306008544867555 0.22 0  7.296094381222787 0.22 0  7.286180217577966 0.22 0  7.276266053933307 0.22 0  7.266351890288672 0.22 0  7.256437726643852 0.22 0  7.24652356299906 0.22 0  7.236609399354484 0.22 0  7.226695235709738 0.22 0  7.216781072064918 0.22 0  7.206866908420237 0.22 0  7.196952744775624 0.22 0  7.187038581130803 0.22 0  7.177124417485989 0.22 0  7.167210253841413 0.22 0  7.15729609019669 0.22 0  7.147381926551869 0.22 0  7.137467762907166 0.22 0  7.127609887754289 0.22 0  7.119267423713023 0.22 0  7.112902479254871 0.22 0  7.108462887920409 0.22 0  7.105141639945627 0.22 0  7.101184123304556 0.22 0  7.09900000000009 0.22 0  7.097999999999909 0.22 0  7.09699999999975 0.22 0  7.095999999999861 0.22 0  7.09499999999993 0.22 0  7.093999999999729 0.22 0  7.092999999999591 0.22 0  7.091999999999723 0.22 0  7.090999999999771 0.22 0  7.089999999999549 0.22 0  7.088999999999444 0.22 0  7.087999999999584 0.22 0  7.086999999999611 0.22 0  7.085999999999368 0.22 0  7.084999999999305 0.22 0  7.083999999999445 0.22 0  7.082999999999451 0.22 0  7.081999999999375 0.22 0  7.080999999999514 0.22 0  7.079999999999653 0.22 0  7.078999999999639 0.22 0  7.077999999999584 0.22 0  7.076999999999722 0.22 0  7.075999999999861 0.22 0  7.074999999999826 0.22 0  7.073999999999792 0.22 0  7.07299999999993 0.22 0  7.072000000000069 0.22 0  7.071000000000014 0.22 0  7.069999999999999 0.22 0  7.069000000000139 0.22 0  7.068000000000278 0.22 0  7.067000000000201 0.22 0  7.066000000000208 0.22 0  7.065000000000347 0.22 0  7.064000000000472 0.22 0  7.063000000000389 0.22 0  7.062000000000416 0.22 0  7.061000000000555 0.22 0  7.060000000000451 0.22 0  7.059000000000228 0.22 0  7.058000000000278 0.22 0  7.057000000000409 0.22 0  7.05600000000027 0.22 0  7.055000000000069 0.22 0  7.054000000000139 0.22 0  7.05300000000025 0.22 0  7.05200000000009 0.22 0  7.05099999999991 0.22 0  7.05 0.22 0  7.04900000000009 0.22 0  7.047999999999909 0.22 0  7.04699999999975 0.22 0  7.045999999999861 0.22 0  7.044999999999931 0.22 0  7.04399999999973 0.22 0  7.042999999999591 0.22 0  7.041999999999723 0.22 0  7.040999999999771 0.22 0  7.039999999999549 0.22 0  7.038999999999445 0.22 0  7.037999999999584 0.22 0  7.036999999999612 0.22 0  7.035999999999528 0.22 0  7.034999999999653 0.22 0  7.033999999999792 0.22 0  7.032999999999799 0.22 0  7.031999999999723 0.22 0  7.030999999999861 0.22 0  7.03 0.22 0  7.028999999999987 0.22 0  7.02799999999993 0.22 0  7.027000000000069 0.22 0  7.026000000000209 0.22 0  7.025000000000174 0.22 0  7.024000000000139 0.22 0  7.023000000000278 0.22 0  7.022000000000416 0.22 0  7.021000000000361 0.22 0  7.020000000000347 0.22 0  7.019000000000486 0.22 0  7.018000000000624 0.22 0  7.017000000000548 0.22 0  7.016000000000555 0.22 0  7.015000000000694 0.22 0  7.014000000000632 0.22 0  7.013000000000389 0.22 0  7.012000000000416 0.22 0  7.011000000000555 0.22 0  7.010000000000451 0.22 0  7.009000000000229 0.22 0  7.008000000000278 0.22 0  7.007000000000409 0.22 0  7.00600000000027 0.22 0  7.005000000000069 0.22 0  7.004000000000139 0.22 0  7.00300000000025 0.22 0  7.00200000000009 0.22 0  7.00099999999991 0.22 0  6.994809698470582 0.22 0  6.991569006236496 0.22 0  6.987074728859082 0.22 0  6.980583540116057 0.22 0  6.972279556173985 0.22 0  6.962550869064059 0.22 0  6.952627664228347 0.22 0  6.942704459392635 0.22 0  6.932781254556923 0.22 0  6.922858049721211 0.22 0  6.912934844885499 0.22 0  6.903011640049788 0.22 0  6.893088435214075 0.22 0  6.883165230378363 0.22 0  6.873242025542651 0.22 0
[...]
<PointData  Scalars="concentration"> 
<DataArray  type="Float64"  Name="concentration"  format="ascii">5.0000000000000000e-01  5.0016830439098958e-01  5.0016833373347058e-01  1.0000000000000000e+00  1.0000000000000000e+00  5.0000000000000000e-01  5.0000582872555710e-01  5.0001178048191852e-01  5.0001797065050768e-01  5.0002451714510243e-01  5.0003155944082678e-01  5.0003921571080634e-01  5.0004765698760323e-01  5.0005701366979516e-01  5.0006750792806676e-01  5.0007925703940959e-01  5.0009247503839416e-01  5.0010752164350825e-01  5.0012457372051067e-01  5.0014397663498389e-01  5.0016560781381203e-01  5.0019048636117103e-01  5.0021872073891793e-01  5.0025066344844160e-01  5.0028689804192006e-01  5.0032791048921066e-01  5.0037483575730812e-01  5.0042697294052640e-01  5.0048647627703757e-01  5.0055370388248188e-01  5.0062937269713093e-01  5.0071462930668520e-01  5.0081057212597324e-01  5.0091946188932168e-01  5.0103961640066441e-01  5.0117579809857238e-01  5.0132842709336212e-01  5.0149898097187540e-01  5.0168945883107441e-01  5.0190232709560756e-01  5.0214175190253607e-01  5.0240375353508593e-01  5.0269852097122769e-01  5.0302613403646446e-01  5.0338956988719741e-01  5.0379195083200778e-01  5.0423698583135723e-01  5.0473083268967378e-01  5.0527500301617534e-01  5.0587522965150322e-01  5.0653726028320101e-01  5.0726526304245334e-01  5.0806556881494302e-01  5.0894344527228386e-01  5.0990614741257634e-01  5.1095824971558801e-01  5.1210961542528355e-01  5.1336690724169098e-01  5.1473751340208773e-01  5.1623067282533142e-01  5.1785200359376093e-01  5.1961082091182631e-01  5.2152630119388510e-01  5.2359217102429978e-01  5.2582762116603066e-01  5.2823945731733346e-01  5.3084442116077513e-01  5.3364857520816045e-01  5.3666303828636086e-01  5.3989925778344394e-01  5.4336838795533349e-01  5.4708368925181594e-01  5.5105906749182820e-01  5.5529824051277465e-01  5.5981745067743205e-01  5.6462123602492076e-01  5.6973155316330915e-01  5.7515526415094320e-01  5.8089833884769804e-01  5.8697805703496231e-01  5.9339138080429576e-01  6.0015498539683665e-01  6.0727611761979239e-01  6.1475834000056240e-01  6.2260321066105528e-01  6.3081836530778923e-01  6.3939881309789126e-01  6.4834873204483545e-01  6.5766218691222844e-01  6.6733235678173508e-01  6.7734514688469305e-01  6.8768565738789955e-01  6.9833310269806570e-01  7.0925681410551411e-01  7.2042137569842213e-01  7.3177320892211084e-01  7.4323869276521992e-01  7.5480325907717083e-01  7.6634347931540481e-01  7.7773701365515491e-01  7.8888765896055946e-01  7.9963087325753823e-01  8.0991081358899242e-01  8.1939979549596254e-01  8.2810393211632116e-01  8.3584262272046472e-01  8.4233628174405961e-01  8.4751742742635294e-01  8.5133222414003462e-01  8.5360614629980858e-01  8.5437762200401324e-01  8.5357375206688801e-01  8.5124567099321069e-01  8.4745950092661071e-01  8.4223932803573720e-01  8.3572965655810194e-01  8.2799140444676389e-01  8.1934351547479622e-01  8.0981969935560727e-01  7.9958957392792096e-01  7.8881917030465798e-01  7.7765455799954619e-01  7.6627537685400249e-01  7.5476566642941378e-01  7.4323969442790550e-01  7.3177990951371263e-01  7.2043903659521580e-01  7.0929520937028745e-01  6.9839129208647788e-01  6.8775619576855351e-01  6.7743430907226321e-01  6.6743520279075086e-01  6.5778020709793039e-01  6.4847614427320521e-01  6.3953501516294531e-01  6.3095662528546070e-01  6.2274629322810970e-01  6.1490500857134089e-01  6.0742991754889386e-01  6.0030780792246830e-01  5.9354460279051524e-01  5.8712812197767750e-01  5.8105095915943317e-01  5.7531065139627402e-01  5.6988533410216169e-01  5.6477215756863697e-01  5.5995512471062425e-01  5.5543214782042949e-01  5.5118930550612177e-01  5.4721311709250886e-01  5.4349400357418287e-01  5.4001863381405091e-01  5.3677741581163463e-01  5.3375805736915793e-01  5.3094812386614998e-01  5.2833811855424628e-01  5.2591932677914144e-01  5.2367900650094135e-01  5.2160645338051792e-01  5.1969092194944655e-01  5.1792482599851242e-01  5.1629738372097600e-01  5.1480102973223363e-01  5.1342730627368127e-01  5.1216425364381757e-01  5.1101059443678409e-01  5.0995414290618180e-01  5.0898769754827355e-01  5.0810533368222477e-01  5.0730119096626380e-01  5.0657699506718079e-01  5.0590770206859881e-01  5.0530473725332625e-01  5.0475845718283974e-01  5.0426348269655286e-01  5.0381518364749955e-01  5.0341019320357949e-01  5.0304843745428018e-01  5.0271719410564031e-01  5.0242166662845689e-01  5.0215603467727143e-01  5.0191769285258103e-01  5.0170363296200593e-01  5.0151209837328847e-01  5.0134245872143246e-01  5.0118847098457797e-01  5.0105249843191602e-01  5.0093141831264987e-01  5.0082382922409863e-01  5.0072816231981077e-01  5.0064347560546951e-01  5.0056966817244120e-01  5.0050349309491959e-01  5.0044556505158411e-01  5.0039489195622866e-01  5.0035109923992049e-01  5.0031310098237169e-01  5.0028030242119204e-01  5.0025254724308255e-01  5.0022921245278196e-01  5.0021009476364997e-01  5.0019477143791680e-01  5.0018312341957449e-01  5.0017488975905688e-01  5.0016997322081258e-01  5.0016849824410226e-01  5.0016842472245604e-01  5.0016822586971887e-01  5.0016838966737365e-01  5.0016850006208680e-01  5.0016848328626695e-01  5.0016815694601635e-01  5.0016845514085517e-01  5.0016835911069568e-01  5.0016842817552154e-01  5.0016851675333418e-01  5.0016997530352025e-01  5.0017477586291037e-01  5.0018285915054650e-01  5.0019432133397879e-01  5.0020929509849676e-01  5.0022800580674498e-01  5.0025103724844699e-01  5.0027829660267908e-01  5.0031032957185861e-01  5.0034772356558654e-01  5.0039068123070496e-01  5.0044010582524590e-01  5.0049658808347008e-01  5.0056077527241305e-01  5.0063360912465293e-01  5.0071607439495447e-01  5.0080919640606836e-01  5.0091408891293665e-01  5.0103178021434891e-01  5.0116426533918657e-01  5.0131246793666395e-01  5.0147862610340077e-01  5.0166437184465451e-01  5.0187179100921986e-01  5.0210300807093466e-01  5.0235994685380159e-01  5.0264638673092010e-01  5.0296388264757919e-01  5.0331659868763667e-01  5.0370738675269822e-01  5.0413992834731158e-01  5.0461791155461899e-01  5.0514455017477355e-01  5.0572645287635698e-01  5.0636596637886866e-01  5.0707016762448065e-01  5.0784358520097517e-01  5.0869211088031197e-01  5.0962153591623383e-01  5.1063668121488615e-01  5.1174817553103158e-01  5.1295902495784229e-01  5.1428018998095115e-01  5.1571804206724370e-01  5.1728069220450512e-01  5.1897568918783887e-01  5.2081513094393295e-01  5.2280832427956825e-01  5.2496045216355158e-01  5.2728398553733546e-01  5.2978787380766834e-01  5.3248381159961344e-01  5.3538363073762907e-01  5.3849922188594801e-01  5.4183743745847235e-01  5.4540752405801551e-01  5.4922856866879066e-01  5.5331140477879348e-01  5.5766216958754433e-01  5.6229363438221747e-01  5.6721483682067919e-01  5.7244156795940382e-01  5.7798701083346515e-01  5.8386264036794921e-01  5.9006692876944389e-01  5.9661713562232555e-01  6.0352435779688585e-01  6.1080012322415700e-01  6.1845054741215222e-01  6.2648298868423224e-01  6.3491079436538633e-01  6.4374203242010186e-01  6.5298513246238643e-01  6.6265839091276946e-01  6.7277529667581648e-01  6.8335093158584670e-01  6.9434194518277137e-01  7.0585467452899031e-01  7.1789607224517427e-01  7.3047152931757386e-01  7.4364832817639459e-01  7.5753314341279021e-01  7.7215015845631152e-01  7.8762130055433299e-01  8.0426022817531728e-01  8.2222392273351652e-01  8.4224656657872754e-01  8.6484407857322942e-01  8.8721159546678741e-01  9.0789563454301636e-01  9.2589027331688567e-01  9.4254572797148006e-01  9.7421518781982119e-01  1.0000000000000000e+00  1.0000000000000000e+00  9.9999999999999989e-01  1.0000000000000000e+00  1.0000000000000000e+00  1.0000000000000000e+00  1.0000000000000000e+00  1.0000000000000000e+00  1.0000000000000000e+00  1.0000000000000000e+00  1.0000000000000000e+00  1.0000000000000000e+00  1.0000000000000000e+00  1.0000000000000000e+00  1.0000000000000000e+00  1.0000000000000000e+00  1.0000000000000000e+00  1.0000000000000000e+00  1.0000000000000000e+00  9.9999999999999989e-01  1.0000000000000000e+00  1.0000000000000000e+00  1.0000000000000000e+00  1.0000000000000000e+00  1.0000000000000000e+00  1.0000000000000000e+00  1.0000000000000000e+00  1.0000000000000000e+00  1.0000000000000000e+00  1.0000000000000000e+00  1.0000000000000000e+00  1.0000000000000000e+00  1.0000000000000000e+00  1.0000000000000000e+00  1.0000000000000000e+00  1.0000000000000000e+00  1.0000000000000000e+00  1.0000000000000000e+00  1.0000000000000000e+00  1.0000000000000000e+00  1.0000000000000000e+00  1.0000000000000000e+00  1.0000000000000000e+00  1.0000000000000000e+00  1.0000000000000000e+00  1.0000000000000000e+00  1.0000000000000000e+00  1.0000000000000000e+00  1.0000000000000000e+00  9.9999999999999989e-01  1.0000000000000000e+00  1.0000000000000000e+00  1.0000000000000000e+00  1.0000000000000000e+00  1.0000000000000000e+00  1.0000000000000000e+00  1.0000000000000000e+00  9.9999999999999989e-01  1.0000000000000000e+00  1.0000000000000000e+00  1.0000000000000000e+00  1.0000000000000000e+00  1.0000000000000000e+00  1.0000000000000000e+00  1.0000000000000000e+00  1.0000000000000000e+00  1.0000000000000000e+00  1.0000000000000000e+00  1.0000000000000000e+00  1.0000000000000000e+00  1.0000000000000000e+00  1.0000000000000000e+00  1.0000000000000000e+00  1.0000000000000000e+00  1.0000000000000000e+00  1.0000000000000000e+00  1.0000000000000000e+00  1.0000000000000000e+00  1.0000000000000000e+00  1.0000000000000000e+00  1.0000000000000000e+00  1.0000000000000000e+00  1.0000000000000000e+00  1.0000000000000000e+00  1.0000000000000000e+00  1.0000000000000000e+00  1.0000000000000000e+00  1.0000000000000000e+00  1.0000000000000000e+00  1.0000000000000000e+00  1.0000000000000000e+00  1.0000000000000000e+00  1.0000000000000000e+00  1.0000000000000000e+00  1.0000000000000000e+00  1.0000000000000000e+00  1.0000000000000000e+00  1.0000000000000000e+00  1.0000000000000000e+00  9.4309134770437320e-01  9.2752001819535523e-01  9.0917014251446293e-01  8.8769480121430400e-01  8.6527414762052957e-01  8.4301917215973143e-01  8.2284052471430646e-01  8.0462996970161593e-01  7.8791693729216150e-01  7.7233629507877222e-01  7.5761932035874735e-01  7.4371658688736331e-01  7.3049018607407401e-01  7.1784904503857361e-01  7.0578821068566922e-01  6.9422797166249572e-01  6.8318181764456354e-01  6.7259292955335637e-01  6.6246503259363088e-01  6.5280463286127510e-01  6.4352518769865985e-01  6.3467005909750474e-01  6.2622839490528426e-01  6.1818884698955201e-01  6.1053458968780017e-01  6.0325771314485466e-01  5.9634958715959263e-01  5.8979643868836684e-01  5.8359078656899221e-01  5.7772491315034025e-01  5.7218632115923596e-01  5.6696318469548412e-01  5.6203812818197008e-01  5.5741074130972779e-01  5.5306886853378712e-01  5.4899910571405131e-01  5.4518575616689213e-01  5.4161948535129445e-01  5.3828764995354506e-01  5.3518342480300141e-01  5.3229602713765345e-01  5.2960788287051641e-01  5.2710998083642302e-01  5.2479522358242803e-01  5.2265257828359446e-01  5.2067089167600422e-01  5.1884082309792989e-01  5.1715165052864476e-01  5.1559639065410290e-01  5.1416414916591491e-01  5.1285199480530252e-01  5.1164835686275256e-01  5.1054339956235639e-01  5.0953363953099395e-01  5.0860990911155457e-01  5.0776791052242298e-01  5.0700051062517482e-01  5.0630201217812110e-01  5.0566687746373429e-01  5.0508894919258862e-01  5.0456550391931465e-01  5.0409497783557966e-01  5.0366252831587655e-01  5.0327638251671503e-01  5.0292705998118525e-01  5.0261155884291020e-01  5.0232770527560699e-01  5.0207504343771503e-01  5.0184427410301879e-01  5.0163906898868627e-01  5.0145540361005303e-01  5.0129061442719669e-01  5.0114324443277802e-01  5.0101167844516070e-01  5.0089432116513521e-01  5.0078993034927288e-01  5.0069680677185291e-01  5.0061423886956091e-01  5.0054074258074499e-01  5.0047552198062129e-01  5.0041773300997527e-01  5.0036656025920945e-01  5.0032136564419327e-01  5.0028132278650284e-01  5.0024605364714636e-01  5.0021484515130044e-01  5.0018730527958166e-01  5.0016302465000484e-01  5.0014162576717935e-01  5.0012275571719345e-01  5.0010607688356212e-01  5.0009134517663012e-01  5.0007833047756334e-01  5.0006672904818705e-01  5.0005641902606512e-01  5.0004718167704820e-01  5.0003882281568846e-01  5.0003126599872727e-01  5.0002430975967505e-01  5.0001782233076852e-01  5.0001168649295968e-01  5.0000578458307832e-01  5.0000000000000000e-01  5.0000000000000000e-01  5.0000000000000000e-01  5.0000000000000000e-01  5.0000000000000000e-01  5.0000000000000000e-01  5.0000000000000000e-01  5.0000000000000000e-01  5.0000000000000000e-01  5.0000000000000000e-01  5.0000000000000000e-01  8.8582438167742761e-01  8.6785077299301183e-01  8.8878897378741684e-01  9.1663478827215894e-01  9.3363972411881713e-01  9.0944521222184660e-01  9.3650125473859491e-01  9.5494155093163280e-01  9.5251765894199225e-01  9.5046064569865285e-01  9.6397869069473519e-01  9.3000144974949206e-01  9.6542530538641258e-01  9.3132292411309059e-01  9.7151595615448783e-01  9.7085976413144170e-01  9.7649997907640607e-01  8.4452208679020258e-01  9.6720935491865767e-01  7.9369506196785700e-01  9.7901214485968469e-01  7.5518792503966237e-01  9.6178433716263267e-01  9.6031758638721143e-01  8.7718053692880538e-01  7.1886434037838343e-01  5.0023917134547435e-01  5.0053654646239243e-01  5.0004292371503811e-01  5.0125815448687805e-01  5.0013501086420509e-01  5.0285057788122955e-01  5.0613793440520305e-01  5.0035082681426779e-01  6.7864163224046137e-01  5.1253439904998643e-01  6.1325473826571075e-01  5.2437458089260602e-01  5.6891997565639241e-01  5.0085695366179150e-01  5.0198336858415638e-01  5.0425275761922750e-01  6.4859697100617986e-01  5.0898350242031898e-01  5.9164300321844188e-01  5.1837780580042303e-01  5.5448922068503814e-01  5.4013762133920740e-01  9.7931948366893973e-01  5.3090931334174163e-01  9.7627516477575982e-01  9.8248989373748041e-01  9.8308828742229892e-01  8.1721799007757978e-01  8.4749525700776329e-01  9.8230237114423014e-01  9.8331578751567905e-01  9.5929366841337060e-01  9.2929722550567739e-01  9.8501899982561647e-01  8.9268204318936639e-01  9.2602410604118568e-01  9.8441871563147543e-01  9.8512612378156905e-01  9.5115446764105704e-01  8.5186932030097517e-01  8.6226483720162805e-01  9.8772341195060653e-01  8.9636736666735073e-01  8.5707976289625409e-01  9.5771115292662257e-01  9.8549551865489038e-01  9.8156705170476977e-01  9.8774378004677754e-01  5.7184581423403624e-01  5.8963002581252222e-01  5.1287475244668090e-01  5.0034567111655293e-01  6.1641724591506175e-01  5.0007774234515190e-01  5.0083338257124488e-01  5.1730948514046804e-01  5.0022204029594364e-01  5.0192479344295238e-01  6.4142962828060035e-01  9.0514224283975153e-01  5.0055745519528949e-01  5.0424618134490440e-01  5.0645625136875616e-01  5.0889929100305109e-01  5.0132679306535111e-01  6.4386827764496257e-01  5.1766589472711633e-01  5.8859815602397481e-01  5.0293319786933510e-01  6.1838444949870663e-01  5.1280009781555547e-01  5.7096372615756474e-01  5.0870386684019420e-01  5.0614587047777304e-01  5.0416126915214066e-01  5.0293095759931217e-01  5.0188253281189565e-01  5.0130218520976300e-01  5.0081848318174105e-01  5.0054392633693690e-01  5.0035715322956842e-01  5.4169806862384151e-01  5.0021767083054813e-01  5.0008111427081103e-01  5.5372489527596713e-01  5.4091636146440913e-01  5.5246377034369409e-01  9.8194052296256285e-01  7.1738572604533191e-01  9.8796458777031249e-01  9.8932886032159462e-01  7.1255418319474328e-01  6.8392890864063016e-01  6.7872532634595750e-01  8.8077124414573871e-01  8.3431399605981538e-01  9.4814652312217995e-01  9.8920226603614614e-01  7.5619327043347706e-01  9.4977489488887179e-01  7.5118562102778197e-01  5.3162235213512676e-01  5.2410238406833598e-01  8.7472328741097516e-01  5.3165151984983072e-01  5.2412912756695729e-01  9.0824311248497513e-01  5.0002082060471953e-01  5.0018785270061794e-01  5.0002210310637463e-01  5.0019001174469346e-01  7.9107418798799178e-01  9.5022929295477798e-01  9.9040489122730568e-01  8.9435252504498686e-01  9.8234489336232278e-01  7.7604642526868861e-01  8.7170935975458563e-01  9.3030197071515586e-01  8.0406278695177280e-01  9.1014155671214936e-01  8.8934194652842957e-01  8.4228516792150865e-01  9.6770011659210042e-01  9.8089012497402894e-01  9.9166445308624074e-01  9.2645486236364061e-01  9.6145107270032282e-01  9.6517521909332371e-01  8.0331586545405176e-01  9.6393081058020258e-01  9.9091884790153095e-01  9.8804615046056288e-01  8.6452462804835095e-01  8.5956489150223492e-01  8.0426040573679569e-01  9.3799549837407892e-01  5.2245014721448912e-01  5.9697827643052159e-01  6.1901984456466852e-01  5.1686839383313365e-01  5.0851019942206732e-01  5.1161300222424999e-01  5.7301092436020140e-01  5.5791248735437837e-01  5.0403621400495202e-01  5.0565316435137952e-01  5.0181646199404029e-01  5.0261094613798762e-01  5.0025162381352650e-01  5.0077695635569264e-01  5.0047816745075446e-01  5.0004740671416703e-01  5.0112200637020066e-01  9.8950232844759034e-01  5.3246770924691533e-01  5.4201235738790732e-01  5.0256673570185506e-01  5.0011729051657650e-01  6.4053708320088121e-01  6.6832183393175526e-01  5.0114637938644291e-01  5.0556505177288735e-01  5.0030845087029008e-01  5.1144288608321731e-01  6.6997221153530806e-01  5.0031567130710031e-01  6.2071751930965846e-01  5.2233007675734000e-01  5.7398129245546603e-01  5.0076365682392221e-01  5.0178243860069471e-01  5.0472325581006627e-01  6.4159804099960105e-01  5.0975045305371214e-01  5.4277994568094368e-01  5.9861274881258741e-01  5.1664475074276206e-01  5.5871197908264347e-01  5.0048875581915941e-01  5.0012033710788451e-01  5.3305397498780882e-01  7.1243890572318658e-01  5.0025279796100686e-01  5.0004777791363109e-01  7.1526120689647976e-01  9.9146709946987499e-01  9.9188805813962599e-01  9.6690631695361207e-01  9.2429801538393974e-01  8.4616274860341700e-01  7.5033349427971563e-01  9.2780576828649752e-01  8.7874907592940643e-01  7.4218816279115762e-01  9.1318349528683918e-01  9.7250406194315475e-01  8.7485985266411503e-01  9.9197868184367410e-01  9.6301447717562327e-01  9.9302866163974668e-01  9.9091938566715898e-01  9.8119598370167638e-01  9.8917838554436965e-01  9.7549988837688284e-01  9.4765470446006994e-01  9.1619684106336907e-01  9.9304329913397937e-01  9.1408343843075479e-01  9.7486168437264853e-01  9.3217424036164076e-01  9.7632684428598526e-01  9.7873194695840937e-01  8.2480564007176826e-01  9.4596748634268046e-01  9.6611171058421419e-01  9.3449212296196915e-01  5.0018052963598347e-01  5.0001622086456277e-01  7.7517206944623795e-01  9.0206227603986189e-01  8.4964427825260747e-01  9.4197825742145125e-01  9.9317073377666587e-01  9.7497365893838073e-01  9.6130353104495581e-01  8.9134873976315576e-01  8.2523395223143392e-01  9.1342624320764676e-01  9.4962355240664731e-01  9.4780334163298852e-01  9.1138304943845083e-01  8.8969768341972910e-01  9.9035276824840057e-01  9.7396156827487101e-01  9.6847462782828853e-01  9.8973290530863167e-01  9.4179356805282222e-01  9.6065572041296921e-01  9.7277436463917155e-01  9.9331110590134630e-01  8.9407208838815622e-01  5.0350414150190193e-01  5.8242365250351757e-01  5.0241076280628483e-01  5.0103764941730977e-01  5.0042929521523560e-01  5.0016795705914829e-01  6.0199203685046154e-01  5.1456912468416871e-01  5.0722533317135643e-01  5.0339657830541895e-01  5.0151632270559932e-01  5.0065056571938660e-01  5.0760425368854500e-01  5.4827209403513211e-01  5.6138150757412519e-01  5.0517001535298822e-01  5.0016685288091789e-01  9.4287652115514831e-01  5.0064721078950125e-01  5.0042661758283258e-01  5.0150915955618092e-01  5.0103245521359130e-01  5.1074640332651822e-01  5.1454395857461799e-01  5.0236524509630054e-01  8.5874892791387691e-01  5.8233816462786647e-01  5.0337767479170170e-01  8.2173096021331493e-01  5.0717558586309908e-01  6.0195593578712692e-01  9.7922434961405391e-01  7.9689521523358298e-01  5.4823626286589744e-01  5.6135486929485778e-01  7.6389591804228896e-01  9.3054472368428554e-01  5.2926698429317542e-01  5.2223336265525833e-01  6.9563891588733739e-01  6