<?xml version="1.0"?>
<VTKFile type="UnstructuredGrid"  version="0.1"  >
<UnstructuredGrid>
<Piece  NumberOfPoints="4882" NumberOfCells="9241">
<Points>
<DataArray  type="Float64"  NumberOfComponents="3"  format="ascii">6 0.1 0  8 0.1 0  8 0.22 0  7.1 0.22 0  7 0.22 0  6 0.22 0  6.01 0.1 0  6.02 0.1 0  6.03 0.1 0  6.04 0.1 0  6.05 0.1 0  6.06 0.1 0  6.07 0.1 0  6.08 0.1 0  6.09 0.1 0  6.1 0.1 0  6.109999999999999 0.1 0  6.12 0.1 0  6.13 0.1 0  6.14 0.1 0  6.149999999999999 0.1 0  6.16 0.1 0  6.17 0.1 0  6.18 0.1 0  6.19 0.1 0  6.199999999999999 0.1 0  6.21 0.1 0  6.22 0.1 0  6.23 0.1 0  6.239999999999999 0.1 0  6.25 0.1 0  6.26 0.1 0  6.27 0.1 0  6.279999999999999 0.1 0  6.289999999999999 0.1 0  6.3 0.1 0  6.31 0.1 0  6.319999999999999 0.1 0  6.329999999999999 0.1 0  6.34 0.1 0  6.35 0.1 0  6.359999999999999 0.1 0  6.369999999999999 0.1 0  6.379999999999999 0.1 0  6.389999999999999 0.1 0  6.399999999999999 0.1 0  6.409999999999999 0.1 0  6.419999999999999 0.1 0  6.429999999999999 0.1 0  6.44 0.1 0  6.449999999999999 0.1 0  6.459999999999999 0.1 0  6.469999999999999 0.1 0  6.479999999999999 0.1 0  6.489999999999999 0.1 0  6.499999999999999 0.1 0  6.509999999999999 0.1 0  6.519999999999999 0.1 0  6.529999999999998 0.1 0  6.539999999999999 0.1 0  6.549999999999999 0.1 0  6.559999999999999 0.1 0  6.569999999999999 0.1 0  6.579999999999998 0.1 0  6.589999999999998 0.1 0  6.599999999999999 0.1 0  6.609999999999999 0.1 0  6.619999999999998 0.1 0  6.629999999999998 0.1 0  6.639999999999999 0.1 0  6.649999999999999 0.1 0  6.659999999999998 0.1 0  6.669999999999998 0.1 0  6.679999999999999 0.1 0  6.689999999999999 0.1 0  6.699999999999998 0.1 0  6.709999999999998 0.1 0  6.719999999999999 0.1 0  6.729999999999999 0.1 0  6.739999999999998 0.1 0  6.749999999999998 0.1 0  6.759999999999998 0.1 0  6.769999999999999 0.1 0  6.779999999999998 0.1 0  6.789999999999998 0.1 0  6.799999999999999 0.1 0  6.809999999999999 0.1 0  6.819999999999999 0.1 0  6.829999999999998 0.1 0  6.839999999999999 0.1 0  6.849999999999999 0.1 0  6.859999999999999 0.1 0  6.869999999999998 0.1 0  6.879999999999999 0.1 0  6.889999999999999 0.1 0  6.899999999999999 0.1 0  6.909999999999998 0.1 0  6.919999999999998 0.1 0  6.929999999999999 0.1 0  6.939999999999999 0.1 0  6.949999999999998 0.1 0  6.959999999999999 0.1 0  6.969999999999999 0.1 0  6.979999999999999 0.1 0  6.989999999999998 0.1 0  6.999999999999999 0.1 0  7.009999999999999 0.1 0  7.019999999999999 0.1 0  7.029999999999999 0.1 0  7.039999999999999 0.1 0  7.049999999999999 0.1 0  7.059999999999999 0.1 0  7.069999999999999 0.1 0  7.079999999999998 0.1 0  7.089999999999999 0.1 0  7.099999999999999 0.1 0  7.109999999999999 0.1 0  7.119999999999999 0.1 0  7.129999999999999 0.1 0  7.139999999999999 0.1 0  7.149999999999999 0.1 0  7.159999999999999 0.1 0  7.169999999999999 0.1 0  7.179999999999999 0.1 0  7.19 0.1 0  7.199999999999999 0.1 0  7.209999999999999 0.1 0  7.219999999999999 0.1 0  7.229999999999999 0.1 0  7.239999999999998 0.1 0  7.249999999999999 0.1 0  7.259999999999999 0.1 0  7.27 0.1 0  7.279999999999999 0.1 0  7.289999999999999 0.1 0  7.299999999999999 0.1 0  7.309999999999999 0.1 0  7.319999999999999 0.1 0  7.329999999999999 0.1 0  7.339999999999999 0.1 0  7.35 0.1 0  7.359999999999999 0.1 0  7.369999999999999 0.1 0  7.379999999999999 0.1 0  7.389999999999999 0.1 0  7.399999999999999 0.1 0  7.409999999999999 0.1 0  7.419999999999999 0.1 0  7.43 0.1 0  7.44 0.1 0  7.449999999999999 0.1 0  7.459999999999999 0.1 0  7.469999999999999 0.1 0  7.48 0.1 0  7.489999999999999 0.1 0  7.499999999999999 0.1 0  7.51 0.1 0  7.52 0.1 0  7.529999999999999 0.1 0  7.539999999999999 0.1 0  7.549999999999999 0.1 0  7.56 0.1 0  7.569999999999999 0.1 0  7.579999999999999 0.1 0  7.59 0.1 0  7.6 0.1 0  7.609999999999999 0.1 0  7.619999999999999 0.1 0  7.629999999999999 0.1 0  7.64 0.1 0  7.649999999999999 0.1 0  7.66 0.1 0  7.67 0.1 0  7.68 0.1 0  7.69 0.1 0  7.699999999999999 0.1 0  7.709999999999999 0.1 0  7.72 0.1 0  7.73 0.1 0  7.739999999999999 0.1 0  7.75 0.1 0  7.76 0.1 0  7.77 0.1 0  7.779999999999999 0.1 0  7.789999999999999 0.1 0  7.8 0.1 0  7.81 0.1 0  7.82 0.1 0  7.83 0.1 0  7.84 0.1 0  7.85 0.1 0  7.859999999999999 0.1 0  7.869999999999999 0.1 0  7.88 0.1 0  7.89 0.1 0  7.899999999999999 0.1 0  7.91 0.1 0  7.92 0.1 0  7.93 0.1 0  7.94 0.1 0  7.949999999999999 0.1 0  7.96 0.1 0  7.97 0.1 0  7.98 0.1 0  7.99 0.1 0  8 0.1099999999999788 0  8 0.1199999999999512 0  8 0.1299999999999173 0  8 0.1399999999998952 0  8 0.1499999999998641 0  8 0.1599999999998293 0  8 0.1699999999998686 0  8 0.1799999999998971 0  8 0.1899999999999147 0  8 0.1999999999999323 0  8 0.2099999999999607 0  7.990085836355354 0.22 0  7.980171672710533 0.22 0  7.970257509065752 0.22 0  7.960343345421177 0.22 0  7.950429181776419 0.22 0  7.940515018131598 0.22 0  7.930600854486929 0.22 0  7.920686690842305 0.22 0  7.910772527197484 0.22 0  7.900858363552682 0.22 0  7.890944199908105 0.22 0  7.88103003626337 0.22 0  7.87111587261855 0.22 0  7.861201708973858 0.22 0  7.851287545329257 0.22 0  7.841373381684436 0.22 0  7.831459218039615 0.22 0  7.821545054395035 0.22 0  7.811630890750322 0.22 0  7.801716727105502 0.22 0  7.791802563460787 0.22 0  7.781888399816208 0.22 0  7.771974236171387 0.22 0  7.762060072526567 0.22 0  7.752145908881964 0.22 0  7.742231745237274 0.22 0  7.732317581592453 0.22 0  7.722403417947716 0.22 0  7.712489254303141 0.22 0  7.702575090658339 0.22 0  7.692660927013642 0.22 0  7.682746763369046 0.22 0  7.672832599724225 0.22 0  7.662918436079405 0.22 0  7.653004272434819 0.22 0  7.643090108790111 0.22 0  7.633175945145291 0.22 0  7.623261781500571 0.22 0  7.613347617855996 0.22 0  7.603433454211177 0.22 0  7.593519290566356 0.22 0  7.583605126921748 0.22 0  7.573690963277063 0.22 0  7.563776799632242 0.22 0  7.5538626359875 0.22 0  7.543948472342924 0.22 0  7.534034308698129 0.22 0  7.524120145053308 0.22 0  7.514205981408487 0.22 0  7.504291817763667 0.22 0  7.494377654118846 0.22 0  7.484463490474027 0.22 0  7.474549326829206 0.22 0  7.464635163184385 0.22 0  7.454720999539565 0.22 0  7.444806835894744 0.22 0  7.434892672249925 0.22 0  7.424978508605104 0.22 0  7.415064344960284 0.22 0  7.405150181315463 0.22 0  7.395236017670642 0.22 0  7.385321854025823 0.22 0  7.375407690381002 0.22 0  7.365493526736182 0.22 0  7.355579363091362 0.22 0  7.345665199446541 0.22 0  7.335751035801721 0.22 0  7.3258368721569 0.22 0  7.315922708512131 0.22 0  7.306008544867555 0.22 0  7.296094381222787 0.22 0  7.286180217577966 0.22 0  7.276266053933307 0.22 0  7.266351890288672 0.22 0  7.256437726643852 0.22 0  7.24652356299906 0.22 0  7.236609399354484 0.22 0  7.226695235709738 0.22 0  7.216781072064918 0.22 0  7.206866908420237 0.22 0  7.196952744775624 0.22 0  7.187038581130803 0.22 0  7.177124417485989 0.22 0  7.167210253841413 0.22 0  7.15729609019669 0.22 0  7.147381926551869 0.22 0  7.137467762907166 0.22 0  7.127609887754289 0.22 0  7.119267423713023 0.22 0  7.112902479254871 0.22 0  7.108462887920409 0.22 0  7.105141639945627 0.22 0  7.101184123304556 0.22 0  7.09900000000009 0.22 0  7.097999999999909 0.22 0  7.09699999999975 0.22 0  7.095999999999861 0.22 0  7.09499999999993 0.22 0  7.093999999999729 0.22 0  7.092999999999591 0.22 0  7.091999999999723 0.22 0  7.090999999999771 0.22 0  7.089999999999549 0.22 0  7.088999999999444 0.22 0  7.087999999999584 0.22 0  7.086999999999611 0.22 0  7.085999999999368 0.22 0  7.084999999999305 0.22 0  7.083999999999445 0.22 0  7.082999999999451 0.22 0  7.081999999999375 0.22 0  7.080999999999514 0.22 0  7.079999999999653 0.22 0  7.078999999999639 0.22 0  7.077999999999584 0.22 0  7.076999999999722 0.22 0  7.075999999999861 0.22 0  7.074999999999826 0.22 0  7.073999999999792 0.22 0  7.07299999999993 0.22 0  7.072000000000069 0.22 0  7.071000000000014 0.22 0  7.069999999999999 0.22 0  7.069000000000139 0.22 0  7.068000000000278 0.22 0  7.067000000000201 0.22 0  7.066000000000208 0.22 0  7.065000000000347 0.22 0  7.064000000000472 0.22 0  7.063000000000389 0.22 0  7.062000000000416 0.22 0  7.061000000000555 0.22 0  7.060000000000451 0.22 0  7.059000000000228 0.22 0  7.058000000000278 0.22 0  7.057000000000409 0.22 0  7.05600000000027 0.22 0  7.055000000000069 0.22 0  7.054000000000139 0.22 0  7.05300000000025 0.22 0  7.05200000000009 0.22 0  7.05099999999991 0.22 0  7.05 0.22 0  7.04900000000009 0.22 0  7.047999999999909 0.22 0  7.04699999999975 0.22 0  7.045999999999861 0.22 0  7.044999999999931 0.22 0  7.04399999999973 0.22 0  7.042999999999591 0.22 0  7.041999999999723 0.22 0  7.040999999999771 0.22 0  7.039999999999549 0.22 0  7.038999999999445 0.22 0  7.037999999999584 0.22 0  7.036999999999612 0.22 0  7.035999999999528 0.22 0  7.034999999999653 0.22 0  7.033999999999792 0.22 0  7.032999999999799 0.22 0  7.031999999999723 0.22 0  7.030999999999861 0.22 0  7.03 0.22 0  7.028999999999987 0.22 0  7.02799999999993 0.22 0  7.027000000000069 0.22 0  7.026000000000209 0.22 0  7.025000000000174 0.22 0  7.024000000000139 0.22 0  7.023000000000278 0.22 0  7.022000000000416 0.22 0  7.021000000000361 0.22 0  7.020000000000347 0.22 0  7.019000000000486 0.22 0  7.018000000000624 0.22 0  7.017000000000548 0.22 0  7.016000000000555 0.22 0  7.015000000000694 0.22 0  7.014000000000632 0.22 0  7.013000000000389 0.22 0  7.012000000000416 0.22 0  7.011000000000555 0.22 0  7.010000000000451 0.22 0  7.009000000000229 0.22 0  7.008000000000278 0.22 0  7.007000000000409 0.22 0  7.00600000000027 0.22 0  7.005000000000069 0.22 0  7.004000000000139 0.22 0  7.00300000000025 0.22 0  7.00200000000009 0.22 0  7.00099999999991 0.22 0  6.994809698470582 0.22 0  6.991569006236496 0.22 0  6.987074728859082 0.22 0  6.980583540116057 0.22 0  6.972279556173985 0.22 0  6.962550869064059 0.22 0  6.952627664228347 0.22 0  6.942704459392635 0.22 0  6.932781254556923 0.22 0  6.922858049721211 0.22 0  6.912934844885499 0.22 0  6.903011640049788 0.22 0  6.893088435214075 0.22 0  6.883165230378363 0.22 0  6.873242025542651 0.22 0
[...]
<PointData  Scalars="concentration"> 
<DataArray  type="Float64"  Name="concentration"  format="ascii">5.0000000000000000e-01  5.0038654975402874e-01  5.0038660454537365e-01  1.0000000000000000e+00  9.9999999999999989e-01  5.0000000000000000e-01  5.0001389874855862e-01  5.0002803676631269e-01  5.0004263722951769e-01  5.0005792662341275e-01  5.0007417048013703e-01  5.0009159012443882e-01  5.0011050361448062e-01  5.0013114698902894e-01  5.0015392238513701e-01  5.0017902914375223e-01  5.0020684121162373e-01  5.0023798588789226e-01  5.0027274497893481e-01  5.0031169374183537e-01  5.0035457397018379e-01  5.0040311901917789e-01  5.0045744274011716e-01  5.0051807679754878e-01  5.0058592634784449e-01  5.0066170968109547e-01  5.0074717938394542e-01  5.0084108875588840e-01  5.0094678239460932e-01  5.0106466712215181e-01  5.0119570981024397e-01  5.0134151200291899e-01  5.0150355855749174e-01  5.0168501919275710e-01  5.0188317985105535e-01  5.0210481446927702e-01  5.0235021820271841e-01  5.0262121266878057e-01  5.0292030830359602e-01  5.0325060163805668e-01  5.0361740870550431e-01  5.0401492619226318e-01  5.0445649171618734e-01  5.0494164641799377e-01  5.0547378576856195e-01  5.0605641067728679e-01  5.0669370916768841e-01  5.0739282739523472e-01  5.0815494962583385e-01  5.0898646835465111e-01  5.0989364474997456e-01  5.1088067993549635e-01  5.1195426361057994e-01  5.1311969448954298e-01  5.1438447507540830e-01  5.1575286187792313e-01  5.1723506151382237e-01  5.1883744532374898e-01  5.2056706062345715e-01  5.2243286582570603e-01  5.2443969911937838e-01  5.2659632474966944e-01  5.2892186957029863e-01  5.3140800872457128e-01  5.3407358799013271e-01  5.3692403154554424e-01  5.3997499099302892e-01  5.4323083954995943e-01  5.4670106398165474e-01  5.5039535763944136e-01  5.5432293439048597e-01  5.5849495666022819e-01  5.6292303250408604e-01  5.6760867199136578e-01  5.7256555336541115e-01  5.7779589124284325e-01  5.8331850197533308e-01  5.8913756932023620e-01  5.9525647713908547e-01  6.0168911576081185e-01  6.0843040157168427e-01  6.1549350690257898e-01  6.2288273043377229e-01  6.3059906092013851e-01  6.3864163851434730e-01  6.4701510819311869e-01  6.5571268755424361e-01  6.6473581849509322e-01  6.7407684611414764e-01  6.8372740713147551e-01  6.9367258983539937e-01  7.0389652210481168e-01  7.1437847219161499e-01  7.2508836306990609e-01  7.3599231886395988e-01  7.4703882398208532e-01  7.5816168067271317e-01  7.6934107280851682e-01  7.8046541042570550e-01  7.9142060341707776e-01  8.0211699562674887e-01  8.1240204725612764e-01  8.2222233814374368e-01  8.3127516501576981e-01  8.3956602838233296e-01  8.4692849768106071e-01  8.5310221749400894e-01  8.5802609892176385e-01  8.6164779966078986e-01  8.6380777576933310e-01  8.6454161064104362e-01  8.6378198013590846e-01  8.6157522291741973e-01  8.5798290300800606e-01  8.5302767569469584e-01  8.4684309124268287e-01  8.3948485258706185e-01  8.3125152005212488e-01  8.2216878799214277e-01  8.1239763244599150e-01  8.0209146910803875e-01  7.9138559999548808e-01  7.8044706571774647e-01  7.6935393637811189e-01  7.5821249000311342e-01  7.4710039322453059e-01  7.3606602703771795e-01  7.2518406469901442e-01  7.1449496837732818e-01  7.0402676422937316e-01  6.9382174874815161e-01  6.8389100446033890e-01  6.7425584318438492e-01  6.6492478905195962e-01  6.5591082940178225e-01  6.4721613402499045e-01  6.3884778851769097e-01  6.3080890224947506e-01  6.2309925525835652e-01  6.1570913954533246e-01  6.0864620538576397e-01  6.0190158178088005e-01  5.9547071304723731e-01  5.8935366307371773e-01  5.8353224206014798e-01  5.7800598259882496e-01  5.7276189244296671e-01  5.6780020691198918e-01  5.6310974158470661e-01  5.5867957285899039e-01  5.5450247068636715e-01  5.5056732535227548e-01  5.4686664944631347e-01  5.4339007816163842e-01  5.4012694972775199e-01  5.3706942065837393e-01  5.3421035459552868e-01  5.3153831930476769e-01  5.2904376363266015e-01  5.2671691610097549e-01  5.2455122098224838e-01  5.2253654349039913e-01  5.2066608661811575e-01  5.1893191788651727e-01  5.1732200424295149e-01  5.1583620490213877e-01  5.1446190160335992e-01  5.1319190491271849e-01  5.1202039669311739e-01  5.1094150283796091e-01  5.0995841399270647e-01  5.0904183225069122e-01  5.0820640401708328e-01  5.0744119230291984e-01  5.0674026718615928e-01  5.0609849769275295e-01  5.0551225059442706e-01  5.0498214440024025e-01  5.0449211769230073e-01  5.0404952679761861e-01  5.0364716753037819e-01  5.0328199164308651e-01  5.0295031261117507e-01  5.0265009540633454e-01  5.0238088558227956e-01  5.0213411869959590e-01  5.0191350227113762e-01  5.0171481909165372e-01  5.0153627854686678e-01  5.0137578400877647e-01  5.0123214209502209e-01  5.0110546624260388e-01  5.0099086522215897e-01  5.0088948945753398e-01  5.0079993080739349e-01  5.0072176655670486e-01  5.0065335924893029e-01  5.0059383786673106e-01  5.0054307407793530e-01  5.0050010816011659e-01  5.0046469060230359e-01  5.0043615936489050e-01  5.0041437862384763e-01  5.0039893360718501e-01  5.0038969078055962e-01  5.0038691448272543e-01  5.0038677612586080e-01  5.0038640192079065e-01  5.0038671015881153e-01  5.0038691770742005e-01  5.0038688608468107e-01  5.0038627215107712e-01  5.0038683312021404e-01  5.0038665239988267e-01  5.0038678236313172e-01  5.0038694890615520e-01  5.0038969420004575e-01  5.0039871944730041e-01  5.0041388368955086e-01  5.0043531896254667e-01  5.0046320848131853e-01  5.0049788622777835e-01  5.0054030317522125e-01  5.0059017829891850e-01  5.0064835379971429e-01  5.0071570224047846e-01  5.0079242354043174e-01  5.0087987298061376e-01  5.0097884305825280e-01  5.0109020541164373e-01  5.0121526233718161e-01  5.0135535443806023e-01  5.0151183906622210e-01  5.0168617826514672e-01  5.0187966588463473e-01  5.0209498660397933e-01  5.0233319704595936e-01  5.0259721134625623e-01  5.0288901343030623e-01  5.0321116701233992e-01  5.0356623482760765e-01  5.0395644055712030e-01  5.0438645358601220e-01  5.0485786884200101e-01  5.0537567035020015e-01  5.0594302294849935e-01  5.0656407425079164e-01  5.0724289903759756e-01  5.0798287856641466e-01  5.0879152898826185e-01  5.0967096620522101e-01  5.1062899158072483e-01  5.1167018344890280e-01  5.1280062512457159e-01  5.1402617460861122e-01  5.1535143122481319e-01  5.1678757287048394e-01  5.1833687205154166e-01  5.2001050176865005e-01  5.2181430644282067e-01  5.2375591963867674e-01  5.2584225033974130e-01  5.2808494214130797e-01  5.3049248072069621e-01  5.3306871347429696e-01  5.3582523699513140e-01  5.3876970758614295e-01  5.4191246622053779e-01  5.4526383247378563e-01  5.4883398834220454e-01  5.5262789277233071e-01  5.5665292354966389e-01  5.6092591490554999e-01  5.6545542294822559e-01  5.7024527720658891e-01  5.7530574598999784e-01  5.8064335648766108e-01  5.8627099487881129e-01  5.9219883529996176e-01  5.9843533038401231e-01  6.0497688693753582e-01  6.1183730089915866e-01  6.1902460003763071e-01  6.2654708603292264e-01  6.3440819859888065e-01  6.4261249651939556e-01  6.5116998384673719e-01  6.6008591522242177e-01  6.6936618127763303e-01  6.7902497999601152e-01  6.8907302695886041e-01  6.9952203424585402e-01  7.1033453777747768e-01  7.2160145463714820e-01  7.3333068533281209e-01  7.4552702998848686e-01  7.5825128760802230e-01  7.7160235924788112e-01  7.8560037566251639e-01  8.0036625805534178e-01  8.1618369496978105e-01  8.3320539403771399e-01  8.5211520294122012e-01  8.7339552197411019e-01  8.9441064305748830e-01  9.1381043008466190e-01  9.3066791843018126e-01  9.4625991531594611e-01  9.7588755719066589e-01  1.0000000000000000e+00  1.0000000000000000e+00  1.0000000000000000e+00  9.9999999999999989e-01  1.0000000000000000e+00  1.0000000000000000e+00  1.0000000000000000e+00  1.0000000000000000e+00  1.0000000000000000e+00  1.0000000000000000e+00  1.0000000000000000e+00  1.0000000000000000e+00  1.0000000000000000e+00  1.0000000000000000e+00  1.0000000000000000e+00  1.0000000000000000e+00  1.0000000000000000e+00  1.0000000000000000e+00  1.0000000000000000e+00  1.0000000000000000e+00  1.0000000000000000e+00  1.0000000000000000e+00  1.0000000000000000e+00  9.9999999999999989e-01  1.0000000000000000e+00  1.0000000000000000e+00  1.0000000000000000e+00  1.0000000000000000e+00  1.0000000000000000e+00  9.9999999999999989e-01  1.0000000000000000e+00  1.0000000000000000e+00  1.0000000000000000e+00  1.0000000000000000e+00  1.0000000000000000e+00  1.0000000000000000e+00  1.0000000000000000e+00  1.0000000000000000e+00  1.0000000000000000e+00  1.0000000000000000e+00  9.9999999999999989e-01  1.0000000000000000e+00  1.0000000000000000e+00  1.0000000000000000e+00  1.0000000000000000e+00  1.0000000000000000e+00  1.0000000000000000e+00  1.0000000000000000e+00  1.0000000000000000e+00  1.0000000000000000e+00  1.0000000000000000e+00  1.0000000000000000e+00  1.0000000000000000e+00  1.0000000000000000e+00  1.0000000000000000e+00  1.0000000000000000e+00  1.0000000000000000e+00  1.0000000000000000e+00  1.0000000000000000e+00  1.0000000000000000e+00  1.0000000000000000e+00  1.0000000000000000e+00  1.0000000000000000e+00  1.0000000000000000e+00  9.9999999999999989e-01  1.0000000000000000e+00  1.0000000000000000e+00  1.0000000000000000e+00  1.0000000000000000e+00  1.0000000000000000e+00  1.0000000000000000e+00  1.0000000000000000e+00  1.0000000000000000e+00  1.0000000000000000e+00  1.0000000000000000e+00  1.0000000000000000e+00  1.0000000000000000e+00  1.0000000000000000e+00  1.0000000000000000e+00  1.0000000000000000e+00  9.9999999999999989e-01  1.0000000000000000e+00  1.0000000000000000e+00  1.0000000000000000e+00  1.0000000000000000e+00  1.0000000000000000e+00  1.0000000000000000e+00  1.0000000000000000e+00  1.0000000000000000e+00  1.0000000000000000e+00  1.0000000000000000e+00  1.0000000000000000e+00  1.0000000000000000e+00  1.0000000000000000e+00  1.0000000000000000e+00  9.9999999999999989e-01  1.0000000000000000e+00  1.0000000000000000e+00  1.0000000000000000e+00  9.4675938812985538e-01  9.3217815986453900e-01  9.1498452751851844e-01  8.9483971052959577e-01  8.7377000510746539e-01  8.5280619452003958e-01  8.3374557757064127e-01  8.1648975435922655e-01  8.0059785403295136e-01  7.8572916862312270e-01  7.7163192657855284e-01  7.5826027779719807e-01  7.4548577652661829e-01  7.3322554871595580e-01  7.2147496343202988e-01  7.1016072315739021e-01  6.9929610165270495e-01  6.8883106160833008e-01  6.7877005295830928e-01  6.6911917082739125e-01  6.5980445228465434e-01  6.5086506281636369e-01  6.4229332493334823e-01  6.3408099508724713e-01  6.2621516693774593e-01  6.1869067232176056e-01  6.1150185556247560e-01  6.0463825818729078e-01  5.9809521727459991e-01  5.9186777533117141e-01  5.8594656625845620e-01  5.8032267278125915e-01  5.7498182162812017e-01  5.6992579506737950e-01  5.6514515449665115e-01  5.6062917300834880e-01  5.5636458349797857e-01  5.5234426216103816e-01  5.4855764344014202e-01  5.4499993453312390e-01  5.4166218423887125e-01  5.3852847065096243e-01  5.3559124434935801e-01  5.3284492756190627e-01  5.3027972540589297e-01  5.2788550688410452e-01  5.2565391019795449e-01  5.2357490605282875e-01  5.2164235142136872e-01  5.1984567320630626e-01  5.1818300342078538e-01  5.1664271485012303e-01  5.1521484493469272e-01  5.1389656323513822e-01  5.1267836130343181e-01  5.1155627470428977e-01  5.1052286754532639e-01  5.0957227848539099e-01  5.0869868170953958e-01  5.0789536547193503e-01  5.0715973400966596e-01  5.0649064843343650e-01  5.0586995867706397e-01  5.0530877328202917e-01  5.0479550729162570e-01  5.0432675904363056e-01  5.0390015100906027e-01  5.0351561424854596e-01  5.0316094948281731e-01  5.0284155111417672e-01  5.0255226405999132e-01  5.0228968189771073e-01  5.0205204376342283e-01  5.0183731350574978e-01  5.0164343803894751e-01  5.0146883141674525e-01  5.0131118138623754e-01  5.0116961594508780e-01  5.0104204819483988e-01  5.0092741047183464e-01  5.0082452914390696e-01  5.0073224815889272e-01  5.0064966560315638e-01  5.0057554699995821e-01  5.0050936858394091e-01  5.0045002800104077e-01  5.0039694040942628e-01  5.0034947436502575e-01  5.0030703886325822e-01  5.0026906806044247e-01  5.0023501069301890e-01  5.0020446735745006e-01  5.0017705635958876e-01  5.0015224860307750e-01  5.0012984153676943e-01  5.0010944626874321e-01  5.0009071108246461e-01  5.0007350258186545e-01  5.0005744482623049e-01  5.0004228977867238e-01  5.0002781457097123e-01  5.0001379319140205e-01  5.0000000000000000e-01  5.0000000000000000e-01  5.0000000000000000e-01  5.0000000000000000e-01  5.0000000000000000e-01  5.0000000000000000e-01  5.0000000000000000e-01  5.0000000000000000e-01  5.0000000000000000e-01  5.0000000000000000e-01  5.0000000000000000e-01  8.9371348798843209e-01  8.7675394076605351e-01  8.9616669630857859e-01  9.2237720311419302e-01  9.3819692261544074e-01  9.1548940475334628e-01  9.4076840524238403e-01  9.5804735749040382e-01  9.5575727170921765e-01  9.5377699409607886e-01  9.6645208505385072e-01  9.3458521932404814e-01  9.6777162648543968e-01  9.3582058476629715e-01  9.7347216322214525e-01  9.7283049134988719e-01  9.7811811518348102e-01  8.5443105079657911e-01  9.6940323339727663e-01  8.0640346013450293e-01  9.8044422021572331e-01  7.6954717217196622e-01  9.6431038226882249e-01  9.6293267277987327e-01  8.8569183959210174e-01  7.3434222925970050e-01  5.0051846862097771e-01  5.0104830228970321e-01  5.0009992473400067e-01  5.0224619802304460e-01  5.0029378979468753e-01  5.0469015677872542e-01  5.0935830488438927e-01  5.0070361339093594e-01  6.9495180608656415e-01  5.1779508741087643e-01  6.2909313583827209e-01  5.3237039217169180e-01  5.8248753346836313e-01  5.0158114398018061e-01  5.0337526868755000e-01  5.0671601677437073e-01  6.6494753005420837e-01  5.1317256187630378e-01  6.0658710923277592e-01  5.2508643500871244e-01  5.6671473343089940e-01  5.5070096648129219e-01  9.8073364466556978e-01  5.4004955189751525e-01  9.7786401859660488e-01  9.8369519236919645e-01  9.8424985621248917e-01  8.2901397513775821e-01  8.5774188556748410e-01  9.8350557825953044e-01  9.8444158222341516e-01  9.6195439608295630e-01  9.3408526048158136e-01  9.8604610584273455e-01  8.9997053988109921e-01  9.3113470173917035e-01  9.8547624177786097e-01  9.8612895278483426e-01  9.5451230956475897e-01  8.6200462846868098e-01  8.7185207085248995e-01  9.8856870184928836e-01  9.0354952574183511e-01  8.6618661993935842e-01  9.6046440416463952e-01  9.8646664254188776e-01  9.8279068041662632e-01  9.8858621875405739e-01  5.8558792192995401e-01  6.0453070081510618e-01  5.1821171232784224e-01  5.0071201301929102e-01  6.3229191125710016e-01  5.0017580551007790e-01  5.0155214557121697e-01  5.2379131183405991e-01  5.0046375407193178e-01  5.0329279454900910e-01  6.5780533557837939e-01  9.1158993095215035e-01  5.0107114872225866e-01  5.0671539577944080e-01  5.0978272582419415e-01  5.1307454342686387e-01  5.0234750486624991e-01  6.6023148949614219e-01  5.2423111428485603e-01  6.0343526074105058e-01  5.0480436597317035e-01  6.3429129780482674e-01  5.1811650714652646e-01  5.8463475332517845e-01  5.1281607880107583e-01  5.0935804070483715e-01  5.0659444290846445e-01  5.0480111690022600e-01  5.0322771338143535e-01  5.0230817651031245e-01  5.0152732991830828e-01  5.0104759148811562e-01  5.0073258616975858e-01  5.5243426762769754e-01  5.0045542491601369e-01  5.0018294666987606e-01  5.6591472657371189e-01  5.5154728511172157e-01  5.6451778244565232e-01  9.8314108171372516e-01  7.3289141419763260e-01  9.8878929171440477e-01  9.9006289165916683e-01  7.2831115949670677e-01  7.0007243538042863e-01  6.9500536269211510e-01  8.8852764752158520e-01  8.4504040828737370e-01  9.5171770022011781e-01  9.8994028547480428e-01  7.7034571204857361e-01  9.5320873250191207e-01  7.6576266352943101e-01  5.4091135407813262e-01  5.3201800072107508e-01  8.8302397708705427e-01  5.4094634755429882e-01  5.3205018413278904e-01  9.1457696854022785e-01  5.0004931213829518e-01  5.0042323014269030e-01  5.0005231570637798e-01  5.0042727231232276e-01  8.0375771376495575e-01  9.5359704229594733e-01  9.9106010356889029e-01  9.0163044047893581e-01  9.8351084887287266e-01  7.8974466881965022e-01  8.8042026444699395e-01  9.3506876048598919e-01  8.1651822776203375e-01  9.1592665355664171e-01  8.9646561648162881e-01  8.5261666561296201e-01  9.6992391157230529e-01  9.8214938282720299e-01  9.9223819935062796e-01  9.3133519376183282e-01  9.6410582409771639e-01  9.6755824669968404e-01  8.1534086506851822e-01  9.6639514279252481e-01  9.9153714522701186e-01  9.8884694601262857e-01  8.7385357586009649e-01  8.6932677325710794e-01  8.1647930256339118e-01  9.4227253843530467e-01  5.3006150791224727e-01  6.1217709571606616e-01  6.3502611158757138e-01  5.2322404434853875e-01  5.1254566341015384e-01  5.1661332251665537e-01  5.8688867587867422e-01  5.7047898030295219e-01  5.0640679802597632e-01  5.0868986877996725e-01  5.0311767265852281e-01  5.0433337426399949e-01  5.0054138181840890e-01  5.0144692992774897e-01  5.0094665371571334e-01  5.0010995002025260e-01  5.0202655475846647e-01  9.9021302285958535e-01  5.4186329144558054e-01  5.5282889683511882e-01  5.0426738485753497e-01  5.0025795564925579e-01  6.5685251728054694e-01  6.8475656872182955e-01  5.0206597259765529e-01  5.0856814620829216e-01  5.0062586186680513e-01  5.1639462713574458e-01  6.8631131316056726e-01  5.0063915035892026e-01  6.3673486509864019e-01  5.2991737624158808e-01  5.8792249605520575e-01  5.0142455674899644e-01  5.0306506506485238e-01  5.0738220669519640e-01  6.5787403968617419e-01  5.1418077811941165e-01  5.5369475020758208e-01  6.1386504301639799e-01  5.2294691906690971e-01  5.7135210337725229e-01  5.0096514629429723e-01  5.0026414571559663e-01  5.4254191975578070e-01  7.2799799296138890e-01  5.0054353883287461e-01  5.0011077745802746e-01  7.3092165744760229e-01  9.9205312722167971e-01  9.9244486608204896e-01  9.6915923858801034e-01  9.2919916814739767e-01  8.5648698124932110e-01  7.6473513328429010e-01  9.3271847581002032e-01  8.8717437368177188e-01  7.5714726851590841e-01  9.1909529264431333e-01  9.7439508449532597e-01  8.8343511931810781e-01  9.9252486748751234e-01  9.6550211972138711e-01  9.9350629829905635e-01  9.9153420473796039e-01  9.8243032634995042e-01  9.8990597568176630e-01  9.7710062784158092e-01  9.5113391789294544e-01  9.2176084918908319e-01  9.9352215708389668e-01  9.1997606567021994e-01  9.7658298438483182e-01  9.3672508025640866e-01  9.7787086136371637e-01  9.8019428898172833e-01  8.3637172527063941e-01  9.4962831398355696e-01  9.6844651702750773e-01  9.3899795707900835e-01  5.0040951673097456e-01  5.0003852272175109e-01  7.8890400554111417e-01  9.0850403462254481e-01  8.5995301995247853e-01  9.4582519400391907e-01  9.9364049810603883e-01  9.7668999757581565e-01  9.6388229021662486e-01  8.9864345764956621e-01  8.3675891194758001e-01  9.1941150074443700e-01  9.5308192638472977e-01  9.5118819431464097e-01  9.1736035375766178e-01  8.9687483201106699e-01  9.9099625313286033e-01  9.7565329244864574e-01  9.7060212535529622e-01  9.9041763044527276e-01  9.4574962107277438e-01  9.6336178611836465e-01  9.7462964793341422e-01  9.9377164107690796e-01  9.0134593534292062e-01  5.0564017111468063e-01  5.9685971075107525e-01  5.0402519984913985e-01  5.0187985649729672e-01  5.0084519573189601e-01  5.0035915898701533e-01  6.1743511893975322e-01  5.2037402719246018e-01  5.1083853831677994e-01  5.0549216767407634e-01  5.0265664203611293e-01  5.0124416490616230e-01  5.1133652691853304e-01  5.5981838219507130e-01  5.7431193724158902e-01  5.0800850075011661e-01  5.0035700296446683e-01  9.4681732193201329e-01  5.0123847322517878e-01  5.0084043657535215e-01  5.0264541786639205e-01  5.0187140731497304e-01  5.1547831068078853e-01  5.2034269553970292e-01  5.0395665141559831e-01  8.6811465173540137e-01  5.9678204078714703e-01  5.0546477865426653e-01  8.3279126342361409e-01  5.1077144384160789e-01  6.1742044847822342e-01  9.8065510866162420e-01  8.0976465702207534e-01  5.5978171418773059e-01  5.7428874687689013e-01  7.7789244864208762e-01  9.3533308751294786e-01  5.3815976445003155e-01  5.2977524401507969e-01  7.1162023712573730e-01  7