<?xml version="1.0"?>
<VTKFile type="UnstructuredGrid"  version="0.1"  >
<UnstructuredGrid>
<Piece  NumberOfPoints="4882" NumberOfCells="9241">
<Points>
<DataArray  type="Float64"  NumberOfComponents="3"  format="ascii">6 0.1 0  8 0.1 0  8 0.22 0  7.1 0.22 0  7 0.22 0  6 0.22 0  6.01 0.1 0  6.02 0.1 0  6.03 0.1 0  6.04 0.1 0  6.05 0.1 0  6.06 0.1 0  6.07 0.1 0  6.08 0.1 0  6.09 0.1 0  6.1 0.1 0  6.109999999999999 0.1 0  6.12 0.1 0  6.13 0.1 0  6.14 0.1 0  6.149999999999999 0.1 0  6.16 0.1 0  6.17 0.1 0  6.18 0.1 0  6.19 0.1 0  6.199999999999999 0.1 0  6.21 0.1 0  6.22 0.1 0  6.23 0.1 0  6.239999999999999 0.1 0  6.25 0.1 0  6.26 0.1 0  6.27 0.1 0  6.279999999999999 0.1 0  6.289999999999999 0.1 0  6.3 0.1 0  6.31 0.1 0  6.319999999999999 0.1 0  6.329999999999999 0.1 0  6.34 0.1 0  6.35 0.1 0  6.359999999999999 0.1 0  6.369999999999999 0.1 0  6.379999999999999 0.1 0  6.389999999999999 0.1 0  6.399999999999999 0.1 0  6.409999999999999 0.1 0  6.419999999999999 0.1 0  6.429999999999999 0.1 0  6.44 0.1 0  6.449999999999999 0.1 0  6.459999999999999 0.1 0  6.469999999999999 0.1 0  6.479999999999999 0.1 0  6.489999999999999 0.1 0  6.499999999999999 0.1 0  6.509999999999999 0.1 0  6.519999999999999 0.1 0  6.529999999999998 0.1 0  6.539999999999999 0.1 0  6.549999999999999 0.1 0  6.559999999999999 0.1 0  6.569999999999999 0.1 0  6.579999999999998 0.1 0  6.589999999999998 0.1 0  6.599999999999999 0.1 0  6.609999999999999 0.1 0  6.619999999999998 0.1 0  6.629999999999998 0.1 0  6.639999999999999 0.1 0  6.649999999999999 0.1 0  6.659999999999998 0.1 0  6.669999999999998 0.1 0  6.679999999999999 0.1 0  6.689999999999999 0.1 0  6.699999999999998 0.1 0  6.709999999999998 0.1 0  6.719999999999999 0.1 0  6.729999999999999 0.1 0  6.739999999999998 0.1 0  6.749999999999998 0.1 0  6.759999999999998 0.1 0  6.769999999999999 0.1 0  6.779999999999998 0.1 0  6.789999999999998 0.1 0  6.799999999999999 0.1 0  6.809999999999999 0.1 0  6.819999999999999 0.1 0  6.829999999999998 0.1 0  6.839999999999999 0.1 0  6.849999999999999 0.1 0  6.859999999999999 0.1 0  6.869999999999998 0.1 0  6.879999999999999 0.1 0  6.889999999999999 0.1 0  6.899999999999999 0.1 0  6.909999999999998 0.1 0  6.919999999999998 0.1 0  6.929999999999999 0.1 0  6.939999999999999 0.1 0  6.949999999999998 0.1 0  6.959999999999999 0.1 0  6.969999999999999 0.1 0  6.979999999999999 0.1 0  6.989999999999998 0.1 0  6.999999999999999 0.1 0  7.009999999999999 0.1 0  7.019999999999999 0.1 0  7.029999999999999 0.1 0  7.039999999999999 0.1 0  7.049999999999999 0.1 0  7.059999999999999 0.1 0  7.069999999999999 0.1 0  7.079999999999998 0.1 0  7.089999999999999 0.1 0  7.099999999999999 0.1 0  7.109999999999999 0.1 0  7.119999999999999 0.1 0  7.129999999999999 0.1 0  7.139999999999999 0.1 0  7.149999999999999 0.1 0  7.159999999999999 0.1 0  7.169999999999999 0.1 0  7.179999999999999 0.1 0  7.19 0.1 0  7.199999999999999 0.1 0  7.209999999999999 0.1 0  7.219999999999999 0.1 0  7.229999999999999 0.1 0  7.239999999999998 0.1 0  7.249999999999999 0.1 0  7.259999999999999 0.1 0  7.27 0.1 0  7.279999999999999 0.1 0  7.289999999999999 0.1 0  7.299999999999999 0.1 0  7.309999999999999 0.1 0  7.319999999999999 0.1 0  7.329999999999999 0.1 0  7.339999999999999 0.1 0  7.35 0.1 0  7.359999999999999 0.1 0  7.369999999999999 0.1 0  7.379999999999999 0.1 0  7.389999999999999 0.1 0  7.399999999999999 0.1 0  7.409999999999999 0.1 0  7.419999999999999 0.1 0  7.43 0.1 0  7.44 0.1 0  7.449999999999999 0.1 0  7.459999999999999 0.1 0  7.469999999999999 0.1 0  7.48 0.1 0  7.489999999999999 0.1 0  7.499999999999999 0.1 0  7.51 0.1 0  7.52 0.1 0  7.529999999999999 0.1 0  7.539999999999999 0.1 0  7.549999999999999 0.1 0  7.56 0.1 0  7.569999999999999 0.1 0  7.579999999999999 0.1 0  7.59 0.1 0  7.6 0.1 0  7.609999999999999 0.1 0  7.619999999999999 0.1 0  7.629999999999999 0.1 0  7.64 0.1 0  7.649999999999999 0.1 0  7.66 0.1 0  7.67 0.1 0  7.68 0.1 0  7.69 0.1 0  7.699999999999999 0.1 0  7.709999999999999 0.1 0  7.72 0.1 0  7.73 0.1 0  7.739999999999999 0.1 0  7.75 0.1 0  7.76 0.1 0  7.77 0.1 0  7.779999999999999 0.1 0  7.789999999999999 0.1 0  7.8 0.1 0  7.81 0.1 0  7.82 0.1 0  7.83 0.1 0  7.84 0.1 0  7.85 0.1 0  7.859999999999999 0.1 0  7.869999999999999 0.1 0  7.88 0.1 0  7.89 0.1 0  7.899999999999999 0.1 0  7.91 0.1 0  7.92 0.1 0  7.93 0.1 0  7.94 0.1 0  7.949999999999999 0.1 0  7.96 0.1 0  7.97 0.1 0  7.98 0.1 0  7.99 0.1 0  8 0.1099999999999788 0  8 0.1199999999999512 0  8 0.1299999999999173 0  8 0.1399999999998952 0  8 0.1499999999998641 0  8 0.1599999999998293 0  8 0.1699999999998686 0  8 0.1799999999998971 0  8 0.1899999999999147 0  8 0.1999999999999323 0  8 0.2099999999999607 0  7.990085836355354 0.22 0  7.980171672710533 0.22 0  7.970257509065752 0.22 0  7.960343345421177 0.22 0  7.950429181776419 0.22 0  7.940515018131598 0.22 0  7.930600854486929 0.22 0  7.920686690842305 0.22 0  7.910772527197484 0.22 0  7.900858363552682 0.22 0  7.890944199908105 0.22 0  7.88103003626337 0.22 0  7.87111587261855 0.22 0  7.861201708973858 0.22 0  7.851287545329257 0.22 0  7.841373381684436 0.22 0  7.831459218039615 0.22 0  7.821545054395035 0.22 0  7.811630890750322 0.22 0  7.801716727105502 0.22 0  7.791802563460787 0.22 0  7.781888399816208 0.22 0  7.771974236171387 0.22 0  7.762060072526567 0.22 0  7.752145908881964 0.22 0  7.742231745237274 0.22 0  7.732317581592453 0.22 0  7.722403417947716 0.22 0  7.712489254303141 0.22 0  7.702575090658339 0.22 0  7.692660927013642 0.22 0  7.682746763369046 0.22 0  7.672832599724225 0.22 0  7.662918436079405 0.22 0  7.653004272434819 0.22 0  7.643090108790111 0.22 0  7.633175945145291 0.22 0  7.623261781500571 0.22 0  7.613347617855996 0.22 0  7.603433454211177 0.22 0  7.593519290566356 0.22 0  7.583605126921748 0.22 0  7.573690963277063 0.22 0  7.563776799632242 0.22 0  7.5538626359875 0.22 0  7.543948472342924 0.22 0  7.534034308698129 0.22 0  7.524120145053308 0.22 0  7.514205981408487 0.22 0  7.504291817763667 0.22 0  7.494377654118846 0.22 0  7.484463490474027 0.22 0  7.474549326829206 0.22 0  7.464635163184385 0.22 0  7.454720999539565 0.22 0  7.444806835894744 0.22 0  7.434892672249925 0.22 0  7.424978508605104 0.22 0  7.415064344960284 0.22 0  7.405150181315463 0.22 0  7.395236017670642 0.22 0  7.385321854025823 0.22 0  7.375407690381002 0.22 0  7.365493526736182 0.22 0  7.355579363091362 0.22 0  7.345665199446541 0.22 0  7.335751035801721 0.22 0  7.3258368721569 0.22 0  7.315922708512131 0.22 0  7.306008544867555 0.22 0  7.296094381222787 0.22 0  7.286180217577966 0.22 0  7.276266053933307 0.22 0  7.266351890288672 0.22 0  7.256437726643852 0.22 0  7.24652356299906 0.22 0  7.236609399354484 0.22 0  7.226695235709738 0.22 0  7.216781072064918 0.22 0  7.206866908420237 0.22 0  7.196952744775624 0.22 0  7.187038581130803 0.22 0  7.177124417485989 0.22 0  7.167210253841413 0.22 0  7.15729609019669 0.22 0  7.147381926551869 0.22 0  7.137467762907166 0.22 0  7.127609887754289 0.22 0  7.119267423713023 0.22 0  7.112902479254871 0.22 0  7.108462887920409 0.22 0  7.105141639945627 0.22 0  7.101184123304556 0.22 0  7.09900000000009 0.22 0  7.097999999999909 0.22 0  7.09699999999975 0.22 0  7.095999999999861 0.22 0  7.09499999999993 0.22 0  7.093999999999729 0.22 0  7.092999999999591 0.22 0  7.091999999999723 0.22 0  7.090999999999771 0.22 0  7.089999999999549 0.22 0  7.088999999999444 0.22 0  7.087999999999584 0.22 0  7.086999999999611 0.22 0  7.085999999999368 0.22 0  7.084999999999305 0.22 0  7.083999999999445 0.22 0  7.082999999999451 0.22 0  7.081999999999375 0.22 0  7.080999999999514 0.22 0  7.079999999999653 0.22 0  7.078999999999639 0.22 0  7.077999999999584 0.22 0  7.076999999999722 0.22 0  7.075999999999861 0.22 0  7.074999999999826 0.22 0  7.073999999999792 0.22 0  7.07299999999993 0.22 0  7.072000000000069 0.22 0  7.071000000000014 0.22 0  7.069999999999999 0.22 0  7.069000000000139 0.22 0  7.068000000000278 0.22 0  7.067000000000201 0.22 0  7.066000000000208 0.22 0  7.065000000000347 0.22 0  7.064000000000472 0.22 0  7.063000000000389 0.22 0  7.062000000000416 0.22 0  7.061000000000555 0.22 0  7.060000000000451 0.22 0  7.059000000000228 0.22 0  7.058000000000278 0.22 0  7.057000000000409 0.22 0  7.05600000000027 0.22 0  7.055000000000069 0.22 0  7.054000000000139 0.22 0  7.05300000000025 0.22 0  7.05200000000009 0.22 0  7.05099999999991 0.22 0  7.05 0.22 0  7.04900000000009 0.22 0  7.047999999999909 0.22 0  7.04699999999975 0.22 0  7.045999999999861 0.22 0  7.044999999999931 0.22 0  7.04399999999973 0.22 0  7.042999999999591 0.22 0  7.041999999999723 0.22 0  7.040999999999771 0.22 0  7.039999999999549 0.22 0  7.038999999999445 0.22 0  7.037999999999584 0.22 0  7.036999999999612 0.22 0  7.035999999999528 0.22 0  7.034999999999653 0.22 0  7.033999999999792 0.22 0  7.032999999999799 0.22 0  7.031999999999723 0.22 0  7.030999999999861 0.22 0  7.03 0.22 0  7.028999999999987 0.22 0  7.02799999999993 0.22 0  7.027000000000069 0.22 0  7.026000000000209 0.22 0  7.025000000000174 0.22 0  7.024000000000139 0.22 0  7.023000000000278 0.22 0  7.022000000000416 0.22 0  7.021000000000361 0.22 0  7.020000000000347 0.22 0  7.019000000000486 0.22 0  7.018000000000624 0.22 0  7.017000000000548 0.22 0  7.016000000000555 0.22 0  7.015000000000694 0.22 0  7.014000000000632 0.22 0  7.013000000000389 0.22 0  7.012000000000416 0.22 0  7.011000000000555 0.22 0  7.010000000000451 0.22 0  7.009000000000229 0.22 0  7.008000000000278 0.22 0  7.007000000000409 0.22 0  7.00600000000027 0.22 0  7.005000000000069 0.22 0  7.004000000000139 0.22 0  7.00300000000025 0.22 0  7.00200000000009 0.22 0  7.00099999999991 0.22 0  6.994809698470582 0.22 0  6.991569006236496 0.22 0  6.987074728859082 0.22 0  6.980583540116057 0.22 0  6.972279556173985 0.22 0  6.962550869064059 0.22 0  6.952627664228347 0.22 0  6.942704459392635 0.22 0  6.932781254556923 0.22 0  6.922858049721211 0.22 0  6.912934844885499 0.22 0  6.903011640049788 0.22 0  6.893088435214075 0.22 0  6.883165230378363 0.22 0  6.873242025542651 0.22 0
[...]
<PointData  Scalars="concentration"> 
<DataArray  type="Float64"  Name="concentration"  format="ascii">5.0000000000000000e-01  5.0456235765578883e-01  5.0456264408561380e-01  1.0000000000000000e+00  1.0000000000000000e+00  5.0000000000000000e-01  5.0017093359423015e-01  5.0034314706004734e-01  5.0051780993100159e-01  5.0069608857873149e-01  5.0087932013029413e-01  5.0106857099619984e-01  5.0126534884832019e-01  5.0147069443365522e-01  5.0168637637850055e-01  5.0191311996515242e-01  5.0215241711715741e-01  5.0240676482220636e-01  5.0267697234973663e-01  5.0296503198218179e-01  5.0326940856465840e-01  5.0359658547925723e-01  5.0394622862006455e-01  5.0431962350194226e-01  5.0471929035486807e-01  5.0514687662482927e-01  5.0560728367394769e-01  5.0609538017133338e-01  5.0662082688425336e-01  5.0718346681909054e-01  5.0778484893237508e-01  5.0842816079573017e-01  5.0911598488080068e-01  5.0985494962127342e-01  5.1063649113780107e-01  5.1147579916468811e-01  5.1237138605542820e-01  5.1332545623757997e-01  5.1434151886239410e-01  5.1542402070108517e-01  5.1658132626612552e-01  5.1779963024394993e-01  5.1910245542213895e-01  5.2048585762725064e-01  5.2195319883993763e-01  5.2350772610090490e-01  5.2515364671366327e-01  5.2689936776967550e-01  5.2874347804033373e-01  5.3069249987794165e-01  5.3275226645516549e-01  5.3492520944716060e-01  5.3721693475628929e-01  5.3963083664016542e-01  5.4217284581015079e-01  5.4484447168899119e-01  5.4765420348317018e-01  5.5060548841163581e-01  5.5370224403987589e-01  5.5695021463545236e-01  5.6035043657190864e-01  5.6390793189082777e-01  5.6763763499819997e-01  5.7152668169771248e-01  5.7558924793983213e-01  5.7982585363671546e-01  5.8424629222885482e-01  5.8884976451167881e-01  5.9363995661643620e-01  5.9862059824300695e-01  6.0379473657427540e-01  6.0916682957289170e-01  6.1474140349829121e-01  6.2051502131927982e-01  6.2649366640166282e-01  6.3267451156271004e-01  6.3906688038875792e-01  6.4566914391417995e-01  6.5247932691365484e-01  6.5950264796142499e-01  6.6673144425227082e-01  6.7417035297418493e-01  6.8181789098965551e-01  6.8967067486489264e-01  6.9772405099715262e-01  7.0597688106017098e-01  7.1442088498039058e-01  7.2305275188869278e-01  7.3186345953613641e-01  7.4084369462856980e-01  7.4997975714415288e-01  7.5925647026685461e-01  7.6865666720159165e-01  7.7815539250370758e-01  7.8772631897643497e-01  7.9732749186336527e-01  8.0691520174848497e-01  8.1646082468151360e-01  8.2588763882623673e-01  8.3510827919607722e-01  8.4405448791889048e-01  8.5261083464045218e-01  8.6073407308366068e-01  8.6819604434906172e-01  8.7500157569085812e-01  8.8102625624054398e-01  8.8606911729302229e-01  8.9008707136910181e-01  8.9303557434630754e-01  8.9479749997381441e-01  8.9540021463827490e-01  8.9479279787552568e-01  8.9300849958232498e-01  8.9009476741621407e-01  8.8606926127793406e-01  8.8103286747040543e-01  8.7502599584191976e-01  8.6828246719453750e-01  8.6080930607986905e-01  8.5273657517859602e-01  8.4417950053398094e-01  8.3524012451519158e-01  8.2604606811303272e-01  8.1665597246173061e-01  8.0715034360310267e-01  7.9758985002761751e-01  7.8800840707088327e-01  7.7846672281272500e-01  7.6899544551259758e-01  7.5961694217913511e-01  7.5036403300067445e-01  7.4124865612197088e-01  7.3228852981139436e-01  7.2349365330852600e-01  7.1487616877607307e-01  7.0644178235910804e-01  6.9819915932681320e-01  6.9015406547606106e-01  6.8231057886411561e-01  6.7466668201738145e-01  6.6723134662700845e-01  6.6000293909724117e-01  6.5298266813216843e-01  6.4617497518193523e-01  6.3957171260628420e-01  6.3317685495139020e-01  6.2698547021176332e-01  6.2100225936217923e-01  6.1522350840303996e-01  6.0964551376065512e-01  6.0426732425596685e-01  5.9908466913367564e-01  5.9409616240672181e-01  5.8929779611124367e-01  5.8468511490675545e-01  5.8025585078280317e-01  5.7600830076881837e-01  5.7193670886397907e-01  5.6803660295340086e-01  5.6430299332799350e-01  5.6073381355065599e-01  5.5732314131323912e-01  5.5406825144188132e-01  5.5096490334267190e-01  5.4800381266292608e-01  5.4518917293020996e-01  5.4251030010883106e-01  5.3996229923697336e-01  5.3754177713881812e-01  5.3524495378552506e-01  5.3308070386656625e-01  5.3101145651368509e-01  5.2906161575322519e-01  5.2721894895534460e-01  5.2547782882848226e-01  5.2383340444375837e-01  5.2228293932034453e-01  5.2083124767245359e-01  5.1945259326613968e-01  5.1816337086519704e-01  5.1695314395522307e-01  5.1581879679846088e-01  5.1475550586760543e-01  5.1376161425762334e-01  5.1283918428334474e-01  5.1197055844799866e-01  5.1116713190918950e-01  5.1042098459713581e-01  5.0972979632103499e-01  5.0909005799899776e-01  5.0850055015512741e-01  5.0796424560080999e-01  5.0746756392379488e-01  5.0701615933867594e-01  5.0660719968337486e-01  5.0624127371977923e-01  5.0591405870313899e-01  5.0562364119032954e-01  5.0537116110341773e-01  5.0515395366027938e-01  5.0497223862363094e-01  5.0482408155339564e-01  5.0470982464920200e-01  5.0462819418844607e-01  5.0457909110045984e-01  5.0456429899739708e-01  5.0456356221826948e-01  5.0456156957365261e-01  5.0456321096737011e-01  5.0456431375032196e-01  5.0456414469347866e-01  5.0456087772532465e-01  5.0456386264806052e-01  5.0456290018356686e-01  5.0456359217599356e-01  5.0456447720355890e-01  5.0457910307397902e-01  5.0462705600347679e-01  5.0470721878538605e-01  5.0481968869673266e-01  5.0496462661294772e-01  5.0514271951656387e-01  5.0535726751361176e-01  5.0560554891056242e-01  5.0588992284314593e-01  5.0621241740503697e-01  5.0657215344752970e-01  5.0697261763478219e-01  5.0741473639122803e-01  5.0789966455273772e-01  5.0842968455111359e-01  5.0900700167337609e-01  5.0963352613664392e-01  5.1031130681595049e-01  5.1104167988355109e-01  5.1182945156199666e-01  5.1267488735790079e-01  5.1358262836584767e-01  5.1455476108974274e-01  5.1559440210589891e-01  5.1670443596218030e-01  5.1788676220369767e-01  5.1914790502903252e-01  5.2048800993548683e-01  5.2191333599927836e-01  5.2342645261526666e-01  5.2503132143702691e-01  5.2673153052846611e-01  5.2852923981475464e-01  5.3043274845452248e-01  5.3244172379278865e-01  5.3456393073002251e-01  5.3680212428254515e-01  5.3916079726375843e-01  5.4164389979636285e-01  5.4425345910652778e-01  5.4699937900658291e-01  5.4988031233009216e-01  5.5290517569421249e-01  5.5607637363979212e-01  5.5939801936914479e-01  5.6287328915253221e-01  5.6650984300291685e-01  5.7031185803590345e-01  5.7427843543079882e-01  5.7841644346844256e-01  5.8272853466144614e-01  5.8721956318504664e-01  5.9189412253746065e-01  5.9675636701075119e-01  6.0180586785707391e-01  6.0704440920128555e-01  6.1248084577199302e-01  6.1811734002559082e-01  6.2395224660329018e-01  6.2998895625692652e-01  6.3622791905879128e-01  6.4267418743786087e-01  6.4933050960359362e-01  6.5619843409843981e-01  6.6327151054744504e-01  6.7055509857404416e-01  6.7805068680334302e-01  6.8575987655422110e-01  6.9368137887388637e-01  7.0181493194708378e-01  7.1016368964263998e-01  7.1872812612734249e-01  7.2751012949597704e-01  7.3651517591910076e-01  7.4574951293767755e-01  7.5521839630924636e-01  7.6490361763052361e-01  7.7485552809892355e-01  7.8508687885656103e-01  7.9560282009988126e-01  8.0644765985765643e-01  8.1769877070655150e-01  8.2936752945251146e-01  8.4156650046268999e-01  8.5449681983180870e-01  8.6829287824897450e-01  8.8348528156265971e-01  9.0045259322020932e-01  9.1710662020022371e-01  9.3241060307748469e-01  9.4566798020791576e-01  9.5790762852407074e-01  9.8112490924847684e-01  1.0000000000000000e+00  1.0000000000000000e+00  1.0000000000000000e+00  1.0000000000000000e+00  1.0000000000000000e+00  1.0000000000000000e+00  1.0000000000000000e+00  1.0000000000000000e+00  1.0000000000000000e+00  1.0000000000000000e+00  9.9999999999999989e-01  1.0000000000000000e+00  1.0000000000000000e+00  1.0000000000000000e+00  1.0000000000000000e+00  1.0000000000000000e+00  1.0000000000000000e+00  1.0000000000000000e+00  1.0000000000000000e+00  9.9999999999999989e-01  1.0000000000000000e+00  1.0000000000000000e+00  1.0000000000000000e+00  1.0000000000000000e+00  1.0000000000000000e+00  1.0000000000000000e+00  1.0000000000000000e+00  1.0000000000000000e+00  1.0000000000000000e+00  1.0000000000000000e+00  1.0000000000000000e+00  1.0000000000000000e+00  1.0000000000000000e+00  1.0000000000000000e+00  1.0000000000000000e+00  1.0000000000000000e+00  1.0000000000000000e+00  1.0000000000000000e+00  1.0000000000000000e+00  1.0000000000000000e+00  1.0000000000000000e+00  1.0000000000000000e+00  1.0000000000000000e+00  1.0000000000000000e+00  1.0000000000000000e+00  1.0000000000000000e+00  1.0000000000000000e+00  1.0000000000000000e+00  1.0000000000000000e+00  1.0000000000000000e+00  1.0000000000000000e+00  1.0000000000000000e+00  1.0000000000000000e+00  1.0000000000000000e+00  1.0000000000000000e+00  1.0000000000000000e+00  1.0000000000000000e+00  1.0000000000000000e+00  1.0000000000000000e+00  1.0000000000000000e+00  1.0000000000000000e+00  1.0000000000000000e+00  1.0000000000000000e+00  9.9999999999999989e-01  1.0000000000000000e+00  1.0000000000000000e+00  1.0000000000000000e+00  1.0000000000000000e+00  1.0000000000000000e+00  1.0000000000000000e+00  9.9999999999999989e-01  1.0000000000000000e+00  9.9999999999999989e-01  1.0000000000000000e+00  1.0000000000000000e+00  1.0000000000000000e+00  9.9999999999999989e-01  1.0000000000000000e+00  1.0000000000000000e+00  1.0000000000000000e+00  1.0000000000000000e+00  1.0000000000000000e+00  1.0000000000000000e+00  1.0000000000000000e+00  1.0000000000000000e+00  1.0000000000000000e+00  1.0000000000000000e+00  1.0000000000000000e+00  1.0000000000000000e+00  1.0000000000000000e+00  1.0000000000000000e+00  1.0000000000000000e+00  1.0000000000000000e+00  1.0000000000000000e+00  1.0000000000000000e+00  1.0000000000000000e+00  1.0000000000000000e+00  1.0000000000000000e+00  1.0000000000000000e+00  9.5826041747798563e-01  9.4680097652757911e-01  9.3326653662108616e-01  9.1736173928242826e-01  9.0064672620660835e-01  8.8391067138101809e-01  8.6858162945630757e-01  8.5458761695647867e-01  8.4158039258196848e-01  8.2929353789021532e-01  8.1752718744930375e-01  8.0624490653561764e-01  7.9534547975523706e-01  7.8476777651277085e-01  7.7450640839825424e-01  7.6450466960189267e-01  7.5477248222181192e-01  7.4527637969217053e-01  7.3601994062675036e-01  7.2700441637590885e-01  7.1819003361910982e-01  7.0959988159860077e-01  7.0123210160441496e-01  6.9308396077739731e-01  6.8515112858538563e-01  6.7743324135427041e-01  6.6993025530763928e-01  6.6263903861409112e-01  6.5556027724420407e-01  6.4869457228215610e-01  6.4203973692899419e-01  6.3559367944017187e-01  6.2935041138591208e-01  6.2331557357395218e-01  6.1748663800453896e-01  6.1186023738291317e-01  6.0643045187395161e-01  6.0119617226131139e-01  5.9615329111318205e-01  5.9130253657674847e-01  5.8664082762724967e-01  5.8215919263568161e-01  5.7785513988235071e-01  5.7372812009982788e-01  5.6977357341138468e-01  5.6598622103822838e-01  5.6236224049355132e-01  5.5889580776100123e-01  5.5558479928936000e-01  5.5242209261101349e-01  5.4940994356925110e-01  5.4653949653590828e-01  5.4380299341462568e-01  5.4120100738440124e-01  5.3872560164893291e-01  5.3637557887174359e-01  5.3414486901480895e-01  5.3202918226594142e-01  5.3002380955473416e-01  5.2812237037873322e-01  5.2632430327624635e-01  5.2463147758837092e-01  5.2301760976652423e-01  5.2150394113168730e-01  5.2007395892447839e-01  5.1872433254607453e-01  5.1745336462079572e-01  5.1626390683261247e-01  5.1513431656586650e-01  5.1407767443047103e-01  5.1308577264144839e-01  5.1215330838429762e-01  5.1127835269331012e-01  5.1045810643833600e-01  5.0968950240500122e-01  5.0897035510265332e-01  5.0829634602667606e-01  5.0766671693936560e-01  5.0707712150622586e-01  5.0652585183387622e-01  5.0601068365374413e-01  5.0552925898047152e-01  5.0507981313640171e-01  5.0465928021402373e-01  5.0426681899284098e-01  5.0389936592823314e-01  5.0355555473947844e-01  5.0323369449358979e-01  5.0293212219809236e-01  5.0264910704310384e-01  5.0238286110341224e-01  5.0213208891511363e-01  5.0189550020148965e-01  5.0167099511027624e-01  5.0145789589873446e-01  5.0125457021446840e-01  5.0105946586053940e-01  5.0087205741436236e-01  5.0069054962790327e-01  5.0051372737159749e-01  5.0034047425325967e-01  5.0016962675912935e-01  5.0000000000000000e-01  5.0000000000000000e-01  5.0000000000000000e-01  5.0000000000000000e-01  5.0000000000000000e-01  5.0000000000000000e-01  5.0000000000000000e-01  5.0000000000000000e-01  4.9999999999999994e-01  5.0000000000000000e-01  5.0000000000000000e-01  9.1776146958680538e-01  9.0419347693891439e-01  9.1902712618978977e-01  9.3991066588028560e-01  9.5212372620993513e-01  9.3419123840930629e-01  9.5392225491032667e-01  9.6752665598828447e-01  9.6568905220041035e-01  9.6402573771633726e-01  9.7401155320915112e-01  9.4888239452899292e-01  9.7497607441175249e-01  9.4983103232325716e-01  9.7945247174002192e-01  9.7889472493530116e-01  9.8305863536644222e-01  8.8568533263653293e-01  9.7617818538615009e-01  8.4697665336529360e-01  9.8483438563271841e-01  8.1638078725611973e-01  9.7215848421939433e-01  9.7105813647841976e-01  9.1161367742359389e-01  7.8600939874220654e-01  5.0524705931128999e-01  5.0771870302092537e-01  5.0115608249130938e-01  5.1236905429678969e-01  5.0283488157798772e-01  5.2001545651160286e-01  5.3173346129369281e-01  5.0537542315160588e-01  7.5125489213797281e-01  5.4888080430664699e-01  6.8838056127397784e-01  5.7321561986069358e-01  6.3836233797300390e-01  5.0943558054249138e-01  5.1582213295242885e-01  5.2520923715522638e-01  7.2317219128384380e-01  5.3973863856511795e-01  6.6474540555744044e-01  5.6142699287116593e-01  6.1941701922837211e-01  5.9925807388757413e-01  9.8506279568285993e-01  5.8434945690346185e-01  9.8277334697822105e-01  9.8737609580696217e-01  9.8779965739253461e-01  8.6602012807183015e-01  8.8932483008562291e-01  9.8719738875735741e-01  9.8790629428808163e-01  9.7025986770112482e-01  9.4881047869884794e-01  9.8918836296096480e-01  9.2235866635552310e-01  9.4671756384395878e-01  9.8872549939528331e-01  9.8921879367179899e-01  9.6477338652377997e-01  8.9303950344336902e-01  9.0099022038216270e-01  9.9114968406326653e-01  9.2542081842792057e-01  8.9487222479482598e-01  9.6906165201712580e-01  9.8946473349304165e-01  9.8658143105086804e-01  9.9116064887528887e-01  6.4164727030966529e-01  6.6282185484290046e-01  5.4946098700785884e-01  5.0619484593863306e-01  6.9134993027209102e-01  5.0188438854648820e-01  5.0979135129047937e-01  5.5945626996112774e-01  5.0398527414743510e-01  5.1585164484773716e-01  7.1665501689289746e-01  9.3137356467268262e-01  5.0721295372693376e-01  5.2541334014474572e-01  5.3250106845843193e-01  5.3971996001522538e-01  5.1236052445429725e-01  7.1890618392847006e-01  5.6019439987376474e-01  6.6162213906686362e-01  5.2009731873660536e-01  6.9331531002081515e-01  5.4928551271620529e-01  6.4054857911484253e-01  5.3919169345725315e-01  5.3154096852360477e-01  5.2510777977408407e-01  5.2008860484682728e-01  5.1564656724398805e-01  5.1221959480964707e-01  5.0969433380453577e-01  5.0710298409515164e-01  5.0629209328916580e-01  6.0131629939456910e-01  5.0393327698607726e-01  5.0194709577600904e-01  6.1868703734720176e-01  6.0014189181013755e-01  6.1695874331022760e-01  9.8686213927482969e-01  7.8482425258299160e-01  9.9131191134800656e-01  9.9230488240090264e-01  7.8109449038467182e-01  7.5555668506286522e-01  7.5112194302674862e-01  9.1278604787135664e-01  8.7860469424785548e-01  9.6261960415569314e-01  9.9220111663633592e-01  8.1662013345822804e-01  9.6372116510641848e-01  8.1323876873675116e-01  5.8580109151102844e-01  5.7246416203607586e-01  9.0878585201997941e-01  5.8585393749135661e-01  5.7251388039101136e-01  9.3389319408896221e-01  5.0059621946690314e-01  5.0475635991327772e-01  5.0063149299517240e-01  5.0477762557692285e-01  8.4456397946260819e-01  9.6395782235552341e-01  9.9306700532135916e-01  9.2385203570191066e-01  9.8713468307289221e-01  8.3366828361335132e-01  9.0715768916486716e-01  9.4966768556353420e-01  8.5577725758576528e-01  9.3407397619207866e-01  9.1884370359617806e-01  8.8483163171593526e-01  9.7671475761391813e-01  9.8606221007907557e-01  9.9399040416750195e-01  9.4647288386511241e-01  9.7221057734006255e-01  9.7485477705780987e-01  8.5385559895832686e-01  9.7394165103009256e-01  9.9343433681447979e-01  9.9132096831185712e-01  9.0232657633915236e-01  8.9901905498641099e-01  8.5534276606610338e-01  9.5532295438612203e-01  5.6963784467366341e-01  6.7068240597770479e-01  6.9437404710719453e-01  5.5829962100707853e-01  5.3844867453400569e-01  5.4666822605633336e-01  6.4338840110851436e-01  6.2398740564701694e-01  5.2441721365894822e-01  5.3019468956129767e-01  5.1499131968858292e-01  5.1899328444326198e-01  5.0536270459447796e-01  5.0887755649365640e-01  5.0727195429123551e-01  5.0125980276129045e-01  5.1158159147019089e-01  9.9239733846572453e-01  5.8693054229615793e-01  6.0207874935153072e-01  5.1880290778885219e-01  5.0256344539902287e-01  7.1549521325125109e-01  7.4201151099185825e-01  5.1172386320395491e-01  5.2991305755200913e-01  5.0494663033150122e-01  5.4625629127780295e-01  7.4326077198430085e-01  5.0502062509277112e-01  6.9601481153904821e-01  5.6941491441984649e-01  6.4454467986400543e-01  5.0878378431412996e-01  5.1482072650959898e-01  5.2687362461222431e-01  7.1636968816908564e-01  5.4176852141444143e-01  6.0320925566981443e-01  6.7241741262450727e-01  5.5782896931686921e-01  6.2503216039617815e-01  5.0735386904724711e-01  5.0261105968719200e-01  5.8788317832739256e-01  7.8029583351273279e-01  5.0537354870203388e-01  5.0126828497015463e-01  7.8321274669331564e-01  9.9384411613758150e-01  9.9414746276002908e-01  9.7607253217462853e-01  9.4455943875466730e-01  8.8835641015981415e-01  8.1202822740345226e-01  9.4778604931133525e-01  9.1280146401462536e-01  8.0614067944038292e-01  9.3723437309576674e-01  9.8017119719003998e-01  9.0967675457290242e-01  9.9419971111173355e-01  9.7317464289675981e-01  9.9496796946879873e-01  9.9342517958730270e-01  9.8627646142404357e-01  9.9214842215503729e-01  9.8209186247886171e-01  9.6190675974179352e-01  9.3899625065373671e-01  9.9498441221702649e-01  9.3799226745725739e-01  9.8185191718509202e-01  9.5077544032252259e-01  9.8269491158678979e-01  9.8466248322998973e-01  8.7231676844785211e-01  9.6087613913874870e-01  9.7557372481850768e-01  9.5276400822536933e-01  5.0468417391236242e-01  5.0046897842993554e-01  8.3288775907514301e-01  9.2855885712387409e-01  8.9146933495248126e-01  9.5776183772748313e-01  9.9507557851288542e-01  9.8193819469750188e-01  9.7186680386506685e-01  9.2115897838418992e-01  8.7254937785867659e-01  9.3765709252305396e-01  9.6365241385590161e-01  9.6178921895074221e-01  9.3577391390087694e-01  9.1929035156348982e-01  9.9298788601712917e-01  9.8094035285731529e-01  9.7714928227083708e-01  9.9253489768084879e-01  9.5789759484885684e-01  9.7162918920920649e-01  9.8031696213396879e-01  9.9517786817134923e-01  9.2357342307681800e-01  5.2240100245534105e-01  6.5420804793419773e-01  5.1782785354021954e-01  5.1062242361877352e-01  5.0611547664975354e-01  5.0330030446903973e-01  6.7640587263081431e-01  5.5354947992483838e-01  5.3501840956026003e-01  5.2222691897164919e-01  5.1378256507438913e-01  5.0854984533522030e-01  5.3590525966101110e-01  6.1083556316986554e-01  6.2881217457110949e-01  5.2839328538294328e-01  5.0328574793110226e-01  9.5884033504884048e-01  5.0852647527199135e-01  5.0609177446776354e-01  5.1374544120272181e-01  5.1059048212628788e-01  5.4431397395004433e-01  5.5349530935942970e-01  5.1762240000066440e-01  8.9713914689846619e-01  6.5415258857490555e-01  5.2215428412496945e-01  8.6806559074882872e-01  5.3487336467546098e-01  6.7644170817762428e-01  9.8502347929813006e-01  8.5044044888133186e-01  6.1079746685352021e-01  6.2879863101809286e-01  8.2326910675185516e-01  9.4994429385030232e-01  5.8184514486463312e-01  5.6898399007499201e-01  7.6607390995097602e-01  7