<?xml version="1.0"?>
<VTKFile type="UnstructuredGrid"  version="0.1"  >
<UnstructuredGrid>
<Piece  NumberOfPoints="4882" NumberOfCells="9241">
<Points>
<DataArray  type="Float64"  NumberOfComponents="3"  format="ascii">6 0.1 0  8 0.1 0  8 0.22 0  7.1 0.22 0  7 0.22 0  6 0.22 0  6.01 0.1 0  6.02 0.1 0  6.03 0.1 0  6.04 0.1 0  6.05 0.1 0  6.06 0.1 0  6.07 0.1 0  6.08 0.1 0  6.09 0.1 0  6.1 0.1 0  6.109999999999999 0.1 0  6.12 0.1 0  6.13 0.1 0  6.14 0.1 0  6.149999999999999 0.1 0  6.16 0.1 0  6.17 0.1 0  6.18 0.1 0  6.19 0.1 0  6.199999999999999 0.1 0  6.21 0.1 0  6.22 0.1 0  6.23 0.1 0  6.239999999999999 0.1 0  6.25 0.1 0  6.26 0.1 0  6.27 0.1 0  6.279999999999999 0.1 0  6.289999999999999 0.1 0  6.3 0.1 0  6.31 0.1 0  6.319999999999999 0.1 0  6.329999999999999 0.1 0  6.34 0.1 0  6.35 0.1 0  6.359999999999999 0.1 0  6.369999999999999 0.1 0  6.379999999999999 0.1 0  6.389999999999999 0.1 0  6.399999999999999 0.1 0  6.409999999999999 0.1 0  6.419999999999999 0.1 0  6.429999999999999 0.1 0  6.44 0.1 0  6.449999999999999 0.1 0  6.459999999999999 0.1 0  6.469999999999999 0.1 0  6.479999999999999 0.1 0  6.489999999999999 0.1 0  6.499999999999999 0.1 0  6.509999999999999 0.1 0  6.519999999999999 0.1 0  6.529999999999998 0.1 0  6.539999999999999 0.1 0  6.549999999999999 0.1 0  6.559999999999999 0.1 0  6.569999999999999 0.1 0  6.579999999999998 0.1 0  6.589999999999998 0.1 0  6.599999999999999 0.1 0  6.609999999999999 0.1 0  6.619999999999998 0.1 0  6.629999999999998 0.1 0  6.639999999999999 0.1 0  6.649999999999999 0.1 0  6.659999999999998 0.1 0  6.669999999999998 0.1 0  6.679999999999999 0.1 0  6.689999999999999 0.1 0  6.699999999999998 0.1 0  6.709999999999998 0.1 0  6.719999999999999 0.1 0  6.729999999999999 0.1 0  6.739999999999998 0.1 0  6.749999999999998 0.1 0  6.759999999999998 0.1 0  6.769999999999999 0.1 0  6.779999999999998 0.1 0  6.789999999999998 0.1 0  6.799999999999999 0.1 0  6.809999999999999 0.1 0  6.819999999999999 0.1 0  6.829999999999998 0.1 0  6.839999999999999 0.1 0  6.849999999999999 0.1 0  6.859999999999999 0.1 0  6.869999999999998 0.1 0  6.879999999999999 0.1 0  6.889999999999999 0.1 0  6.899999999999999 0.1 0  6.909999999999998 0.1 0  6.919999999999998 0.1 0  6.929999999999999 0.1 0  6.939999999999999 0.1 0  6.949999999999998 0.1 0  6.959999999999999 0.1 0  6.969999999999999 0.1 0  6.979999999999999 0.1 0  6.989999999999998 0.1 0  6.999999999999999 0.1 0  7.009999999999999 0.1 0  7.019999999999999 0.1 0  7.029999999999999 0.1 0  7.039999999999999 0.1 0  7.049999999999999 0.1 0  7.059999999999999 0.1 0  7.069999999999999 0.1 0  7.079999999999998 0.1 0  7.089999999999999 0.1 0  7.099999999999999 0.1 0  7.109999999999999 0.1 0  7.119999999999999 0.1 0  7.129999999999999 0.1 0  7.139999999999999 0.1 0  7.149999999999999 0.1 0  7.159999999999999 0.1 0  7.169999999999999 0.1 0  7.179999999999999 0.1 0  7.19 0.1 0  7.199999999999999 0.1 0  7.209999999999999 0.1 0  7.219999999999999 0.1 0  7.229999999999999 0.1 0  7.239999999999998 0.1 0  7.249999999999999 0.1 0  7.259999999999999 0.1 0  7.27 0.1 0  7.279999999999999 0.1 0  7.289999999999999 0.1 0  7.299999999999999 0.1 0  7.309999999999999 0.1 0  7.319999999999999 0.1 0  7.329999999999999 0.1 0  7.339999999999999 0.1 0  7.35 0.1 0  7.359999999999999 0.1 0  7.369999999999999 0.1 0  7.379999999999999 0.1 0  7.389999999999999 0.1 0  7.399999999999999 0.1 0  7.409999999999999 0.1 0  7.419999999999999 0.1 0  7.43 0.1 0  7.44 0.1 0  7.449999999999999 0.1 0  7.459999999999999 0.1 0  7.469999999999999 0.1 0  7.48 0.1 0  7.489999999999999 0.1 0  7.499999999999999 0.1 0  7.51 0.1 0  7.52 0.1 0  7.529999999999999 0.1 0  7.539999999999999 0.1 0  7.549999999999999 0.1 0  7.56 0.1 0  7.569999999999999 0.1 0  7.579999999999999 0.1 0  7.59 0.1 0  7.6 0.1 0  7.609999999999999 0.1 0  7.619999999999999 0.1 0  7.629999999999999 0.1 0  7.64 0.1 0  7.649999999999999 0.1 0  7.66 0.1 0  7.67 0.1 0  7.68 0.1 0  7.69 0.1 0  7.699999999999999 0.1 0  7.709999999999999 0.1 0  7.72 0.1 0  7.73 0.1 0  7.739999999999999 0.1 0  7.75 0.1 0  7.76 0.1 0  7.77 0.1 0  7.779999999999999 0.1 0  7.789999999999999 0.1 0  7.8 0.1 0  7.81 0.1 0  7.82 0.1 0  7.83 0.1 0  7.84 0.1 0  7.85 0.1 0  7.859999999999999 0.1 0  7.869999999999999 0.1 0  7.88 0.1 0  7.89 0.1 0  7.899999999999999 0.1 0  7.91 0.1 0  7.92 0.1 0  7.93 0.1 0  7.94 0.1 0  7.949999999999999 0.1 0  7.96 0.1 0  7.97 0.1 0  7.98 0.1 0  7.99 0.1 0  8 0.1099999999999788 0  8 0.1199999999999512 0  8 0.1299999999999173 0  8 0.1399999999998952 0  8 0.1499999999998641 0  8 0.1599999999998293 0  8 0.1699999999998686 0  8 0.1799999999998971 0  8 0.1899999999999147 0  8 0.1999999999999323 0  8 0.2099999999999607 0  7.990085836355354 0.22 0  7.980171672710533 0.22 0  7.970257509065752 0.22 0  7.960343345421177 0.22 0  7.950429181776419 0.22 0  7.940515018131598 0.22 0  7.930600854486929 0.22 0  7.920686690842305 0.22 0  7.910772527197484 0.22 0  7.900858363552682 0.22 0  7.890944199908105 0.22 0  7.88103003626337 0.22 0  7.87111587261855 0.22 0  7.861201708973858 0.22 0  7.851287545329257 0.22 0  7.841373381684436 0.22 0  7.831459218039615 0.22 0  7.821545054395035 0.22 0  7.811630890750322 0.22 0  7.801716727105502 0.22 0  7.791802563460787 0.22 0  7.781888399816208 0.22 0  7.771974236171387 0.22 0  7.762060072526567 0.22 0  7.752145908881964 0.22 0  7.742231745237274 0.22 0  7.732317581592453 0.22 0  7.722403417947716 0.22 0  7.712489254303141 0.22 0  7.702575090658339 0.22 0  7.692660927013642 0.22 0  7.682746763369046 0.22 0  7.672832599724225 0.22 0  7.662918436079405 0.22 0  7.653004272434819 0.22 0  7.643090108790111 0.22 0  7.633175945145291 0.22 0  7.623261781500571 0.22 0  7.613347617855996 0.22 0  7.603433454211177 0.22 0  7.593519290566356 0.22 0  7.583605126921748 0.22 0  7.573690963277063 0.22 0  7.563776799632242 0.22 0  7.5538626359875 0.22 0  7.543948472342924 0.22 0  7.534034308698129 0.22 0  7.524120145053308 0.22 0  7.514205981408487 0.22 0  7.504291817763667 0.22 0  7.494377654118846 0.22 0  7.484463490474027 0.22 0  7.474549326829206 0.22 0  7.464635163184385 0.22 0  7.454720999539565 0.22 0  7.444806835894744 0.22 0  7.434892672249925 0.22 0  7.424978508605104 0.22 0  7.415064344960284 0.22 0  7.405150181315463 0.22 0  7.395236017670642 0.22 0  7.385321854025823 0.22 0  7.375407690381002 0.22 0  7.365493526736182 0.22 0  7.355579363091362 0.22 0  7.345665199446541 0.22 0  7.335751035801721 0.22 0  7.3258368721569 0.22 0  7.315922708512131 0.22 0  7.306008544867555 0.22 0  7.296094381222787 0.22 0  7.286180217577966 0.22 0  7.276266053933307 0.22 0  7.266351890288672 0.22 0  7.256437726643852 0.22 0  7.24652356299906 0.22 0  7.236609399354484 0.22 0  7.226695235709738 0.22 0  7.216781072064918 0.22 0  7.206866908420237 0.22 0  7.196952744775624 0.22 0  7.187038581130803 0.22 0  7.177124417485989 0.22 0  7.167210253841413 0.22 0  7.15729609019669 0.22 0  7.147381926551869 0.22 0  7.137467762907166 0.22 0  7.127609887754289 0.22 0  7.119267423713023 0.22 0  7.112902479254871 0.22 0  7.108462887920409 0.22 0  7.105141639945627 0.22 0  7.101184123304556 0.22 0  7.09900000000009 0.22 0  7.097999999999909 0.22 0  7.09699999999975 0.22 0  7.095999999999861 0.22 0  7.09499999999993 0.22 0  7.093999999999729 0.22 0  7.092999999999591 0.22 0  7.091999999999723 0.22 0  7.090999999999771 0.22 0  7.089999999999549 0.22 0  7.088999999999444 0.22 0  7.087999999999584 0.22 0  7.086999999999611 0.22 0  7.085999999999368 0.22 0  7.084999999999305 0.22 0  7.083999999999445 0.22 0  7.082999999999451 0.22 0  7.081999999999375 0.22 0  7.080999999999514 0.22 0  7.079999999999653 0.22 0  7.078999999999639 0.22 0  7.077999999999584 0.22 0  7.076999999999722 0.22 0  7.075999999999861 0.22 0  7.074999999999826 0.22 0  7.073999999999792 0.22 0  7.07299999999993 0.22 0  7.072000000000069 0.22 0  7.071000000000014 0.22 0  7.069999999999999 0.22 0  7.069000000000139 0.22 0  7.068000000000278 0.22 0  7.067000000000201 0.22 0  7.066000000000208 0.22 0  7.065000000000347 0.22 0  7.064000000000472 0.22 0  7.063000000000389 0.22 0  7.062000000000416 0.22 0  7.061000000000555 0.22 0  7.060000000000451 0.22 0  7.059000000000228 0.22 0  7.058000000000278 0.22 0  7.057000000000409 0.22 0  7.05600000000027 0.22 0  7.055000000000069 0.22 0  7.054000000000139 0.22 0  7.05300000000025 0.22 0  7.05200000000009 0.22 0  7.05099999999991 0.22 0  7.05 0.22 0  7.04900000000009 0.22 0  7.047999999999909 0.22 0  7.04699999999975 0.22 0  7.045999999999861 0.22 0  7.044999999999931 0.22 0  7.04399999999973 0.22 0  7.042999999999591 0.22 0  7.041999999999723 0.22 0  7.040999999999771 0.22 0  7.039999999999549 0.22 0  7.038999999999445 0.22 0  7.037999999999584 0.22 0  7.036999999999612 0.22 0  7.035999999999528 0.22 0  7.034999999999653 0.22 0  7.033999999999792 0.22 0  7.032999999999799 0.22 0  7.031999999999723 0.22 0  7.030999999999861 0.22 0  7.03 0.22 0  7.028999999999987 0.22 0  7.02799999999993 0.22 0  7.027000000000069 0.22 0  7.026000000000209 0.22 0  7.025000000000174 0.22 0  7.024000000000139 0.22 0  7.023000000000278 0.22 0  7.022000000000416 0.22 0  7.021000000000361 0.22 0  7.020000000000347 0.22 0  7.019000000000486 0.22 0  7.018000000000624 0.22 0  7.017000000000548 0.22 0  7.016000000000555 0.22 0  7.015000000000694 0.22 0  7.014000000000632 0.22 0  7.013000000000389 0.22 0  7.012000000000416 0.22 0  7.011000000000555 0.22 0  7.010000000000451 0.22 0  7.009000000000229 0.22 0  7.008000000000278 0.22 0  7.007000000000409 0.22 0  7.00600000000027 0.22 0  7.005000000000069 0.22 0  7.004000000000139 0.22 0  7.00300000000025 0.22 0  7.00200000000009 0.22 0  7.00099999999991 0.22 0  6.994809698470582 0.22 0  6.991569006236496 0.22 0  6.987074728859082 0.22 0  6.980583540116057 0.22 0  6.972279556173985 0.22 0  6.962550869064059 0.22 0  6.952627664228347 0.22 0  6.942704459392635 0.22 0  6.932781254556923 0.22 0  6.922858049721211 0.22 0  6.912934844885499 0.22 0  6.903011640049788 0.22 0  6.893088435214075 0.22 0  6.883165230378363 0.22 0  6.873242025542651 0.22 0
[...]
<PointData  Scalars="concentration"> 
<DataArray  type="Float64"  Name="concentration"  format="ascii">5.0000000000000000e-01  5.3695578329977933e-01  5.3695652753171064e-01  1.0000000000000000e+00  9.9999999999999989e-01  5.0000000000000000e-01  5.0118319017072199e-01  5.0236901690121649e-01  5.0355976439697858e-01  5.0475768463512405e-01  5.0596532147567996e-01  5.0718462732815106e-01  5.0841836847115141e-01  5.0966839456406110e-01  5.1093775883889125e-01  5.1222763095961621e-01  5.1354048785677431e-01  5.1488047037653328e-01  5.1624860822145568e-01  5.1764792134979964e-01  5.1907537282668825e-01  5.2054138794541394e-01  5.2204473003294183e-01  5.2358679368261152e-01  5.2517087514064531e-01  5.2679875887645056e-01  5.2847694526576450e-01  5.3019683723392108e-01  5.3197170348709255e-01  5.3380011937473471e-01  5.3568306969249779e-01  5.3762371594152558e-01  5.3962425048140428e-01  5.4169180556913621e-01  5.4381406303022539e-01  5.4600870328650852e-01  5.4827214998426632e-01  5.5060539081037863e-01  5.5301084839310810e-01  5.5549190176889585e-01  5.5805575874836499e-01  5.6068579335170476e-01  5.6340520438856034e-01  5.6620768670610688e-01  5.6909461895573321e-01  5.7206717536985130e-01  5.7512745757769956e-01  5.7828112220186845e-01  5.8152469747190827e-01  5.8486190644504565e-01  5.8829569328332743e-01  5.9182586790429237e-01  5.9545487066702796e-01  5.9918322574459471e-01  6.0301342360622567e-01  6.0694439027306246e-01  6.1098033515712757e-01  6.1512156560356257e-01  6.1936864961908000e-01  6.2372341612379079e-01  6.2818437572553154e-01  6.3275282578954972e-01  6.3743638643119127e-01  6.4222439820054045e-01  6.4712399215022098e-01  6.5213334258323163e-01  6.5725630028976212e-01  6.6249029537519577e-01  6.6783544546956397e-01  6.7329194896820999e-01  6.7885956666702718e-01  6.8453887391250601e-01  6.9033040948306590e-01  6.9623042665984702e-01  7.0224037949770224e-01  7.0835697466223335e-01  7.1458337456276400e-01  7.2091694090442815e-01  7.2735500411698950e-01  7.3389851657927252e-01  7.4054206962503510e-01  7.4728634262117266e-01  7.5412891892524048e-01  7.6106663831803634e-01  7.6809553666878938e-01  7.7521329082292401e-01  7.8241418897262338e-01  7.8969459702351996e-01  7.9704797798180560e-01  8.0446764120140224e-01  8.1194419619867797e-01  8.1946648314100579e-01  8.2702316175763213e-01  8.3459670424747689e-01  8.4216957673025650e-01  8.4971151351883645e-01  8.5719699924629644e-01  8.6459821999892095e-01  8.7186690786607124e-01  8.7894143434195660e-01  8.8577404967156936e-01  8.9228365476813565e-01  8.9843875968790821e-01  9.0407855409958215e-01  9.0920750182853827e-01  9.1373861130903522e-01  9.1752739666540739e-01  9.2054535254690117e-01  9.2275857440899167e-01  9.2408598390885544e-01  9.2454745470365196e-01  9.2410690283160246e-01  9.2278703622141722e-01  9.2062194245844431e-01  9.1762426343773162e-01  9.1386534439139300e-01  9.0937260220035765e-01  9.0431601367728487e-01  8.9869322848828892e-01  8.9260050435373783e-01  8.8611849932099496e-01  8.7931867319995671e-01  8.7229147748152391e-01  8.6507732351518840e-01  8.5773233070769472e-01  8.5029961467322601e-01  8.4280026638823602e-01  8.3527875346378100e-01  8.2775539290198952e-01  8.2024532082117396e-01  8.1277061918935756e-01  8.0534054961301249e-01  7.9796686940546879e-01  7.9065738416164044e-01  7.8342022657082055e-01  7.7626051492949222e-01  7.6918465136916525e-01  7.6219702052322458e-01  7.5530147824912275e-01  7.4849891492670850e-01  7.4179542189804948e-01  7.3519187863384905e-01  7.2869066902072366e-01  7.2229583958169208e-01  7.1600509187388117e-01  7.0982228344398246e-01  7.0374669243132126e-01  6.9778279945477328e-01  6.9193062317493814e-01  6.8619020752540216e-01  6.8056317560192547e-01  6.7504924421220480e-01  6.6964988251122237e-01  6.6436500483016769e-01  6.5919427606158176e-01  6.5413868823720223e-01  6.4919968510534032e-01  6.4437618176608891e-01  6.3966781544799256e-01  6.3507384697625890e-01  6.3059553593703721e-01  6.2623146269503072e-01  6.2198248890708696e-01  6.1784834094458763e-01  6.1382477319599149e-01  6.0991811344372626e-01  6.0612289518907503e-01  6.0243800437326878e-01  5.9886361647792208e-01  5.9539952549006347e-01  5.9205750361678966e-01  5.8880551787241753e-01  5.8566980125384971e-01  5.8264200279301415e-01  5.7971973172488578e-01  5.7690116372393785e-01  5.7418664100391881e-01  5.7158550093930727e-01  5.6907096168054350e-01  5.6666584233338924e-01  5.6436104528811215e-01  5.6215607180029670e-01  5.6004792369275103e-01  5.5803773483389418e-01  5.5613244382365890e-01  5.5430891953763350e-01  5.5258791434419274e-01  5.5096060188618079e-01  5.4942653792722407e-01  5.4798295475590053e-01  5.4663088635655477e-01  5.4537962895428616e-01  5.4420603815842417e-01  5.4312396202660829e-01  5.4213059323519852e-01  5.4123023974542483e-01  5.4041624998446003e-01  5.3968655167699187e-01  5.3904610511954043e-01  5.3849070362664964e-01  5.3802270453291101e-01  5.3763891187745749e-01  5.3734149542508369e-01  5.3712824889240729e-01  5.3699966130082566e-01  5.3696087172353668e-01  5.3695894013442014e-01  5.3695371617739329e-01  5.3695801932858422e-01  5.3696090742884561e-01  5.3696046340091963e-01  5.3695190138850424e-01  5.3695972394242852e-01  5.3695720054415985e-01  5.3695901458931572e-01  5.3696133253599854e-01  5.3699968492612749e-01  5.3712526774084313e-01  5.3733470040455966e-01  5.3762749659596287e-01  5.3800309070761421e-01  5.3846197627332781e-01  5.3901072040643083e-01  5.3964079381975361e-01  5.4035596446884471e-01  5.4115864449494178e-01  5.4204448842994535e-01  5.4301866578969016e-01  5.4408029321301554e-01  5.4522899621288923e-01  5.4646630567564414e-01  5.4779344672751629e-01  5.4921073975965373e-01  5.5071867693349619e-01  5.5231633496881494e-01  5.5400841216653318e-01  5.5579196598114089e-01  5.5767079901436745e-01  5.5964460552092021e-01  5.6171441565515356e-01  5.6388086212175115e-01  5.6614312252249965e-01  5.6850624808832717e-01  5.7096700746624141e-01  5.7352957594838738e-01  5.7619356696984736e-01  5.7896006873309969e-01  5.8182972609108130e-01  5.8480157519171827e-01  5.8788087976449133e-01  5.9106405821922225e-01  5.9435539781861857e-01  5.9775429179131578e-01  6.0126165657454744e-01  6.0487793156524894e-01  6.0860184837087306e-01  6.1243868710609128e-01  6.1638437149944436e-01  6.2044304030668551e-01  6.2461365831795790e-01  6.2889647210158606e-01  6.3329110025885849e-01  6.3780024767895427e-01  6.4242416217848708e-01  6.4715948656731981e-01  6.5200838144018602e-01  6.5697008286425806e-01  6.6204523317024433e-01  6.6723431086960316e-01  6.7253748128754121e-01  6.7795219530431616e-01  6.8347742562440816e-01  6.8911604993800002e-01  6.9486720251211065e-01  7.0072791426897152e-01  7.0669814433347999e-01  7.1277627852127445e-01  7.1896325769811742e-01  7.2525869605523008e-01  7.3166177250584796e-01  7.3816768208785177e-01  7.4477776695971554e-01  7.5149147181089493e-01  7.5830838387627308e-01  7.6522682450635160e-01  7.7224609676692046e-01  7.7936698954294625e-01  7.8658939679833351e-01  7.9391487196977761e-01  8.0134519834092632e-01  8.0888560502518825e-01  8.1653901044642163e-01  8.2430181772225575e-01  8.3219768624486812e-01  8.4024226723959539e-01  8.4844158176402207e-01  8.5682710957349562e-01  8.6545648829245858e-01  8.7433636496742351e-01  8.8356055330253203e-01  8.9326395426508820e-01  9.0355393763688874e-01  9.1481493148459136e-01  9.2732372302909050e-01  9.3954882227536396e-01  9.5074703910213465e-01  9.6042684534932610e-01  9.6935218737011486e-01  9.8626245050992345e-01  1.0000000000000000e+00  1.0000000000000000e+00  1.0000000000000000e+00  1.0000000000000000e+00  1.0000000000000000e+00  1.0000000000000000e+00  1.0000000000000000e+00  1.0000000000000000e+00  1.0000000000000000e+00  1.0000000000000000e+00  1.0000000000000000e+00  1.0000000000000000e+00  1.0000000000000000e+00  1.0000000000000000e+00  1.0000000000000000e+00  1.0000000000000000e+00  1.0000000000000000e+00  1.0000000000000000e+00  1.0000000000000000e+00  1.0000000000000000e+00  1.0000000000000000e+00  1.0000000000000000e+00  1.0000000000000000e+00  1.0000000000000000e+00  1.0000000000000000e+00  1.0000000000000000e+00  1.0000000000000000e+00  1.0000000000000000e+00  1.0000000000000000e+00  1.0000000000000000e+00  1.0000000000000000e+00  1.0000000000000000e+00  1.0000000000000000e+00  1.0000000000000000e+00  1.0000000000000000e+00  1.0000000000000000e+00  1.0000000000000000e+00  1.0000000000000000e+00  1.0000000000000000e+00  1.0000000000000000e+00  1.0000000000000000e+00  1.0000000000000000e+00  1.0000000000000000e+00  1.0000000000000000e+00  9.9999999999999989e-01  1.0000000000000000e+00  1.0000000000000000e+00  9.9999999999999989e-01  1.0000000000000000e+00  1.0000000000000000e+00  1.0000000000000000e+00  1.0000000000000000e+00  1.0000000000000000e+00  1.0000000000000000e+00  9.9999999999999989e-01  1.0000000000000000e+00  1.0000000000000000e+00  1.0000000000000000e+00  1.0000000000000000e+00  1.0000000000000000e+00  1.0000000000000000e+00  1.0000000000000000e+00  1.0000000000000000e+00  1.0000000000000000e+00  1.0000000000000000e+00  1.0000000000000000e+00  1.0000000000000000e+00  1.0000000000000000e+00  1.0000000000000000e+00  1.0000000000000000e+00  1.0000000000000000e+00  1.0000000000000000e+00  1.0000000000000000e+00  1.0000000000000000e+00  1.0000000000000000e+00  1.0000000000000000e+00  1.0000000000000000e+00  1.0000000000000000e+00  1.0000000000000000e+00  1.0000000000000000e+00  1.0000000000000000e+00  1.0000000000000000e+00  1.0000000000000000e+00  1.0000000000000000e+00  1.0000000000000000e+00  1.0000000000000000e+00  1.0000000000000000e+00  1.0000000000000000e+00  1.0000000000000000e+00  1.0000000000000000e+00  1.0000000000000000e+00  1.0000000000000000e+00  1.0000000000000000e+00  1.0000000000000000e+00  1.0000000000000000e+00  1.0000000000000000e+00  1.0000000000000000e+00  1.0000000000000000e+00  1.0000000000000000e+00  9.6954641479735160e-01  9.6117051263998354e-01  9.5126625285169297e-01  9.3960213384946634e-01  9.2730092690946286e-01  9.1492776286022870e-01  9.0353393823902162e-01  8.9306915262525921e-01  8.8327706079193213e-01  8.7396281472526594e-01  8.6497803883303059e-01  8.5629487503730373e-01  8.4783787467704008e-01  8.3956360425105203e-01  8.3146574497798609e-01  8.2350171209617185e-01  8.1567684324049328e-01  8.0796893696677752e-01  8.0037883478092786e-01  7.9290232671003802e-01  7.8552264423322227e-01  7.7824826690540638e-01  7.7107866388902224e-01  7.6401215790154564e-01  7.5704790201653471e-01  7.5018601374703375e-01  7.4342738567152722e-01  7.3677161195428842e-01  7.3022002370690720e-01  7.2377420341653198e-01  7.1743449321855546e-01  7.1120125614787333e-01  7.0507285055142177e-01  6.9905391790985671e-01  6.9314467310556660e-01  6.8734524988351287e-01  6.8165405093597342e-01  6.7607231522273392e-01  6.7059955166317520e-01  6.6523817721521894e-01  6.5998821879672331e-01  6.5484661285212642e-01  6.4981368469528766e-01  6.4489113685024257e-01  6.4007828225244623e-01  6.3537386198651413e-01  6.3077748841974657e-01  6.2628746447739136e-01  6.2190451456730289e-01  6.1762586639429340e-01  6.1345533083076953e-01  6.0938890218285469e-01  6.0542293299919536e-01  6.0156010193326126e-01  5.9779648735179935e-01  5.9413338663117266e-01  5.9056811714839719e-01  5.8709938945044948e-01  5.8372537015697978e-01  5.8044263984541877e-01  5.7725289632330357e-01  5.7416015733624226e-01  5.7114193586541973e-01  5.6822033057478816e-01  5.6538158747401246e-01  5.6262428112007457e-01  5.5994862042873927e-01  5.5735974489915419e-01  5.5483621971768393e-01  5.5239398203524404e-01  5.5002589075124497e-01  5.4772746147640761e-01  5.4549807102577086e-01  5.4333593444201966e-01  5.4123881514106020e-01  5.3920544932335668e-01  5.3723167581244646e-01  5.3531787060878089e-01  5.3345938620475575e-01  5.3165507679606649e-01  5.2990293470708705e-01  5.2820062873935880e-01  5.2654657048489040e-01  5.2493707253297761e-01  5.2337173025817252e-01  5.2184648451182480e-01  5.2035988346397843e-01  5.1890982715485712e-01  5.1749415242451091e-01  5.1611045375283648e-01  5.1475615273944564e-01  5.1342937154058488e-01  5.1212820001733816e-01  5.1084914739985510e-01  5.0959123705422849e-01  5.0835166376291474e-01  5.0712771444755611e-01  5.0591850855763632e-01  5.0472077365524204e-01  5.0353221614226340e-01  5.0235074301288485e-01  5.0117411417769142e-01  5.0000000000000000e-01  5.0000000000000000e-01  5.0000000000000000e-01  5.0000000000000000e-01  5.0000000000000000e-01  5.0000000000000000e-01  5.0000000000000000e-01  5.0000000000000000e-01  5.0000000000000000e-01  5.0000000000000000e-01  5.0000000000000000e-01  9.4058293972220575e-01  9.3059841522344566e-01  9.4114980713612129e-01  9.5658750541229609e-01  9.6538034143914464e-01  9.5227297528183574e-01  9.6657303545391193e-01  9.7653725369842925e-01  9.7518300478314635e-01  9.7391947573850413e-01  9.8120821579589679e-01  9.6283968251883634e-01  9.8187267785393650e-01  9.6347426261524727e-01  9.8514891627452184e-01  9.8471823921986201e-01  9.8775664200953661e-01  9.1661331708881444e-01  9.8270793751020946e-01  8.8767265829415920e-01  9.8903071539708731e-01  8.6465092614895700e-01  9.7978380743980531e-01  9.7894685167149720e-01  9.3619353816679096e-01  8.4067742787974398e-01  5.3872913623289753e-01  5.4480225062825571e-01  5.0773654531342360e-01  5.5515046936946943e-01  5.1702500586177302e-01  5.7010432374114917e-01  5.8994838550675632e-01  5.2764142630112121e-01  8.1342505780009655e-01  6.1502320786405928e-01  7.6062607038317032e-01  6.4590109344156033e-01  7.1483788667310322e-01  5.4052785934874070e-01  5.5638320541336728e-01  5.7522773006922223e-01  7.8975401498982489e-01  5.9934772818818749e-01  7.3871468412879138e-01  6.2957701307498160e-01  6.9511282944675135e-01  6.7523256183494107e-01  9.8919211715834721e-01  6.5737218055454671e-01  9.8751161925171360e-01  9.9087758226882550e-01  9.9117876299945984e-01  9.0241288913594209e-01  9.1969993557946872e-01  9.9072840398860440e-01  9.9123203127115900e-01  9.7837534513187441e-01  9.6294179820305048e-01  9.9218420658166484e-01  9.4381322299682169e-01  9.6151204284599612e-01  9.9183996266298557e-01  9.9219067160052166e-01  9.7454264010318892e-01  9.2266899718979256e-01  9.2854573103610027e-01  9.9360417511019616e-01  9.4615445732438630e-01  9.2317821146680901e-01  9.7745738358079659e-01  9.9235333953886706e-01  9.9024882920355450e-01  9.9361165924505312e-01  7.1706429926374615e-01  7.3777002251892787e-01  6.1352465131346623e-01  5.4111503607492561e-01  7.6252551436804028e-01  5.1206583320477739e-01  5.4956330217560634e-01  6.2896916876737685e-01  5.2220654601012084e-01  5.6221899262205755e-01  7.8489921007946883e-01  9.5029579621171600e-01  5.3389148871128123e-01  5.7960829243110268e-01  5.8787791691948832e-01  6.0208028844235861e-01  5.4824244919713305e-01  7.8675752192837756e-01  6.2990788677481591e-01  7.3666044596967928e-01  5.6542565637476205e-01  7.6422384424368217e-01  6.1327844503960605e-01  7.1600036237698816e-01  6.0130612086454804e-01  5.8628313950169897e-01  5.7908953547185094e-01  5.6540891841602914e-01  5.6181675273688847e-01  5.4789217134343982e-01  5.4934676959487116e-01  5.3354156940087660e-01  5.4135549431578400e-01  6.7620134697428402e-01  5.2198912323617530e-01  5.1241517657783353e-01  6.9544474698675540e-01  6.7493359201921888e-01  6.9369044709978045e-01  9.9046708910068693e-01  8.4009495871545459e-01  9.9371579556828049e-01  9.9443771192371755e-01  8.3729488104005556e-01  8.1635276780713317e-01  8.1283695094603181e-01  9.3654634439908835e-01  9.1147205509320572e-01  9.7298406524734460e-01  9.9436017110558950e-01  8.6437129804068158e-01  9.7374884083286384e-01  8.6201692760898274e-01  6.6045211555167971e-01  6.4336307122085290e-01  9.3378696663824690e-01  6.6051347527127491e-01  6.4342327181663372e-01  9.5223469623018520e-01  5.0408886112887119e-01  5.3746275604003790e-01  5.0432683433570868e-01  5.3751818747385094e-01  8.8592278569002136e-01  9.7390471803004885e-01  9.9498252981806501e-01  9.4498898382702856e-01  9.9065723502581549e-01  8.7802445396863782e-01  9.3274265502299980e-01  9.6360589935483565e-01  8.9456278000854195e-01  9.5189202641899284e-01  9.4087761492773880e-01  9.1627615018720343e-01  9.8317414243992574e-01  9.8986117274859076e-01  9.9565721465126522e-01  9.6115193641989749e-01  9.7991645282889228e-01  9.8181865713206107e-01  8.9262577211888849e-01  9.8114261886357612e-01  9.9524982504810033e-01  9.9370840740249566e-01  9.2938845261325698e-01  9.2713075689084845e-01  8.9419750540397092e-01  9.6772431671489423e-01  6.4160981160748298e-01  7.4412884770163734e-01  7.6586394047358042e-01  6.2550317199124206e-01  5.9736606232814704e-01  6.1197790713157241e-01  7.1964854718651927e-01  6.9972954673943799e-01  5.7376549102743613e-01  5.8749717789528921e-01  5.5450620599993194e-01  5.6821781159941709e-01  5.3902460467304825e-01  5.3893602603777735e-01  5.4373873402007611e-01  5.0838445654677344e-01  5.5347920389880401e-01  9.9449072804163252e-01  6.6032122707342755e-01  6.7824727305403654e-01  5.6786489314483379e-01  5.1567981108748939e-01  7.8331280197834796e-01  8.0594699964966765e-01  5.5378234166320051e-01  5.8704703315156237e-01  5.2604362041326380e-01  6.1140863153216907e-01  8.0687897881918480e-01  5.2632179892409736e-01  7.6725546407766876e-01  6.4134326980852263e-01  7.2074272283422658e-01  5.3866661406875493e-01  5.5411899838202494e-01  5.7823575093800184e-01  7.8399997146036304e-01  6.0241052892773117e-01  6.7944365857005895e-01  7.4568029431739613e-01  6.2488476708863983e-01  7.0077622337879064e-01  5.4393454996024182e-01  5.1591880452993166e-01  6.6139910926528012e-01  8.3608299965822930e-01  5.3905225779422017e-01  5.0843713032387872e-01  8.3856799311867902e-01  9.9554905840345076e-01  9.9576968553327982e-01  9.8268863288920594e-01  9.5964050739082174e-01  9.1908578190249046e-01  8.6116601814133720e-01  9.6219036095207411e-01  9.3706049680562109e-01  8.5690244460230969e-01  9.5459255695531364e-01  9.8566630355932561e-01  9.3470875372969120e-01  9.9580044396214717e-01  9.8056347345799466e-01  9.9636203730891826e-01  9.9523999856269241e-01  9.9002655746137447e-01  9.9430462951829190e-01  9.8695782227880080e-01  9.7232261680266152e-01  9.5566910673471150e-01  9.9637511496410791e-01  9.5515081217308906e-01  9.8687884985177321e-01  9.6432349893756697e-01  9.8741375548690413e-01  9.8891574588120545e-01  9.0726583556599794e-01  9.7165151153542140e-01  9.8234959063967964e-01  9.6586687762473433e-01  5.3727454353714110e-01  5.0322834839078079e-01  8.7718668505302222e-01  9.4809347447121706e-01  9.2148489399857902e-01  9.6934177528626686e-01  9.9644126300692182e-01  9.8693736533085086e-01  9.7959258805028460e-01  9.4286331889705810e-01  9.0728455962798193e-01  9.5497586935856205e-01  9.7371620431249228e-01  9.7218906932219684e-01  9.5348155633630327e-01  9.4118654335749885e-01  9.9491407389557762e-01  9.8610868289579190e-01  9.8343340296970971e-01  9.9457870082513589e-01  9.6953359084382340e-01  9.7949786470479028e-01  9.8575056898846569e-01  9.9651523876496562e-01  9.4472955887488119e-01  5.6995721820736467e-01  7.2895694912425213e-01  5.6074055022352032e-01  5.4377344124042770e-01  5.3026353357165279e-01  5.1921366721130557e-01  7.5002586669180804e-01  6.2129532286440836e-01  5.9504984021626017e-01  5.7408504183708720e-01  5.5807916489280485e-01  5.4674387219130205e-01  5.9338710778500636e-01  6.8627720433304296e-01  7.0554038874655356e-01  5.8091495660178938e-01  5.1914836806427045e-01  9.7026302812280119e-01  5.4669025979839092e-01  5.3018334501717057e-01  5.5800412744116379e-01  5.4369005729934983e-01  6.0617049231142650e-01  6.2122480761095911e-01  5.6030575731582588e-01  9.2523365956766668e-01  7.2892008111909556e-01  5.7395764369228774e-01  9.0343818408965448e-01  5.9482868998208760e-01  7.5008284523623225e-01  9.8917751901638040e-01  8.9080857166625294e-01  6.8624186839214052e-01  7.0553395879746794e-01  8.6962807091618066e-01  9.6382776085512967e-01  6.5596141376656758e-01  6.3910542708178730e-01  8.2524753216807478e-01  8