<?xml version="1.0"?>
<VTKFile type="UnstructuredGrid"  version="0.1"  >
<UnstructuredGrid>
<Piece  NumberOfPoints="4882" NumberOfCells="9241">
<Points>
<DataArray  type="Float64"  NumberOfComponents="3"  format="ascii">6 0.1 0  8 0.1 0  8 0.22 0  7.1 0.22 0  7 0.22 0  6 0.22 0  6.01 0.1 0  6.02 0.1 0  6.03 0.1 0  6.04 0.1 0  6.05 0.1 0  6.06 0.1 0  6.07 0.1 0  6.08 0.1 0  6.09 0.1 0  6.1 0.1 0  6.109999999999999 0.1 0  6.12 0.1 0  6.13 0.1 0  6.14 0.1 0  6.149999999999999 0.1 0  6.16 0.1 0  6.17 0.1 0  6.18 0.1 0  6.19 0.1 0  6.199999999999999 0.1 0  6.21 0.1 0  6.22 0.1 0  6.23 0.1 0  6.239999999999999 0.1 0  6.25 0.1 0  6.26 0.1 0  6.27 0.1 0  6.279999999999999 0.1 0  6.289999999999999 0.1 0  6.3 0.1 0  6.31 0.1 0  6.319999999999999 0.1 0  6.329999999999999 0.1 0  6.34 0.1 0  6.35 0.1 0  6.359999999999999 0.1 0  6.369999999999999 0.1 0  6.379999999999999 0.1 0  6.389999999999999 0.1 0  6.399999999999999 0.1 0  6.409999999999999 0.1 0  6.419999999999999 0.1 0  6.429999999999999 0.1 0  6.44 0.1 0  6.449999999999999 0.1 0  6.459999999999999 0.1 0  6.469999999999999 0.1 0  6.479999999999999 0.1 0  6.489999999999999 0.1 0  6.499999999999999 0.1 0  6.509999999999999 0.1 0  6.519999999999999 0.1 0  6.529999999999998 0.1 0  6.539999999999999 0.1 0  6.549999999999999 0.1 0  6.559999999999999 0.1 0  6.569999999999999 0.1 0  6.579999999999998 0.1 0  6.589999999999998 0.1 0  6.599999999999999 0.1 0  6.609999999999999 0.1 0  6.619999999999998 0.1 0  6.629999999999998 0.1 0  6.639999999999999 0.1 0  6.649999999999999 0.1 0  6.659999999999998 0.1 0  6.669999999999998 0.1 0  6.679999999999999 0.1 0  6.689999999999999 0.1 0  6.699999999999998 0.1 0  6.709999999999998 0.1 0  6.719999999999999 0.1 0  6.729999999999999 0.1 0  6.739999999999998 0.1 0  6.749999999999998 0.1 0  6.759999999999998 0.1 0  6.769999999999999 0.1 0  6.779999999999998 0.1 0  6.789999999999998 0.1 0  6.799999999999999 0.1 0  6.809999999999999 0.1 0  6.819999999999999 0.1 0  6.829999999999998 0.1 0  6.839999999999999 0.1 0  6.849999999999999 0.1 0  6.859999999999999 0.1 0  6.869999999999998 0.1 0  6.879999999999999 0.1 0  6.889999999999999 0.1 0  6.899999999999999 0.1 0  6.909999999999998 0.1 0  6.919999999999998 0.1 0  6.929999999999999 0.1 0  6.939999999999999 0.1 0  6.949999999999998 0.1 0  6.959999999999999 0.1 0  6.969999999999999 0.1 0  6.979999999999999 0.1 0  6.989999999999998 0.1 0  6.999999999999999 0.1 0  7.009999999999999 0.1 0  7.019999999999999 0.1 0  7.029999999999999 0.1 0  7.039999999999999 0.1 0  7.049999999999999 0.1 0  7.059999999999999 0.1 0  7.069999999999999 0.1 0  7.079999999999998 0.1 0  7.089999999999999 0.1 0  7.099999999999999 0.1 0  7.109999999999999 0.1 0  7.119999999999999 0.1 0  7.129999999999999 0.1 0  7.139999999999999 0.1 0  7.149999999999999 0.1 0  7.159999999999999 0.1 0  7.169999999999999 0.1 0  7.179999999999999 0.1 0  7.19 0.1 0  7.199999999999999 0.1 0  7.209999999999999 0.1 0  7.219999999999999 0.1 0  7.229999999999999 0.1 0  7.239999999999998 0.1 0  7.249999999999999 0.1 0  7.259999999999999 0.1 0  7.27 0.1 0  7.279999999999999 0.1 0  7.289999999999999 0.1 0  7.299999999999999 0.1 0  7.309999999999999 0.1 0  7.319999999999999 0.1 0  7.329999999999999 0.1 0  7.339999999999999 0.1 0  7.35 0.1 0  7.359999999999999 0.1 0  7.369999999999999 0.1 0  7.379999999999999 0.1 0  7.389999999999999 0.1 0  7.399999999999999 0.1 0  7.409999999999999 0.1 0  7.419999999999999 0.1 0  7.43 0.1 0  7.44 0.1 0  7.449999999999999 0.1 0  7.459999999999999 0.1 0  7.469999999999999 0.1 0  7.48 0.1 0  7.489999999999999 0.1 0  7.499999999999999 0.1 0  7.51 0.1 0  7.52 0.1 0  7.529999999999999 0.1 0  7.539999999999999 0.1 0  7.549999999999999 0.1 0  7.56 0.1 0  7.569999999999999 0.1 0  7.579999999999999 0.1 0  7.59 0.1 0  7.6 0.1 0  7.609999999999999 0.1 0  7.619999999999999 0.1 0  7.629999999999999 0.1 0  7.64 0.1 0  7.649999999999999 0.1 0  7.66 0.1 0  7.67 0.1 0  7.68 0.1 0  7.69 0.1 0  7.699999999999999 0.1 0  7.709999999999999 0.1 0  7.72 0.1 0  7.73 0.1 0  7.739999999999999 0.1 0  7.75 0.1 0  7.76 0.1 0  7.77 0.1 0  7.779999999999999 0.1 0  7.789999999999999 0.1 0  7.8 0.1 0  7.81 0.1 0  7.82 0.1 0  7.83 0.1 0  7.84 0.1 0  7.85 0.1 0  7.859999999999999 0.1 0  7.869999999999999 0.1 0  7.88 0.1 0  7.89 0.1 0  7.899999999999999 0.1 0  7.91 0.1 0  7.92 0.1 0  7.93 0.1 0  7.94 0.1 0  7.949999999999999 0.1 0  7.96 0.1 0  7.97 0.1 0  7.98 0.1 0  7.99 0.1 0  8 0.1099999999999788 0  8 0.1199999999999512 0  8 0.1299999999999173 0  8 0.1399999999998952 0  8 0.1499999999998641 0  8 0.1599999999998293 0  8 0.1699999999998686 0  8 0.1799999999998971 0  8 0.1899999999999147 0  8 0.1999999999999323 0  8 0.2099999999999607 0  7.990085836355354 0.22 0  7.980171672710533 0.22 0  7.970257509065752 0.22 0  7.960343345421177 0.22 0  7.950429181776419 0.22 0  7.940515018131598 0.22 0  7.930600854486929 0.22 0  7.920686690842305 0.22 0  7.910772527197484 0.22 0  7.900858363552682 0.22 0  7.890944199908105 0.22 0  7.88103003626337 0.22 0  7.87111587261855 0.22 0  7.861201708973858 0.22 0  7.851287545329257 0.22 0  7.841373381684436 0.22 0  7.831459218039615 0.22 0  7.821545054395035 0.22 0  7.811630890750322 0.22 0  7.801716727105502 0.22 0  7.791802563460787 0.22 0  7.781888399816208 0.22 0  7.771974236171387 0.22 0  7.762060072526567 0.22 0  7.752145908881964 0.22 0  7.742231745237274 0.22 0  7.732317581592453 0.22 0  7.722403417947716 0.22 0  7.712489254303141 0.22 0  7.702575090658339 0.22 0  7.692660927013642 0.22 0  7.682746763369046 0.22 0  7.672832599724225 0.22 0  7.662918436079405 0.22 0  7.653004272434819 0.22 0  7.643090108790111 0.22 0  7.633175945145291 0.22 0  7.623261781500571 0.22 0  7.613347617855996 0.22 0  7.603433454211177 0.22 0  7.593519290566356 0.22 0  7.583605126921748 0.22 0  7.573690963277063 0.22 0  7.563776799632242 0.22 0  7.5538626359875 0.22 0  7.543948472342924 0.22 0  7.534034308698129 0.22 0  7.524120145053308 0.22 0  7.514205981408487 0.22 0  7.504291817763667 0.22 0  7.494377654118846 0.22 0  7.484463490474027 0.22 0  7.474549326829206 0.22 0  7.464635163184385 0.22 0  7.454720999539565 0.22 0  7.444806835894744 0.22 0  7.434892672249925 0.22 0  7.424978508605104 0.22 0  7.415064344960284 0.22 0  7.405150181315463 0.22 0  7.395236017670642 0.22 0  7.385321854025823 0.22 0  7.375407690381002 0.22 0  7.365493526736182 0.22 0  7.355579363091362 0.22 0  7.345665199446541 0.22 0  7.335751035801721 0.22 0  7.3258368721569 0.22 0  7.315922708512131 0.22 0  7.306008544867555 0.22 0  7.296094381222787 0.22 0  7.286180217577966 0.22 0  7.276266053933307 0.22 0  7.266351890288672 0.22 0  7.256437726643852 0.22 0  7.24652356299906 0.22 0  7.236609399354484 0.22 0  7.226695235709738 0.22 0  7.216781072064918 0.22 0  7.206866908420237 0.22 0  7.196952744775624 0.22 0  7.187038581130803 0.22 0  7.177124417485989 0.22 0  7.167210253841413 0.22 0  7.15729609019669 0.22 0  7.147381926551869 0.22 0  7.137467762907166 0.22 0  7.127609887754289 0.22 0  7.119267423713023 0.22 0  7.112902479254871 0.22 0  7.108462887920409 0.22 0  7.105141639945627 0.22 0  7.101184123304556 0.22 0  7.09900000000009 0.22 0  7.097999999999909 0.22 0  7.09699999999975 0.22 0  7.095999999999861 0.22 0  7.09499999999993 0.22 0  7.093999999999729 0.22 0  7.092999999999591 0.22 0  7.091999999999723 0.22 0  7.090999999999771 0.22 0  7.089999999999549 0.22 0  7.088999999999444 0.22 0  7.087999999999584 0.22 0  7.086999999999611 0.22 0  7.085999999999368 0.22 0  7.084999999999305 0.22 0  7.083999999999445 0.22 0  7.082999999999451 0.22 0  7.081999999999375 0.22 0  7.080999999999514 0.22 0  7.079999999999653 0.22 0  7.078999999999639 0.22 0  7.077999999999584 0.22 0  7.076999999999722 0.22 0  7.075999999999861 0.22 0  7.074999999999826 0.22 0  7.073999999999792 0.22 0  7.07299999999993 0.22 0  7.072000000000069 0.22 0  7.071000000000014 0.22 0  7.069999999999999 0.22 0  7.069000000000139 0.22 0  7.068000000000278 0.22 0  7.067000000000201 0.22 0  7.066000000000208 0.22 0  7.065000000000347 0.22 0  7.064000000000472 0.22 0  7.063000000000389 0.22 0  7.062000000000416 0.22 0  7.061000000000555 0.22 0  7.060000000000451 0.22 0  7.059000000000228 0.22 0  7.058000000000278 0.22 0  7.057000000000409 0.22 0  7.05600000000027 0.22 0  7.055000000000069 0.22 0  7.054000000000139 0.22 0  7.05300000000025 0.22 0  7.05200000000009 0.22 0  7.05099999999991 0.22 0  7.05 0.22 0  7.04900000000009 0.22 0  7.047999999999909 0.22 0  7.04699999999975 0.22 0  7.045999999999861 0.22 0  7.044999999999931 0.22 0  7.04399999999973 0.22 0  7.042999999999591 0.22 0  7.041999999999723 0.22 0  7.040999999999771 0.22 0  7.039999999999549 0.22 0  7.038999999999445 0.22 0  7.037999999999584 0.22 0  7.036999999999612 0.22 0  7.035999999999528 0.22 0  7.034999999999653 0.22 0  7.033999999999792 0.22 0  7.032999999999799 0.22 0  7.031999999999723 0.22 0  7.030999999999861 0.22 0  7.03 0.22 0  7.028999999999987 0.22 0  7.02799999999993 0.22 0  7.027000000000069 0.22 0  7.026000000000209 0.22 0  7.025000000000174 0.22 0  7.024000000000139 0.22 0  7.023000000000278 0.22 0  7.022000000000416 0.22 0  7.021000000000361 0.22 0  7.020000000000347 0.22 0  7.019000000000486 0.22 0  7.018000000000624 0.22 0  7.017000000000548 0.22 0  7.016000000000555 0.22 0  7.015000000000694 0.22 0  7.014000000000632 0.22 0  7.013000000000389 0.22 0  7.012000000000416 0.22 0  7.011000000000555 0.22 0  7.010000000000451 0.22 0  7.009000000000229 0.22 0  7.008000000000278 0.22 0  7.007000000000409 0.22 0  7.00600000000027 0.22 0  7.005000000000069 0.22 0  7.004000000000139 0.22 0  7.00300000000025 0.22 0  7.00200000000009 0.22 0  7.00099999999991 0.22 0  6.994809698470582 0.22 0  6.991569006236496 0.22 0  6.987074728859082 0.22 0  6.980583540116057 0.22 0  6.972279556173985 0.22 0  6.962550869064059 0.22 0  6.952627664228347 0.22 0  6.942704459392635 0.22 0  6.932781254556923 0.22 0  6.922858049721211 0.22 0  6.912934844885499 0.22 0  6.903011640049788 0.22 0  6.893088435214075 0.22 0  6.883165230378363 0.22 0  6.873242025542651 0.22 0
[...]
<PointData  Scalars="pressure"> 
<DataArray  type="Float64"  Name="pressure"  format="ascii">4.4431030424275684e-06  -2.1932802052786813e+00  -2.1932802052786915e+00  -5.0292132140908077e+00  -2.5767879912450131e+00  4.3794671774896333e-06  -1.5080851342094767e-02  -3.0240478666000777e-02  -4.5475662680572411e-02  -6.0782388998760421e-02  -7.6165409743462975e-02  -9.1623255199557760e-02  -1.0715402445766105e-01  -1.2276377830077492e-01  -1.3844728300943740e-01  -1.5420640770265406e-01  -1.7004362232161066e-01  -1.8595834477585566e-01  -2.0194898534872191e-01  -2.1801980034893290e-01  -2.3417187743798812e-01  -2.5040147990528938e-01  -2.6671368642384530e-01  -2.8310704655670965e-01  -2.9958167365067362e-01  -3.1614103078018946e-01  -3.3278261621517713e-01  -3.4951532520010281e-01  -3.6633150773587991e-01  -3.8323699244110249e-01  -4.0023021150626936e-01  -4.1731313572865425e-01  -4.3448864541816234e-01  -4.5175381890718974e-01  -4.6911890992895944e-01  -4.8657679684044275e-01  -5.0413333414303985e-01  -5.2178537517501711e-01  -5.3953824839853803e-01  -5.5739309379392632e-01  -5.7534711182113329e-01  -5.9341147643757974e-01  -6.1158138457220368e-01  -6.2985673920652563e-01  -6.4824265307739626e-01  -6.6673826761388488e-01  -6.8534796517317920e-01  -7.0407371177741629e-01  -7.2291427757143767e-01  -7.4187293221436978e-01  -7.6095103996838986e-01  -7.8015325540978087e-01  -7.9947651324500479e-01  -8.1892729138426668e-01  -8.3850547515667340e-01  -8.5821250126174242e-01  -8.7805024409609722e-01  -8.9802164836002829e-01  -9.1812821409124834e-01  -9.3837203916770107e-01  -9.5875330553416749e-01  -9.7928077699826388e-01  -9.9994352294327193e-01  -1.0207570791986098e+00  -1.0417133151377351e+00  -1.0628243019016790e+00  -1.0840781145448719e+00  -1.1054909306423766e+00  -1.1270551026967621e+00  -1.1487767344343569e+00  -1.1706569578125234e+00  -1.1926957424926281e+00  -1.2149020791437037e+00  -1.2372649688482238e+00  -1.2597971392922793e+00  -1.2824977410789282e+00  -1.3053663518878122e+00  -1.3284060248814116e+00  -1.3516184097059971e+00  -1.3750072614303885e+00  -1.3985654542895665e+00  -1.4223044296050480e+00  -1.4462168560147981e+00  -1.4703114474936889e+00  -1.4945776236756250e+00  -1.5190232474737317e+00  -1.5436494284976126e+00  -1.5684490791619246e+00  -1.5934306573743340e+00  -1.6185917478737302e+00  -1.6439474336306672e+00  -1.6695083637716557e+00  -1.6952960142004354e+00  -1.7213508689420385e+00  -1.7477335824702103e+00  -1.7745460543640346e+00  -1.8019251788077313e+00  -1.8299555316226395e+00  -1.8589234852312835e+00  -1.8889558032922087e+00  -1.9202175952389189e+00  -1.9529470647663707e+00  -1.9867535912363938e+00  -2.0214177819185140e+00  -2.0567489245806163e+00  -2.0910224576546494e+00  -2.1237333316670139e+00  -2.1537147332895197e+00  -2.1802170596256398e+00  -2.2018629395381319e+00  -2.2189524100851448e+00  -2.2308736688602626e+00  -2.2376411031057417e+00  -2.2399382800189427e+00  -2.2384076701089368e+00  -2.2343592954818172e+00  -2.2281034446995509e+00  -2.2213710016974297e+00  -2.2147389015269261e+00  -2.2088102790200583e+00  -2.2039545848808926e+00  -2.2002083209307748e+00  -2.1974275241531198e+00  -2.1955255795569180e+00  -2.1943196979457134e+00  -2.1935373097088537e+00  -2.1931586677910508e+00  -2.1929792183419390e+00  -2.1929048129864630e+00  -2.1929277238409521e+00  -2.1929735893759190e+00  -2.1930323083974468e+00  -2.1930889020488462e+00  -2.1931393081933082e+00  -2.1931788539200112e+00  -2.1932109621933384e+00  -2.1932345804774869e+00  -2.1932512847552483e+00  -2.1932627588447504e+00  -2.1932703542548384e+00  -2.1932754226498927e+00  -2.1932783160719667e+00  -2.1932799853224441e+00  -2.1932808503191725e+00  -2.1932811758749979e+00  -2.1932812582635615e+00  -2.1932811445343141e+00  -2.1932809943776412e+00  -2.1932808343938794e+00  -2.1932806562783629e+00  -2.1932805250788534e+00  -2.1932804256842013e+00  -2.1932803457818006e+00  -2.1932802907054247e+00  -2.1932802538788048e+00  -2.1932802312649016e+00  -2.1932802172022323e+00  -2.1932802093007111e+00  -2.1932802054399949e+00  -2.1932802037321162e+00  -2.1932802033252319e+00  -2.1932802035191004e+00  -2.1932802039112982e+00  -2.1932802043864283e+00  -2.1932802047238753e+00  -2.1932802049116114e+00  -2.1932802050613294e+00  -2.1932802051633487e+00  -2.1932802052223446e+00  -2.1932802052483180e+00  -2.1932802052683353e+00  -2.1932802052724689e+00  -2.1932802052774476e+00  -2.1932802052790876e+00  -2.1932802052799936e+00  -2.1932802052803901e+00  -2.1932802052801512e+00  -2.1932802052798759e+00  -2.1932802052795037e+00  -2.1932802052792231e+00  -2.1932802052790317e+00  -2.1932802052788736e+00  -2.1932802052788163e+00  -2.1932802052787550e+00  -2.1932802052787568e+00  -2.1932802052787128e+00  -2.1932802052787066e+00  -2.1932802052787119e+00  -2.1932802052786964e+00  -2.1932802052786950e+00  -2.1932802052786915e+00  -2.1932802052787097e+00  -2.1932802052786990e+00  -2.1932802052786982e+00  -2.1932802052787013e+00  -2.1932802052786835e+00  -2.1932802052786871e+00  -2.1932802052786813e+00  -2.1932802052786915e+00  -2.1932802052786968e+00  -2.1932802052787053e+00  -2.1932802052786866e+00  -2.1932802052786866e+00  -2.1932802052786888e+00  -2.1932802052787013e+00  -2.1932802052786915e+00  -2.1932802052786813e+00  -2.1932802052786959e+00  -2.1932802052786973e+00  -2.1932802052786879e+00  -2.1932802052786919e+00  -2.1932802052786857e+00  -2.1932802052786950e+00  -2.1932802052786884e+00  -2.1932802052786906e+00  -2.1932802052787141e+00  -2.1932802052786986e+00  -2.1932802052787048e+00  -2.1932802052787190e+00  -2.1932802052787004e+00  -2.1932802052787248e+00  -2.1932802052787119e+00  -2.1932802052787101e+00  -2.1932802052787057e+00  -2.1932802052787173e+00  -2.1932802052787004e+00  -2.1932802052787013e+00  -2.1932802052786897e+00  -2.1932802052786782e+00  -2.1932802052786893e+00  -2.1932802052786973e+00  -2.1932802052786893e+00  -2.1932802052786871e+00  -2.1932802052786924e+00  -2.1932802052786715e+00  -2.1932802052786484e+00  -2.1932802052786338e+00  -2.1932802052786142e+00  -2.1932802052785663e+00  -2.1932802052784952e+00  -2.1932802052783718e+00  -2.1932802052781919e+00  -2.1932802052779503e+00  -2.1932802052776688e+00  -2.1932802052773326e+00  -2.1932802052770879e+00  -2.1932802052771851e+00  -2.1932802052777594e+00  -2.1932802052790641e+00  -2.1932802052823690e+00  -2.1932802052876763e+00  -2.1932802052993972e+00  -2.1932802053230471e+00  -2.1932802053708897e+00  -2.1932802054552192e+00  -2.1932802055836413e+00  -2.1932802057660861e+00  -2.1932802060036529e+00  -2.1932802064866332e+00  -2.1932802068978101e+00  -2.1932802071746167e+00  -2.1932802070955688e+00  -2.1932802059617513e+00  -2.1932802034455632e+00  -2.1932801971902021e+00  -2.1932801860875233e+00  -2.1932801680415190e+00  -2.1932801383161946e+00  -2.1932800918185178e+00  -2.1932800260335705e+00  -2.1932799385066124e+00  -2.1932798244755887e+00  -2.1932796650843458e+00  -2.1932794892912506e+00  -2.1932793429908464e+00  -2.1932791946326096e+00  -2.1932791519640800e+00  -2.1932793396213541e+00  -2.1932798417110440e+00  -2.1932811118553421e+00  -2.1932831531137640e+00  -2.1932868844622075e+00  -2.1932928730552468e+00  -2.1933019107534686e+00  -2.1933151659483623e+00  -2.1933342334853272e+00  -2.1933613019177369e+00  -2.1933953304018945e+00  -2.1934423288479556e+00  -2.1934950903860391e+00  -2.1935652835271355e+00  -2.1936242250072731e+00  -2.1936665296999958e+00  -2.1937002635907756e+00  -2.1936121742298598e+00  -2.1934057762434467e+00  -2.1929988415550992e+00  -2.1920397408096695e+00  -2.1907553680977387e+00  -2.1878077857888383e+00  -2.1835770572564939e+00  -2.1766487220957500e+00  -2.1629284744012018e+00  -2.1395112647412220e+00  -2.0964800803387007e+00  -2.0369584450692280e+00  -1.8891725842036564e+00  -1.8780124935449474e+00  1.0209390751455607e+00  -4.9926210393126160e+00  -3.3012273723803967e+00  -3.0823958282394361e+00  -2.8622553220934490e+00  -2.7437788670630474e+00  -2.6615351794758926e+00  -2.6015824479373317e+00  -2.5556777922665010e+00  -2.5210328950677741e+00  -2.4908958484017596e+00  -2.4687715929698375e+00  -2.4486414902537246e+00  -2.4319965220235726e+00  -2.4174406428584270e+00  -2.4048384506906708e+00  -2.3937565878831597e+00  -2.3838769542814471e+00  -2.3749821003584253e+00  -2.3670292785601674e+00  -2.3598472025019532e+00  -2.3532772518457095e+00  -2.3472746659353643e+00  -2.3417462529062609e+00  -2.3366251110725345e+00  -2.3318150828221182e+00  -2.3274505261615137e+00  -2.3232926166395242e+00  -2.3194079297644232e+00  -2.3157412644686017e+00  -2.3122827303278850e+00  -2.3090437086280899e+00  -2.3059205140311012e+00  -2.3029971610597726e+00  -2.3001886675287841e+00  -2.2975187934630212e+00  -2.2949575264959337e+00  -2.2925085682218551e+00  -2.2901589036041559e+00  -2.2879031124375158e+00  -2.2857349798759832e+00  -2.2836465809477122e+00  -2.2816338427920893e+00  -2.2796950843845321e+00  -2.2778263440880258e+00  -2.2760255613969766e+00  -2.2742887285042941e+00  -2.2726132759295159e+00  -2.2709958627385589e+00  -2.2694382497019387e+00  -2.2679412026190193e+00  -2.2665032794257969e+00  -2.2651206391521832e+00  -2.2637980382719189e+00  -2.2625353639266024e+00  -2.2613314996532137e+00  -2.2601952300440349e+00  -2.2591190369788317e+00  -2.2581083880498523e+00  -2.2571764650146431e+00  -2.2563125879010388e+00  -2.2555241330385143e+00  -2.2548151825060736e+00  -2.2542186896820651e+00  -2.2536888396493477e+00  -2.2532813731618897e+00  -2.2529774510929510e+00  -2.2527945522525106e+00  -2.2527462221511194e+00  -2.2528359894223664e+00  -2.2530878674341039e+00  -2.2535176939760064e+00  -2.2540856846797976e+00  -2.2549621080813651e+00  -2.2559985504641658e+00  -2.2573313597866664e+00  -2.2589843618018408e+00  -2.2609142636231070e+00  -2.2633321279247292e+00  -2.2659654066990229e+00  -2.2693744278303698e+00  -2.2732123503761592e+00  -2.2776813116191565e+00  -2.2830759073135223e+00  -2.2890956449312356e+00  -2.2965868942780752e+00  -2.3052653832504384e+00  -2.3154997909505051e+00  -2.3278096811327531e+00  -2.3426676063210232e+00  -2.3608273220005733e+00  -2.3830114830185085e+00  -2.4104056774417271e+00  -2.4453240427801157e+00  -2.4936538795960796e+00  -2.5542501149636383e+00  -2.6545299560526141e+00  -2.7835570119954030e+00  -2.9636000670885627e+00  -4.1449150873571670e+00  -7.0291243317983376e-01  -1.9075502396808450e+00  -1.8225052768850289e+00  -1.8975132791607876e+00  -1.9162966530191667e+00  -1.9120977290719090e+00  -1.8989238150521863e+00  -1.8792240795579793e+00  -1.8567433362690857e+00  -1.8325131224620199e+00  -1.8075641019931532e+00  -1.7819578397607148e+00  -1.7561697321855398e+00  -1.7303677682558933e+00  -1.7045474767550728e+00  -1.6788599345230748e+00  -1.6533212302464573e+00  -1.6279737898688005e+00  -1.6028054969703720e+00  -1.5778314097588793e+00  -1.5530654124461760e+00  -1.5284863228756878e+00  -1.5041095646288483e+00  -1.4799111527603959e+00  -1.4559099161646167e+00  -1.4320854654400561e+00  -1.4084465726199809e+00  -1.3849813104836364e+00  -1.3616992587062227e+00  -1.3385858978546190e+00  -1.3156470886889924e+00  -1.2928748321934347e+00  -1.2702717307117253e+00  -1.2478361621122349e+00  -1.2255633795722101e+00  -1.2034545770446718e+00  -1.1815061959180257e+00  -1.1597157044459938e+00  -1.1380803172594713e+00  -1.1166043447290703e+00  -1.0952733398030605e+00  -1.0741046247953598e+00  -1.0530778106991541e+00  -1.0322016709224906e+00  -1.0114712570162270e+00  -9.9087974475321572e-01  -9.7043674397934576e-01  -9.5012778547267085e-01  -9.2995840187216450e-01  -9.0993006709160840e-01  -8.9002910391557344e-01  -8.7026501309226389e-01  -8.5062960330917525e-01  -8.3112331943587181e-01  -8.1174212615783381e-01  -7.9248857491220548e-01  -7.7335611788473591e-01  -7.5434610323751616e-01  -7.3545307020758000e-01  -7.1667896919840257e-01  -6.9802081344571454e-01  -6.7947316179023942e-01  -6.6104452507788170e-01  -6.4272446707216602e-01  -6.2451215695445161e-01  -6.0640810904402287e-01  -5.8840771989831264e-01  -5.7051022806295770e-01  -5.5272110111828565e-01  -5.3502970595265698e-01  -5.1743875547342000e-01  -4.9994462003877771e-01  -4.8254792337717967e-01  -4.6524475327785492e-01  -4.4803578318639303e-01  -4.3092053576596712e-01  -4.1389494414642181e-01  -3.9696098759619841e-01  -3.8011454742257766e-01  -3.6335633337362722e-01  -3.4668307233471762e-01  -3.3009539027767232e-01  -3.1359307901029715e-01  -2.9717266651594104e-01  -2.8083607129925003e-01  -2.6457963843390392e-01  -2.4840435133122293e-01  -2.3230774987086020e-01  -2.1628880767597622e-01  -2.0035094498804373e-01  -1.8448837801594531e-01  -1.6870403728009412e-01  -1.5299371365129766e-01  -1.3736237684952068e-01  -1.2180203740384364e-01  -1.0631811354740672e-01  -9.0907846669584166e-02  -7.5574663163057387e-02  -6.0311388635449915e-02  -4.5123498570174669e-02  -3.0007263471398864e-02  -1.4964636585554579e-02  1.7806216302362805e-06  5.3448021207071329e-06  5.5731989813721218e-06  3.3758970603483026e-06  9.7437815150051387e-06  2.3002095584272415e-06  2.3443044006972386e-06  1.7462193048584802e-06  7.8320420315920085e-06  5.1221904282623145e-06  1.7751325734862760e-06  -2.1582185321486120e+00  -2.2102692227725247e+00  -2.0731981971714437e+00  -2.2235738241766208e+00  -2.1975594458668546e+00  -2.2323465942303709e+00  -2.1713603453460935e+00  -2.2419517596473306e+00  -2.2728928505553649e+00  -2.3034568047249930e+00  -2.2311677467631714e+00  -2.2174323168520398e+00  -2.2250603610105872e+00  -2.0963699832478899e+00  -2.2710217764788068e+00  -2.3167029658806859e+00  -2.2511857246519713e+00  -2.1828089275180815e+00  -2.2378613486389933e+00  -1.8963039387894185e+00  -2.2976395006132262e+00  -2.1932541984901492e+00  -2.3685974829834882e+00  -2.2374432143173881e+00  -2.1980722290536954e+00  -1.7381052839885278e+00  -2.1932802052786733e+00  -2.1932802052786777e+00  -9.8606819491904224e-02  -2.1932802052786622e+00  -2.1094334660643702e-01  -2.1932802052786817e+00  -2.1932802052788696e+00  -3.2458350572859967e-01  -2.1932794553314769e+00  -2.1932802052706952e+00  -2.1932785784068876e+00  -2.1932802055199971e+00  -2.1932801289740893e+00  -4.4211946554370229e-01  -5.6371727330787602e-01  -6.8597101548255801e-01  -1.5680790522463861e+00  -8.1980867575322125e-01  -1.3920209886232462e+00  -9.6507654940526300e-01  -1.2330611713611195e+00  -2.1932802074801363e+00  -2.2404558363588660e+00  -1.0845803065510424e+00  -2.3626293024558249e+00  -2.2656303551823860e+00  -2.2475134574216042e+00  -2.2038872976380732e+00  -2.0661978262937164e+00  -2.2430234166968890e+00  -2.2510342919537933e+00  -2.3294739100504591e+00  -2.2553386170748926e+00  -2.2857186304317314e+00  -2.2196513049401263e+00  -2.2127009482069875e+00  -2.3194288835638339e+00  -2.3454714861643557e+00  -2.2533096023373687e+00  -2.2129729359191610e+00  -2.1723278711202472e+00  -2.2611490684947637e+00  -2.1948675034382399e+00  -1.9589727223264379e+00  -2.1678443873066238e+00  -2.2712098884152128e+00  -2.2998248486067907e+00  -2.2768071327477939e+00  -1.3144099042206983e+00  -2.1932761611568115e+00  -8.9038012808052780e-01  -2.1932802052786866e+00  -1.4752432998463756e+00  -1.5225856531302492e-01  -2.1932802052786537e+00  -2.1932802058794794e+00  -2.6845633076131081e-01  -2.1932802052785654e+00  -2.1932488422908913e+00  -2.1409299123034691e+00  -3.8407524006197913e-01  -2.1932802052795526e+00  -7.5865831850197818e-01  -2.1932802053198461e+00  -5.0391053397400865e-01  -2.1933105072005956e+00  -2.1932802045186586e+00  -2.1932839612168324e+00  -6.2480574792642540e-01  -1.4808253533145148e+00  -8.8919439809836398e-01  -1.3104738172589907e+00  -2.1932802052426368e+00  -7.4982238836906656e-01  -2.1932802052780334e+00  -6.2470123490642127e-01  -2.1932802052787252e+00  -5.0122777645729111e-01  -2.1932802052786671e+00  -3.8088523994700180e-01  -2.1932802052786702e+00  -1.1602583292237263e+00  -2.6613120703873644e-01  -1.5649490789269999e-01  -2.1932802776489826e+00  -1.1552594464509522e+00  -2.1932801240487394e+00  -2.4220108129329736e+00  -2.1928662947129016e+00  -2.2478651752332848e+00  -2.2552236456239427e+00  -2.1936151020152987e+00  -1.6562324611236996e+00  -1.6465082218143647e+00  -2.1875938123781040e+00  -1.9898800158331773e+00  -2.2223379941438282e+00  -2.2988776955719676e+00  -1.8085492554949454e+00  -2.2097474485827022e+00  -1.8165167707213936e+00  -2.1932801715344965e+00  -1.0256797018029360e+00  -2.2076199769349740e+00  -2.1932802389049666e+00  -1.0259363757811799e+00  -2.1809209351574204e+00  -5.2253029906860982e-02  -2.1932802052786871e+00  -5.5298832179768144e-02  -2.1932802052786786e+00  -2.1875928941206317e+00  -2.2855990114613078e+00  -2.2479475913150382e+00  -2.2110763806084979e+00  -2.4929939286140579e+00  -2.1981314751037457e+00  -2.1030894103068989e+00  -2.2460866278954645e+00  -1.9484456355225579e+00  -1.9290039870960798e+00  -2.1438485188442309e+00  -2.2027807234002874e+00  -2.2571345706638026e+00  -2.3526386574006133e+00  -2.2700338996281699e+00  -2.2515451383079692e+00  -2.2369325192788314e+00  -2.2777819825342420e+00  -1.8862000360635758e+00  -2.2254499713888185e+00  -2.3130283431536016e+00  -2.3808301338288143e+00  -2.1312990865233825e+00  -2.2028785882919122e+00  -2.1937403498978725e+00  -2.2309244537752959e+00  -2.1932802118912464e+00  -1.4111792913620800e+00  -2.1932529298016221e+00  -9.4655429244442391e-01  -8.0949933294202192e-01  -2.1932802051031279e+00  -2.1932791399481224e+00  -1.2504167696508326e+00  -6.7711653629977431e-01  -2.1932802052716034e+00  -5.5034596778172762e-01  -2.1932802052789726e+00  -2.1932802052786928e+00  -4.2862375574486489e-01  -2.1932802052786755e+00  -1.0674542752887807e-01  -2.1932802052786391e+00  -2.2522258583293566e+00  -1.0966745625283607e+00  -2.1932803364651963e+00  -2.1932802052783602e+00  -1.9534639465316500e-01  -1.5466202235989999e+00  -2.1932179744049423e+00  -2.1932802052786875e+00  -2.1932802052844114e+00  -3.0851527375061794e-01  -2.1932802054340033e+00  -2.1933391202517192e+00  -3.1132252795487664e-01  -2.1933074568732525e+00  -2.1932801990561925e+00  -2.1932814220272281e+00  -4.2633285066554838e-01  -5.4758408028931049e-01  -7.0382672698167792e-01  -1.5480899730003850e+00  -8.3546725638767338e-01  -2.1932800721568371e+00  -1.4164145164428512e+00  -9.4372852428508780e-01  -1.2543070873432005e+00  -2.1932802052786706e+00  -1.9812748993383686e-01  -1.1010670284174022e+00  -1.7197297041578754e+00  -2.1932802052786760e+00  -1.0740652614124614e-01  -1.7346578072903114e+00  -2.2526268403531002e+00  -2.2849726125492822e+00  -2.2933737385457937e+00  -2.0755642910181553e+00  -2.2101451517006061e+00  -2.1913070607424370e+00  -2.1738101925839706e+00  -2.1789780044968339e+00  -2.1949827750517290e+00  -2.2342586182319506e+00  -2.2423341132127064e+00  -2.2088995443336601e+00  -2.2493443125573247e+00  -2.3201824556839630e+00  -2.2925670083813703e+00  -2.3333063168687032e+00  -2.5927399950478400e+00  -2.2638849910222438e+00  -2.4034706874161555e+00  -2.1874774925462783e+00  -2.1117282874332526e+00  -2.2609976508300305e+00  -2.1703818113595625e+00  -2.2834844425656264e+00  -2.2648852142796176e+00  -2.6281480025578645e+00  -2.2704671516559589e+00  -2.2130837543670325e+00  -2.1956966081316209e+00  -2.2472180611916368e+00  -2.2392594542755413e+00  -2.1932802052786804e+00  -4.1254785600691568e-02  -1.8780955173562106e+00  -2.2094132398831419e+00  -2.1182162396516127e+00  -2.2867421317565428e+00  -2.2754714426693274e+00  -2.2392294110017077e+00  -2.3422708379893775e+00  -2.2195468354412951e+00  -2.0225273052024786e+00  -2.2103674113719913e+00  -2.2157405193899007e+00  -1.9553953536548765e+00  -2.2362792298598224e+00  -2.0219100510484331e+00  -2.4133665343085320e+00  -2.3735562428263854e+00  -2.2312360126426189e+00  -2.2920142483465851e+00  -2.2672202673593818e+00  -2.2580580078097090e+00  -2.2336370857268371e+00  -2.2653210575987690e+00  -2.1497022080390287e+00  -6.5365189612960894e-01  -1.3572101975952071e+00  -5.9376412997020456e-01  -4.6878213318992351e-01  -3.5014944702136358e-01  -2.3570990925372162e-01  -2.1932936205953264e+00  -2.1932802056129774e+