<?xml version="1.0"?>
<VTKFile type="UnstructuredGrid"  version="0.1"  >
<UnstructuredGrid>
<Piece  NumberOfPoints="4882" NumberOfCells="9241">
<Points>
<DataArray  type="Float64"  NumberOfComponents="3"  format="ascii">6 0.1 0  8 0.1 0  8 0.22 0  7.1 0.22 0  7 0.22 0  6 0.22 0  6.01 0.1 0  6.02 0.1 0  6.03 0.1 0  6.04 0.1 0  6.05 0.1 0  6.06 0.1 0  6.07 0.1 0  6.08 0.1 0  6.09 0.1 0  6.1 0.1 0  6.109999999999999 0.1 0  6.12 0.1 0  6.13 0.1 0  6.14 0.1 0  6.149999999999999 0.1 0  6.16 0.1 0  6.17 0.1 0  6.18 0.1 0  6.19 0.1 0  6.199999999999999 0.1 0  6.21 0.1 0  6.22 0.1 0  6.23 0.1 0  6.239999999999999 0.1 0  6.25 0.1 0  6.26 0.1 0  6.27 0.1 0  6.279999999999999 0.1 0  6.289999999999999 0.1 0  6.3 0.1 0  6.31 0.1 0  6.319999999999999 0.1 0  6.329999999999999 0.1 0  6.34 0.1 0  6.35 0.1 0  6.359999999999999 0.1 0  6.369999999999999 0.1 0  6.379999999999999 0.1 0  6.389999999999999 0.1 0  6.399999999999999 0.1 0  6.409999999999999 0.1 0  6.419999999999999 0.1 0  6.429999999999999 0.1 0  6.44 0.1 0  6.449999999999999 0.1 0  6.459999999999999 0.1 0  6.469999999999999 0.1 0  6.479999999999999 0.1 0  6.489999999999999 0.1 0  6.499999999999999 0.1 0  6.509999999999999 0.1 0  6.519999999999999 0.1 0  6.529999999999998 0.1 0  6.539999999999999 0.1 0  6.549999999999999 0.1 0  6.559999999999999 0.1 0  6.569999999999999 0.1 0  6.579999999999998 0.1 0  6.589999999999998 0.1 0  6.599999999999999 0.1 0  6.609999999999999 0.1 0  6.619999999999998 0.1 0  6.629999999999998 0.1 0  6.639999999999999 0.1 0  6.649999999999999 0.1 0  6.659999999999998 0.1 0  6.669999999999998 0.1 0  6.679999999999999 0.1 0  6.689999999999999 0.1 0  6.699999999999998 0.1 0  6.709999999999998 0.1 0  6.719999999999999 0.1 0  6.729999999999999 0.1 0  6.739999999999998 0.1 0  6.749999999999998 0.1 0  6.759999999999998 0.1 0  6.769999999999999 0.1 0  6.779999999999998 0.1 0  6.789999999999998 0.1 0  6.799999999999999 0.1 0  6.809999999999999 0.1 0  6.819999999999999 0.1 0  6.829999999999998 0.1 0  6.839999999999999 0.1 0  6.849999999999999 0.1 0  6.859999999999999 0.1 0  6.869999999999998 0.1 0  6.879999999999999 0.1 0  6.889999999999999 0.1 0  6.899999999999999 0.1 0  6.909999999999998 0.1 0  6.919999999999998 0.1 0  6.929999999999999 0.1 0  6.939999999999999 0.1 0  6.949999999999998 0.1 0  6.959999999999999 0.1 0  6.969999999999999 0.1 0  6.979999999999999 0.1 0  6.989999999999998 0.1 0  6.999999999999999 0.1 0  7.009999999999999 0.1 0  7.019999999999999 0.1 0  7.029999999999999 0.1 0  7.039999999999999 0.1 0  7.049999999999999 0.1 0  7.059999999999999 0.1 0  7.069999999999999 0.1 0  7.079999999999998 0.1 0  7.089999999999999 0.1 0  7.099999999999999 0.1 0  7.109999999999999 0.1 0  7.119999999999999 0.1 0  7.129999999999999 0.1 0  7.139999999999999 0.1 0  7.149999999999999 0.1 0  7.159999999999999 0.1 0  7.169999999999999 0.1 0  7.179999999999999 0.1 0  7.19 0.1 0  7.199999999999999 0.1 0  7.209999999999999 0.1 0  7.219999999999999 0.1 0  7.229999999999999 0.1 0  7.239999999999998 0.1 0  7.249999999999999 0.1 0  7.259999999999999 0.1 0  7.27 0.1 0  7.279999999999999 0.1 0  7.289999999999999 0.1 0  7.299999999999999 0.1 0  7.309999999999999 0.1 0  7.319999999999999 0.1 0  7.329999999999999 0.1 0  7.339999999999999 0.1 0  7.35 0.1 0  7.359999999999999 0.1 0  7.369999999999999 0.1 0  7.379999999999999 0.1 0  7.389999999999999 0.1 0  7.399999999999999 0.1 0  7.409999999999999 0.1 0  7.419999999999999 0.1 0  7.43 0.1 0  7.44 0.1 0  7.449999999999999 0.1 0  7.459999999999999 0.1 0  7.469999999999999 0.1 0  7.48 0.1 0  7.489999999999999 0.1 0  7.499999999999999 0.1 0  7.51 0.1 0  7.52 0.1 0  7.529999999999999 0.1 0  7.539999999999999 0.1 0  7.549999999999999 0.1 0  7.56 0.1 0  7.569999999999999 0.1 0  7.579999999999999 0.1 0  7.59 0.1 0  7.6 0.1 0  7.609999999999999 0.1 0  7.619999999999999 0.1 0  7.629999999999999 0.1 0  7.64 0.1 0  7.649999999999999 0.1 0  7.66 0.1 0  7.67 0.1 0  7.68 0.1 0  7.69 0.1 0  7.699999999999999 0.1 0  7.709999999999999 0.1 0  7.72 0.1 0  7.73 0.1 0  7.739999999999999 0.1 0  7.75 0.1 0  7.76 0.1 0  7.77 0.1 0  7.779999999999999 0.1 0  7.789999999999999 0.1 0  7.8 0.1 0  7.81 0.1 0  7.82 0.1 0  7.83 0.1 0  7.84 0.1 0  7.85 0.1 0  7.859999999999999 0.1 0  7.869999999999999 0.1 0  7.88 0.1 0  7.89 0.1 0  7.899999999999999 0.1 0  7.91 0.1 0  7.92 0.1 0  7.93 0.1 0  7.94 0.1 0  7.949999999999999 0.1 0  7.96 0.1 0  7.97 0.1 0  7.98 0.1 0  7.99 0.1 0  8 0.1099999999999788 0  8 0.1199999999999512 0  8 0.1299999999999173 0  8 0.1399999999998952 0  8 0.1499999999998641 0  8 0.1599999999998293 0  8 0.1699999999998686 0  8 0.1799999999998971 0  8 0.1899999999999147 0  8 0.1999999999999323 0  8 0.2099999999999607 0  7.990085836355354 0.22 0  7.980171672710533 0.22 0  7.970257509065752 0.22 0  7.960343345421177 0.22 0  7.950429181776419 0.22 0  7.940515018131598 0.22 0  7.930600854486929 0.22 0  7.920686690842305 0.22 0  7.910772527197484 0.22 0  7.900858363552682 0.22 0  7.890944199908105 0.22 0  7.88103003626337 0.22 0  7.87111587261855 0.22 0  7.861201708973858 0.22 0  7.851287545329257 0.22 0  7.841373381684436 0.22 0  7.831459218039615 0.22 0  7.821545054395035 0.22 0  7.811630890750322 0.22 0  7.801716727105502 0.22 0  7.791802563460787 0.22 0  7.781888399816208 0.22 0  7.771974236171387 0.22 0  7.762060072526567 0.22 0  7.752145908881964 0.22 0  7.742231745237274 0.22 0  7.732317581592453 0.22 0  7.722403417947716 0.22 0  7.712489254303141 0.22 0  7.702575090658339 0.22 0  7.692660927013642 0.22 0  7.682746763369046 0.22 0  7.672832599724225 0.22 0  7.662918436079405 0.22 0  7.653004272434819 0.22 0  7.643090108790111 0.22 0  7.633175945145291 0.22 0  7.623261781500571 0.22 0  7.613347617855996 0.22 0  7.603433454211177 0.22 0  7.593519290566356 0.22 0  7.583605126921748 0.22 0  7.573690963277063 0.22 0  7.563776799632242 0.22 0  7.5538626359875 0.22 0  7.543948472342924 0.22 0  7.534034308698129 0.22 0  7.524120145053308 0.22 0  7.514205981408487 0.22 0  7.504291817763667 0.22 0  7.494377654118846 0.22 0  7.484463490474027 0.22 0  7.474549326829206 0.22 0  7.464635163184385 0.22 0  7.454720999539565 0.22 0  7.444806835894744 0.22 0  7.434892672249925 0.22 0  7.424978508605104 0.22 0  7.415064344960284 0.22 0  7.405150181315463 0.22 0  7.395236017670642 0.22 0  7.385321854025823 0.22 0  7.375407690381002 0.22 0  7.365493526736182 0.22 0  7.355579363091362 0.22 0  7.345665199446541 0.22 0  7.335751035801721 0.22 0  7.3258368721569 0.22 0  7.315922708512131 0.22 0  7.306008544867555 0.22 0  7.296094381222787 0.22 0  7.286180217577966 0.22 0  7.276266053933307 0.22 0  7.266351890288672 0.22 0  7.256437726643852 0.22 0  7.24652356299906 0.22 0  7.236609399354484 0.22 0  7.226695235709738 0.22 0  7.216781072064918 0.22 0  7.206866908420237 0.22 0  7.196952744775624 0.22 0  7.187038581130803 0.22 0  7.177124417485989 0.22 0  7.167210253841413 0.22 0  7.15729609019669 0.22 0  7.147381926551869 0.22 0  7.137467762907166 0.22 0  7.127609887754289 0.22 0  7.119267423713023 0.22 0  7.112902479254871 0.22 0  7.108462887920409 0.22 0  7.105141639945627 0.22 0  7.101184123304556 0.22 0  7.09900000000009 0.22 0  7.097999999999909 0.22 0  7.09699999999975 0.22 0  7.095999999999861 0.22 0  7.09499999999993 0.22 0  7.093999999999729 0.22 0  7.092999999999591 0.22 0  7.091999999999723 0.22 0  7.090999999999771 0.22 0  7.089999999999549 0.22 0  7.088999999999444 0.22 0  7.087999999999584 0.22 0  7.086999999999611 0.22 0  7.085999999999368 0.22 0  7.084999999999305 0.22 0  7.083999999999445 0.22 0  7.082999999999451 0.22 0  7.081999999999375 0.22 0  7.080999999999514 0.22 0  7.079999999999653 0.22 0  7.078999999999639 0.22 0  7.077999999999584 0.22 0  7.076999999999722 0.22 0  7.075999999999861 0.22 0  7.074999999999826 0.22 0  7.073999999999792 0.22 0  7.07299999999993 0.22 0  7.072000000000069 0.22 0  7.071000000000014 0.22 0  7.069999999999999 0.22 0  7.069000000000139 0.22 0  7.068000000000278 0.22 0  7.067000000000201 0.22 0  7.066000000000208 0.22 0  7.065000000000347 0.22 0  7.064000000000472 0.22 0  7.063000000000389 0.22 0  7.062000000000416 0.22 0  7.061000000000555 0.22 0  7.060000000000451 0.22 0  7.059000000000228 0.22 0  7.058000000000278 0.22 0  7.057000000000409 0.22 0  7.05600000000027 0.22 0  7.055000000000069 0.22 0  7.054000000000139 0.22 0  7.05300000000025 0.22 0  7.05200000000009 0.22 0  7.05099999999991 0.22 0  7.05 0.22 0  7.04900000000009 0.22 0  7.047999999999909 0.22 0  7.04699999999975 0.22 0  7.045999999999861 0.22 0  7.044999999999931 0.22 0  7.04399999999973 0.22 0  7.042999999999591 0.22 0  7.041999999999723 0.22 0  7.040999999999771 0.22 0  7.039999999999549 0.22 0  7.038999999999445 0.22 0  7.037999999999584 0.22 0  7.036999999999612 0.22 0  7.035999999999528 0.22 0  7.034999999999653 0.22 0  7.033999999999792 0.22 0  7.032999999999799 0.22 0  7.031999999999723 0.22 0  7.030999999999861 0.22 0  7.03 0.22 0  7.028999999999987 0.22 0  7.02799999999993 0.22 0  7.027000000000069 0.22 0  7.026000000000209 0.22 0  7.025000000000174 0.22 0  7.024000000000139 0.22 0  7.023000000000278 0.22 0  7.022000000000416 0.22 0  7.021000000000361 0.22 0  7.020000000000347 0.22 0  7.019000000000486 0.22 0  7.018000000000624 0.22 0  7.017000000000548 0.22 0  7.016000000000555 0.22 0  7.015000000000694 0.22 0  7.014000000000632 0.22 0  7.013000000000389 0.22 0  7.012000000000416 0.22 0  7.011000000000555 0.22 0  7.010000000000451 0.22 0  7.009000000000229 0.22 0  7.008000000000278 0.22 0  7.007000000000409 0.22 0  7.00600000000027 0.22 0  7.005000000000069 0.22 0  7.004000000000139 0.22 0  7.00300000000025 0.22 0  7.00200000000009 0.22 0  7.00099999999991 0.22 0  6.994809698470582 0.22 0  6.991569006236496 0.22 0  6.987074728859082 0.22 0  6.980583540116057 0.22 0  6.972279556173985 0.22 0  6.962550869064059 0.22 0  6.952627664228347 0.22 0  6.942704459392635 0.22 0  6.932781254556923 0.22 0  6.922858049721211 0.22 0  6.912934844885499 0.22 0  6.903011640049788 0.22 0  6.893088435214075 0.22 0  6.883165230378363 0.22 0  6.873242025542651 0.22 0
[...]
<PointData  Scalars="pressure"> 
<DataArray  type="Float64"  Name="pressure"  format="ascii">-4.2562686591735208e-07  -1.7679370911532246e+00  -1.7679370911532319e+00  -4.5113377991294348e+00  -2.1088507041116742e+00  -4.1120726979707212e-07  -1.5047344778206026e-02  -3.0094803658568939e-02  -4.5142561425078033e-02  -6.0189785301874146e-02  -7.5237109439528688e-02  -9.0284974527712600e-02  -1.0533219323932630e-01  -1.2037973363477981e-01  -1.3542767636099748e-01  -1.5047464357410914e-01  -1.6552221369443690e-01  -1.8056969635883816e-01  -1.9561759329946363e-01  -2.1066480712191366e-01  -2.2571245703158721e-01  -2.4076037256797916e-01  -2.5580743263814126e-01  -2.7085573112629563e-01  -2.8590324749956353e-01  -3.0095114319436522e-01  -3.1599878486572974e-01  -3.3104677960794521e-01  -3.4609530832631963e-01  -3.6114275481380542e-01  -3.7619174189842697e-01  -3.9123999669499848e-01  -4.0628878701188931e-01  -4.2133752094691318e-01  -4.3638678302582040e-01  -4.5143682685826497e-01  -4.6648608243934014e-01  -4.8153721206435890e-01  -4.9658797346074884e-01  -5.1163974845407123e-01  -5.2669201041459646e-01  -5.4174537609190088e-01  -5.5680027411663768e-01  -5.7185553803604017e-01  -5.8691304854910420e-01  -6.0197174357839778e-01  -6.1703254623783266e-01  -6.3209553810346919e-01  -6.4716207923468316e-01  -6.6223076686993421e-01  -6.7730326910560212e-01  -6.9238039562071685e-01  -7.0746186523446730e-01  -7.2254930515907256e-01  -7.3764255424638547e-01  -7.5274428730491982e-01  -7.6785351450395023e-01  -7.8297266356202577e-01  -7.9810294323502362e-01  -8.1324598978006124e-01  -8.2840298825655989e-01  -8.4357737485076922e-01  -8.5876913914244513e-01  -8.7398284343885591e-01  -8.8921959060772759e-01  -9.0448453249729110e-01  -9.1977811201648774e-01  -9.3510710681176201e-01  -9.5047357157772050e-01  -9.6588305717260481e-01  -9.8134055536336229e-01  -9.9685034854444021e-01  -1.0124226107713084e+00  -1.0280572485768025e+00  -1.0437664750375180e+00  -1.0595567465646885e+00  -1.0754360695379861e+00  -1.0914129119685638e+00  -1.1074974083175626e+00  -1.1237023488993692e+00  -1.1400311986141840e+00  -1.1565037193766465e+00  -1.1731241686105254e+00  -1.1899140122658984e+00  -1.2068755654096470e+00  -1.2240281043112680e+00  -1.2413894557018215e+00  -1.2589651082864945e+00  -1.2767798825408274e+00  -1.2948457669221143e+00  -1.3131948251785619e+00  -1.3318507560406940e+00  -1.3508523358344542e+00  -1.3702469466586593e+00  -1.3901133723469781e+00  -1.4105648869223890e+00  -1.4317315409491553e+00  -1.4537203389993116e+00  -1.4768285879694596e+00  -1.5011873689227393e+00  -1.5269818374295678e+00  -1.5544670880702576e+00  -1.5833165152808995e+00  -1.6133785774778582e+00  -1.6444321663617911e+00  -1.6748967983202592e+00  -1.7042867713515679e+00  -1.7314390256788155e+00  -1.7555774724813478e+00  -1.7753709190742755e+00  -1.7910191516166523e+00  -1.8019167413743140e+00  -1.8080621322151760e+00  -1.8100782048827404e+00  -1.8085840469733392e+00  -1.8047844505402069e+00  -1.7990175288798140e+00  -1.7928547905172292e+00  -1.7868376048039272e+00  -1.7815083771395794e+00  -1.7771800127764368e+00  -1.7738747964476260e+00  -1.7714477080268274e+00  -1.7698056708545273e+00  -1.7687780496200245e+00  -1.7681201221937513e+00  -1.7678093287148251e+00  -1.7676672150879862e+00  -1.7676122711396118e+00  -1.7676368215058225e+00  -1.7676791240535386e+00  -1.7677304189627472e+00  -1.7677788424756129e+00  -1.7678213164730388e+00  -1.7678543347252007e+00  -1.7678808660509320e+00  -1.7679002416836782e+00  -1.7679138642361099e+00  -1.7679231697610425e+00  -1.7679292906364561e+00  -1.7679333577028824e+00  -1.7679356650513145e+00  -1.7679369851188032e+00  -1.7679376625470911e+00  -1.7679379094196397e+00  -1.7679379655119769e+00  -1.7679378664692589e+00  -1.7679377410766679e+00  -1.7679376100103676e+00  -1.7679374658196452e+00  -1.7679373588574641e+00  -1.7679372775296760e+00  -1.7679372103190993e+00  -1.7679371620413822e+00  -1.7679371287447350e+00  -1.7679371090691534e+00  -1.7679370977082638e+00  -1.7679370919411364e+00  -1.7679370895638742e+00  -1.7679370887382961e+00  -1.7679370888488481e+00  -1.7679370892664301e+00  -1.7679370897448539e+00  -1.7679370901963729e+00  -1.7679370905978942e+00  -1.7679370908209378e+00  -1.7679370909152778e+00  -1.7679370910220453e+00  -1.7679370910889212e+00  -1.7679370911194014e+00  -1.7679370911376027e+00  -1.7679370911431016e+00  -1.7679370911481693e+00  -1.7679370911509384e+00  -1.7679370911525121e+00  -1.7679370911533403e+00  -1.7679370911536414e+00  -1.7679370911535419e+00  -1.7679370911533037e+00  -1.7679370911533556e+00  -1.7679370911533465e+00  -1.7679370911533139e+00  -1.7679370911532910e+00  -1.7679370911532710e+00  -1.7679370911532806e+00  -1.7679370911532484e+00  -1.7679370911532484e+00  -1.7679370911532515e+00  -1.7679370911532422e+00  -1.7679370911532402e+00  -1.7679370911532362e+00  -1.7679370911532493e+00  -1.7679370911532402e+00  -1.7679370911532406e+00  -1.7679370911532433e+00  -1.7679370911532271e+00  -1.7679370911532304e+00  -1.7679370911532239e+00  -1.7679370911532331e+00  -1.7679370911532375e+00  -1.7679370911532439e+00  -1.7679370911532288e+00  -1.7679370911532295e+00  -1.7679370911532311e+00  -1.7679370911532397e+00  -1.7679370911532322e+00  -1.7679370911532242e+00  -1.7679370911532368e+00  -1.7679370911532384e+00  -1.7679370911532295e+00  -1.7679370911532339e+00  -1.7679370911532277e+00  -1.7679370911532351e+00  -1.7679370911532297e+00  -1.7679370911532322e+00  -1.7679370911532504e+00  -1.7679370911532379e+00  -1.7679370911532426e+00  -1.7679370911532555e+00  -1.7679370911532388e+00  -1.7679370911532606e+00  -1.7679370911532488e+00  -1.7679370911532477e+00  -1.7679370911532442e+00  -1.7679370911532533e+00  -1.7679370911532395e+00  -1.7679370911532399e+00  -1.7679370911532288e+00  -1.7679370911532202e+00  -1.7679370911532297e+00  -1.7679370911532342e+00  -1.7679370911532273e+00  -1.7679370911532251e+00  -1.7679370911532291e+00  -1.7679370911532140e+00  -1.7679370911531982e+00  -1.7679370911531933e+00  -1.7679370911531858e+00  -1.7679370911531653e+00  -1.7679370911531413e+00  -1.7679370911531231e+00  -1.7679370911531040e+00  -1.7679370911531329e+00  -1.7679370911531844e+00  -1.7679370911530097e+00  -1.7679370911530230e+00  -1.7679370911534351e+00  -1.7679370911545533e+00  -1.7679370911566590e+00  -1.7679370911613035e+00  -1.7679370911682293e+00  -1.7679370911841195e+00  -1.7679370912048564e+00  -1.7679370912511785e+00  -1.7679370913662174e+00  -1.7679370914679253e+00  -1.7679370916068688e+00  -1.7679370919556652e+00  -1.7679370923777189e+00  -1.7679370928662388e+00  -1.7679370932790652e+00  -1.7679370935732843e+00  -1.7679370931535641e+00  -1.7679370918571133e+00  -1.7679370873064124e+00  -1.7679370784551336e+00  -1.7679370630216518e+00  -1.7679370365313229e+00  -1.7679369952165853e+00  -1.7679369395052031e+00  -1.7679368668885611e+00  -1.7679367737568910e+00  -1.7679366443631248e+00  -1.7679365015817026e+00  -1.7679363804312882e+00  -1.7679362550246944e+00  -1.7679362122274798e+00  -1.7679363506845402e+00  -1.7679367385158855e+00  -1.7679377404089813e+00  -1.7679393585191812e+00  -1.7679423427094116e+00  -1.7679471560634610e+00  -1.7679544528489353e+00  -1.7679652214584212e+00  -1.7679808204965042e+00  -1.7680030859459961e+00  -1.7680313379535657e+00  -1.7680707176634669e+00  -1.7681155467877121e+00  -1.7681758762731010e+00  -1.7682280502280592e+00  -1.7682690488195525e+00  -1.7683049351874305e+00  -1.7682417695808395e+00  -1.7680813498969725e+00  -1.7677520956623163e+00  -1.7669532827236187e+00  -1.7658638265710449e+00  -1.7633063545385921e+00  -1.7595883315160130e+00  -1.7533861414832992e+00  -1.7408627380651627e+00  -1.7191072119459907e+00  -1.6784401851740560e+00  -1.6211233684868804e+00  -1.4780214515956462e+00  -1.4653325922283278e+00  1.3827721059838503e+00  -4.5141652633774028e+00  -2.8354340150431141e+00  -2.6228613330451793e+00  -2.4070248135265895e+00  -2.2914291173847023e+00  -2.2113922663600727e+00  -2.1531816309857716e+00  -2.1087120076577843e+00  -2.0752388095900285e+00  -2.0461635123969191e+00  -2.0248848925793275e+00  -2.0055567040146234e+00  -1.9896086697222353e+00  -1.9756859361084238e+00  -1.9636596481422810e+00  -1.9531021282378751e+00  -1.9437108754189529e+00  -1.9352695896657166e+00  -1.9277354185258260e+00  -1.9209460123546276e+00  -1.9147451479596285e+00  -1.9090906390541484e+00  -1.9038913321677624e+00  -1.8990840386451400e+00  -1.8945740089757992e+00  -1.8904905269093457e+00  -1.8866060513080634e+00  -1.8829822692524514e+00  -1.8795667450499089e+00  -1.8763495740126359e+00  -1.8733416159225125e+00  -1.8704447111258860e+00  -1.8677370160775075e+00  -1.8651389610153963e+00  -1.8626724761802529e+00  -1.8603088392823446e+00  -1.8580517885526275e+00  -1.8558885375054497e+00  -1.8538142141647427e+00  -1.8518225471848186e+00  -1.8499063195448131e+00  -1.8480613778168706e+00  -1.8462861832147139e+00  -1.8445767463871010e+00  -1.8429313874207800e+00  -1.8413459401196424e+00  -1.8398184429895330e+00  -1.8383453631853650e+00  -1.8369284266038963e+00  -1.8355682680801753e+00  -1.8342636987609082e+00  -1.8330110619524316e+00  -1.8318146658703425e+00  -1.8306746711595476e+00  -1.8295898474022330e+00  -1.8285685332939488e+00  -1.8276038321730812e+00  -1.8267007953866525e+00  -1.8258717999060672e+00  -1.8251069540264753e+00  -1.8244133966466296e+00  -1.8237948333267500e+00  -1.8232822300803750e+00  -1.8228330866949216e+00  -1.8224996378179610e+00  -1.8222642012313095e+00  -1.8221435883596384e+00  -1.8221506329037958e+00  -1.8222888124213845e+00  -1.8225813538254869e+00  -1.8230427683018233e+00  -1.8236359521154737e+00  -1.8245235647798057e+00  -1.8255631708419706e+00  -1.8268864468094355e+00  -1.8285157763424138e+00  -1.8304096167433985e+00  -1.8327704179148103e+00  -1.8353377163720996e+00  -1.8386514565531753e+00  -1.8423743489053803e+00  -1.8467061071634014e+00  -1.8519264120925698e+00  -1.8577500712551482e+00  -1.8649956198493449e+00  -1.8733837893747018e+00  -1.8832784317235485e+00  -1.8951826237117237e+00  -1.9095563114861607e+00  -1.9271376702880947e+00  -1.9486206243011623e+00  -1.9751868802387376e+00  -2.0090832919818005e+00  -2.0561036616114907e+00  -2.1150638685750609e+00  -2.2131174716846043e+00  -2.3393144354258153e+00  -2.5144947206000285e+00  -3.6888732887835691e+00  -3.4216898013476982e-01  -1.5007157138523728e+00  -1.4248655118509888e+00  -1.4985085013156749e+00  -1.5187950155891534e+00  -1.5174034581148057e+00  -1.5078233890199810e+00  -1.4924328565815868e+00  -1.4747277665249501e+00  -1.4556875979321069e+00  -1.4362521399869113e+00  -1.4164852778654784e+00  -1.3967830948472155e+00  -1.3772807642657554e+00  -1.3579654877270286e+00  -1.3389335841530545e+00  -1.3201975700414894e+00  -1.3017648467174070e+00  -1.2836122005473896e+00  -1.2657275598730482e+00  -1.2481150748785155e+00  -1.2307378437069831e+00  -1.2135922892635795e+00  -1.1966422861058845e+00  -1.1798930050492129e+00  -1.1633118027321006e+00  -1.1468943234076283e+00  -1.1306208026984741e+00  -1.1144872280730287e+00  -1.0984712926236975e+00  -1.0825696724537914e+00  -1.0667670545053070e+00  -1.0510581305535118e+00  -1.0354332067665755e+00  -1.0198832832127489e+00  -1.0044026856752486e+00  -9.8898287075353108e-01  -9.7361893145821388e-01  -9.5830384131741853e-01  -9.4303459180184845e-01  -9.2780335734803765e-01  -9.1261045643178473e-01  -8.9744741415262030e-01  -8.8231309272871350e-01  -8.6720434842865479e-01  -8.5211662552956557e-01  -8.3704946967711613e-01  -8.2199923262649943e-01  -8.0696453780679211e-01  -7.9194347432092560e-01  -7.7693367061749330e-01  -7.6193484779676679e-01  -7.4694447124318719e-01  -7.3196254175658781e-01  -7.1698704593831686e-01  -7.0201803927769557e-01  -6.8705344376755861e-01  -6.7209456422694214e-01  -6.5713828329356527e-01  -6.4218640572940677e-01  -6.2723703369716133e-01  -6.1229026843759471e-01  -5.9734582176616013e-01  -5.8240312838895369e-01  -5.6746180219219167e-01  -5.5252257877787925e-01  -5.3758359495114960e-01  -5.2264615776731949e-01  -5.0770961612318777e-01  -4.9277358762609869e-01  -4.7783863655080722e-01  -4.6290323426071589e-01  -4.4796956498663054e-01  -4.3303513912778291e-01  -4.1810170607376074e-01  -4.0316817331271676e-01  -3.8823537636903188e-01  -3.7330267384001870e-01  -3.5836931533552185e-01  -3.4343734150536381e-01  -3.2850436217403906e-01  -3.1357214590797433e-01  -2.9863963574584584e-01  -2.8370770385599348e-01  -2.6877572686650880e-01  -2.5384297917326093e-01  -2.3891154476742316e-01  -2.2397898143112854e-01  -2.0904703747339706e-01  -1.9411499396727799e-01  -1.7918333965270386e-01  -1.6425094105716931e-01  -1.4931922074761164e-01  -1.3438754027984917e-01  -1.1945496331661064e-01  -1.0452350064299050e-01  -8.9591509084763668e-02  -7.4659726045637545e-02  -5.9727413149374298e-02  -4.4795671814308227e-02  -2.9863795142559917e-02  -1.4931820166926140e-02  1.6366659540296133e-08  -3.7718985281263981e-08  7.1873972090056692e-08  1.2782176596207200e-07  -1.0897583654138868e-07  3.5555280133214790e-07  -2.0111407772384169e-07  1.1743198179662079e-07  -4.5154220702142336e-08  5.4483823123629475e-08  2.6044402609835105e-08  -1.7361701082294996e+00  -1.7835115557342851e+00  -1.6576279440195005e+00  -1.7952077286763137e+00  -1.7710549018253345e+00  -1.8026683228573464e+00  -1.7468234343329279e+00  -1.8115344627525118e+00  -1.8399051920982501e+00  -1.8681722749249987e+00  -1.8017853808849202e+00  -1.7869948775384692e+00  -1.7965909044239774e+00  -1.6762609651346341e+00  -1.8381465687536318e+00  -1.8805360434996574e+00  -1.8200531468264758e+00  -1.7581990974407562e+00  -1.8092136431549819e+00  -1.5069272124212656e+00  -1.8627380359568506e+00  -1.7679140513471405e+00  -1.9295341066329108e+00  -1.8092143325609964e+00  -1.7727928481371573e+00  -1.3829589401505427e+00  -1.7679370911532177e+00  -1.7679370911532224e+00  -9.7057249190801165e-02  -1.7679370911532140e+00  -2.0404634612639097e-01  -1.7679370911531720e+00  -1.7679370911507479e+00  -3.0859269005644491e-01  -1.7679361486551917e+00  -1.7679370911345762e+00  -1.7679357525615254e+00  -1.7679370914105696e+00  -1.7679370303792714e+00  -4.1294874644614216e-01  -5.1695005701394303e-01  -6.1753524201045451e-01  -1.2587437307334404e+00  -7.2323105102259277e-01  -1.1354978329708001e+00  -8.3308860006997021e-01  -1.0251219676541354e+00  -1.7679370917620136e+00  -1.8105892303669300e+00  -9.2013731654884545e-01  -1.9238138674887433e+00  -1.8332578715984169e+00  -1.8168763567888437e+00  -1.7774551003397057e+00  -1.6534100012916588e+00  -1.8133075952348661e+00  -1.8212552774610045e+00  -1.8914505256516743e+00  -1.8238496423486970e+00  -1.8517133533135368e+00  -1.7918294883233667e+00  -1.7851004148049121e+00  -1.8830415864050327e+00  -1.9075144533950630e+00  -1.8219374713769911e+00  -1.7861635552901440e+00  -1.7493612662677427e+00  -1.8292338442875271e+00  -1.7694980605542612e+00  -1.5558416071173735e+00  -1.7418709450487522e+00  -1.8408087440933938e+00  -1.8686119176022700e+00  -1.8435298488289371e+00  -1.0817106967193337e+00  -1.7679338312715187e+00  -7.7719701464076474e-01  -1.7679370911532282e+00  -1.1933726917555263e+00  -1.4861663480529760e-01  -1.7679370911532051e+00  -1.7679370913386969e+00  -2.5740944769016755e-01  -1.7679370911532257e+00  -1.7679109878982369e+00  -1.7194936637066467e+00  -3.6188581866273112e-01  -1.7679370911548551e+00  -6.7549347917220814e-01  -1.7679370911661576e+00  -4.6629477135640462e-01  -1.7679624121311406e+00  -1.7679370908647174e+00  -1.7679401165174731e+00  -5.6770057555477771e-01  -1.1972676761393888e+00  -7.7629919292573324e-01  -1.0789788690349269e+00  -1.7679370910700800e+00  -6.6852012820837248e-01  -1.7679370911515624e+00  -5.6761571498951857e-01  -1.7679370911531738e+00  -4.6400090898460938e-01  -1.7679370911532106e+00  -3.5905359947118026e-01  -1.7679370911532160e+00  -9.7400134501906743e-01  -2.5527092862305228e-01  -1.5265079142976293e-01  -1.7679371537216817e+00  -9.7046721255495560e-01  -1.7679370218396224e+00  -1.9803879559479334e+00  -1.7675958923394188e+00  -1.8173643902103043e+00  -1.8239060992069065e+00  -1.7682124263931152e+00  -1.3221988449745516e+00  -1.3151729209798366e+00  -1.7617295441021459e+00  -1.5856710094016355e+00  -1.7936456630637396e+00  -1.8638933295591931e+00  -1.4365293305706455e+00  -1.7821739849252984e+00  -1.4435165538137880e+00  -1.7679370647507109e+00  -8.7756736492058840e-01  -1.7806504178672165e+00  -1.7679371175033289e+00  -8.7775581676589531e-01  -1.7563486128417396e+00  -5.1813829294331322e-02  -1.7679370911532297e+00  -5.4809227333874520e-02  -1.7679370911532228e+00  -1.7629445963635269e+00  -1.8516277096997620e+00  -1.8176543500993658e+00  -1.7842588071499212e+00  -2.0486419661450541e+00  -1.7721515548455793e+00  -1.6860667317552838e+00  -1.8154878733248594e+00  -1.5511772713629965e+00  -1.5212881213267566e+00  -1.7208156783987782e+00  -1.7765426980465722e+00  -1.8254099458547091e+00  -1.9197387516578206e+00  -1.8373672074329803e+00  -1.8198232203144553e+00  -1.8069711890351365e+00  -1.8443732687548016e+00  -1.4973356237134525e+00  -1.7966913307522971e+00  -1.8770492991984820e+00  -1.9409931528380711e+00  -1.7120263722905640e+00  -1.7771431347516180e+00  -1.7683325623432935e+00  -1.8015841490906148e+00  -1.7679370953156017e+00  -1.1487867989622802e+00  -1.7679148337235384e+00  -8.1934044611282697e-01  -7.1524658203915314e-01  -1.7679370909375178e+00  -1.7679362482060299e+00  -1.0372315067888294e+00  -6.1038001493872285e-01  -1.7679370911432699e+00  -5.0570772115375950e-01  -1.7679370911530721e+00  -1.7679370911532351e+00  -4.0115766111670137e-01  -1.7679370911532195e+00  -1.0493684933483863e-01  -1.7679370911532022e+00  -1.8221741727824794e+00  -9.2880605600126565e-01  -1.7679372013596881e+00  -1.7679370911533414e+00  -1.8941108711697657e-01  -1.2435243896163708e+00  -1.7678832459647364e+00  -1.7679370911532195e+00  -1.7679370911615697e+00  -2.9403024888133306e-01  -1.7679370913531416e+00  -1.7679884920687383e+00  -2.9657883312516808e-01  -1.7679593720851958e+00  -1.7679370871812277e+00  -1.7679380567456489e+00  -3.9915291480127874e-01  -5.0338132500255428e-01  -6.3189794126019749e-01  -1.2445561560725324e+00  -7.3530723583753466e-01  -1.7679369794826214e+00  -1.1524186336758786e+00  -8.1723657710666164e-01  -1.0399424849881738e+00  -1.7679370911532164e+00  -1.9202631208831888e-01  -9.3194639780775923e-01  -1.3690510144298884e+00  -1.7679370911532197e+00  -1.0557606048328877e-01  -1.3804784061853359e+00  -1.8216377589571262e+00  -1.8510605636408024e+00  -1.8587966748886793e+00  -1.6529998988817853e+00  -1.7834332146731158e+00  -1.7662676238850428e+00  -1.7492373711202187e+00  -1.7553775992532183e+00  -1.7693739820135594e+00  -1.8048526839079166e+00  -1.8119961037221570e+00  -1.7824968555767289e+00  -1.8191250253638860e+00  -1.8838235723257226e+00  -1.8580666250775584e+00  -1.8960252271779425e+00  -2.1451990508817365e+00  -1.8335911854315869e+00  -1.9689649783010224e+00  -1.7618301926917159e+00  -1.6917939925550560e+00  -1.8291743901018978e+00  -1.7464385180116981e+00  -1.8496297961916781e+00  -1.8324437962411093e+00  -2.1795956110183434e+00  -1.8376595540718552e+00  -1.7857409453716193e+00  -1.7693176952598797e+00  -1.8163548709393709e+00  -1.8092374856561795e+00  -1.7679370911532244e+00  -4.0980636066480954e-02  -1.4928223581555122e+00  -1.7812582725918999e+00  -1.7000749990133988e+00  -1.8523620142334167e+00  -1.8423515356211553e+00  -1.8092885517958226e+00  -1.9046112648958655e+00  -1.7914926255236312e+00  -1.6149401166888533e+00  -1.7832414089454229e+00  -1.7876282529190557e+00  -1.5328661710686480e+00  -1.8065292901507610e+00  -1.6101135179776105e+00  -1.9719935210321964e+00  -1.9388139153281689e+00  -1.8026097064631961e+00  -1.8608350852163611e+00  -1.8347190793185957e+00  -1.8262529433100889e+00  -1.8044159382052354e+00  -1.8330962061290090e+00  -1.7280445611632620e+00  -5.9132495508849048e-01  -1.1113732486555488e+00  -5.4203505193647261e-01  -4.3609290620046776e-01  -3.3161348945628027e-01  -2.2713995676807622e-01  -1.7679479167767174e+00  -1.767937091674