<?xml version="1.0"?>
<VTKFile type="UnstructuredGrid"  version="0.1"  >
<UnstructuredGrid>
<Piece  NumberOfPoints="4882" NumberOfCells="9241">
<Points>
<DataArray  type="Float64"  NumberOfComponents="3"  format="ascii">6 0.1 0  8 0.1 0  8 0.22 0  7.1 0.22 0  7 0.22 0  6 0.22 0  6.01 0.1 0  6.02 0.1 0  6.03 0.1 0  6.04 0.1 0  6.05 0.1 0  6.06 0.1 0  6.07 0.1 0  6.08 0.1 0  6.09 0.1 0  6.1 0.1 0  6.109999999999999 0.1 0  6.12 0.1 0  6.13 0.1 0  6.14 0.1 0  6.149999999999999 0.1 0  6.16 0.1 0  6.17 0.1 0  6.18 0.1 0  6.19 0.1 0  6.199999999999999 0.1 0  6.21 0.1 0  6.22 0.1 0  6.23 0.1 0  6.239999999999999 0.1 0  6.25 0.1 0  6.26 0.1 0  6.27 0.1 0  6.279999999999999 0.1 0  6.289999999999999 0.1 0  6.3 0.1 0  6.31 0.1 0  6.319999999999999 0.1 0  6.329999999999999 0.1 0  6.34 0.1 0  6.35 0.1 0  6.359999999999999 0.1 0  6.369999999999999 0.1 0  6.379999999999999 0.1 0  6.389999999999999 0.1 0  6.399999999999999 0.1 0  6.409999999999999 0.1 0  6.419999999999999 0.1 0  6.429999999999999 0.1 0  6.44 0.1 0  6.449999999999999 0.1 0  6.459999999999999 0.1 0  6.469999999999999 0.1 0  6.479999999999999 0.1 0  6.489999999999999 0.1 0  6.499999999999999 0.1 0  6.509999999999999 0.1 0  6.519999999999999 0.1 0  6.529999999999998 0.1 0  6.539999999999999 0.1 0  6.549999999999999 0.1 0  6.559999999999999 0.1 0  6.569999999999999 0.1 0  6.579999999999998 0.1 0  6.589999999999998 0.1 0  6.599999999999999 0.1 0  6.609999999999999 0.1 0  6.619999999999998 0.1 0  6.629999999999998 0.1 0  6.639999999999999 0.1 0  6.649999999999999 0.1 0  6.659999999999998 0.1 0  6.669999999999998 0.1 0  6.679999999999999 0.1 0  6.689999999999999 0.1 0  6.699999999999998 0.1 0  6.709999999999998 0.1 0  6.719999999999999 0.1 0  6.729999999999999 0.1 0  6.739999999999998 0.1 0  6.749999999999998 0.1 0  6.759999999999998 0.1 0  6.769999999999999 0.1 0  6.779999999999998 0.1 0  6.789999999999998 0.1 0  6.799999999999999 0.1 0  6.809999999999999 0.1 0  6.819999999999999 0.1 0  6.829999999999998 0.1 0  6.839999999999999 0.1 0  6.849999999999999 0.1 0  6.859999999999999 0.1 0  6.869999999999998 0.1 0  6.879999999999999 0.1 0  6.889999999999999 0.1 0  6.899999999999999 0.1 0  6.909999999999998 0.1 0  6.919999999999998 0.1 0  6.929999999999999 0.1 0  6.939999999999999 0.1 0  6.949999999999998 0.1 0  6.959999999999999 0.1 0  6.969999999999999 0.1 0  6.979999999999999 0.1 0  6.989999999999998 0.1 0  6.999999999999999 0.1 0  7.009999999999999 0.1 0  7.019999999999999 0.1 0  7.029999999999999 0.1 0  7.039999999999999 0.1 0  7.049999999999999 0.1 0  7.059999999999999 0.1 0  7.069999999999999 0.1 0  7.079999999999998 0.1 0  7.089999999999999 0.1 0  7.099999999999999 0.1 0  7.109999999999999 0.1 0  7.119999999999999 0.1 0  7.129999999999999 0.1 0  7.139999999999999 0.1 0  7.149999999999999 0.1 0  7.159999999999999 0.1 0  7.169999999999999 0.1 0  7.179999999999999 0.1 0  7.19 0.1 0  7.199999999999999 0.1 0  7.209999999999999 0.1 0  7.219999999999999 0.1 0  7.229999999999999 0.1 0  7.239999999999998 0.1 0  7.249999999999999 0.1 0  7.259999999999999 0.1 0  7.27 0.1 0  7.279999999999999 0.1 0  7.289999999999999 0.1 0  7.299999999999999 0.1 0  7.309999999999999 0.1 0  7.319999999999999 0.1 0  7.329999999999999 0.1 0  7.339999999999999 0.1 0  7.35 0.1 0  7.359999999999999 0.1 0  7.369999999999999 0.1 0  7.379999999999999 0.1 0  7.389999999999999 0.1 0  7.399999999999999 0.1 0  7.409999999999999 0.1 0  7.419999999999999 0.1 0  7.43 0.1 0  7.44 0.1 0  7.449999999999999 0.1 0  7.459999999999999 0.1 0  7.469999999999999 0.1 0  7.48 0.1 0  7.489999999999999 0.1 0  7.499999999999999 0.1 0  7.51 0.1 0  7.52 0.1 0  7.529999999999999 0.1 0  7.539999999999999 0.1 0  7.549999999999999 0.1 0  7.56 0.1 0  7.569999999999999 0.1 0  7.579999999999999 0.1 0  7.59 0.1 0  7.6 0.1 0  7.609999999999999 0.1 0  7.619999999999999 0.1 0  7.629999999999999 0.1 0  7.64 0.1 0  7.649999999999999 0.1 0  7.66 0.1 0  7.67 0.1 0  7.68 0.1 0  7.69 0.1 0  7.699999999999999 0.1 0  7.709999999999999 0.1 0  7.72 0.1 0  7.73 0.1 0  7.739999999999999 0.1 0  7.75 0.1 0  7.76 0.1 0  7.77 0.1 0  7.779999999999999 0.1 0  7.789999999999999 0.1 0  7.8 0.1 0  7.81 0.1 0  7.82 0.1 0  7.83 0.1 0  7.84 0.1 0  7.85 0.1 0  7.859999999999999 0.1 0  7.869999999999999 0.1 0  7.88 0.1 0  7.89 0.1 0  7.899999999999999 0.1 0  7.91 0.1 0  7.92 0.1 0  7.93 0.1 0  7.94 0.1 0  7.949999999999999 0.1 0  7.96 0.1 0  7.97 0.1 0  7.98 0.1 0  7.99 0.1 0  8 0.1099999999999788 0  8 0.1199999999999512 0  8 0.1299999999999173 0  8 0.1399999999998952 0  8 0.1499999999998641 0  8 0.1599999999998293 0  8 0.1699999999998686 0  8 0.1799999999998971 0  8 0.1899999999999147 0  8 0.1999999999999323 0  8 0.2099999999999607 0  7.990085836355354 0.22 0  7.980171672710533 0.22 0  7.970257509065752 0.22 0  7.960343345421177 0.22 0  7.950429181776419 0.22 0  7.940515018131598 0.22 0  7.930600854486929 0.22 0  7.920686690842305 0.22 0  7.910772527197484 0.22 0  7.900858363552682 0.22 0  7.890944199908105 0.22 0  7.88103003626337 0.22 0  7.87111587261855 0.22 0  7.861201708973858 0.22 0  7.851287545329257 0.22 0  7.841373381684436 0.22 0  7.831459218039615 0.22 0  7.821545054395035 0.22 0  7.811630890750322 0.22 0  7.801716727105502 0.22 0  7.791802563460787 0.22 0  7.781888399816208 0.22 0  7.771974236171387 0.22 0  7.762060072526567 0.22 0  7.752145908881964 0.22 0  7.742231745237274 0.22 0  7.732317581592453 0.22 0  7.722403417947716 0.22 0  7.712489254303141 0.22 0  7.702575090658339 0.22 0  7.692660927013642 0.22 0  7.682746763369046 0.22 0  7.672832599724225 0.22 0  7.662918436079405 0.22 0  7.653004272434819 0.22 0  7.643090108790111 0.22 0  7.633175945145291 0.22 0  7.623261781500571 0.22 0  7.613347617855996 0.22 0  7.603433454211177 0.22 0  7.593519290566356 0.22 0  7.583605126921748 0.22 0  7.573690963277063 0.22 0  7.563776799632242 0.22 0  7.5538626359875 0.22 0  7.543948472342924 0.22 0  7.534034308698129 0.22 0  7.524120145053308 0.22 0  7.514205981408487 0.22 0  7.504291817763667 0.22 0  7.494377654118846 0.22 0  7.484463490474027 0.22 0  7.474549326829206 0.22 0  7.464635163184385 0.22 0  7.454720999539565 0.22 0  7.444806835894744 0.22 0  7.434892672249925 0.22 0  7.424978508605104 0.22 0  7.415064344960284 0.22 0  7.405150181315463 0.22 0  7.395236017670642 0.22 0  7.385321854025823 0.22 0  7.375407690381002 0.22 0  7.365493526736182 0.22 0  7.355579363091362 0.22 0  7.345665199446541 0.22 0  7.335751035801721 0.22 0  7.3258368721569 0.22 0  7.315922708512131 0.22 0  7.306008544867555 0.22 0  7.296094381222787 0.22 0  7.286180217577966 0.22 0  7.276266053933307 0.22 0  7.266351890288672 0.22 0  7.256437726643852 0.22 0  7.24652356299906 0.22 0  7.236609399354484 0.22 0  7.226695235709738 0.22 0  7.216781072064918 0.22 0  7.206866908420237 0.22 0  7.196952744775624 0.22 0  7.187038581130803 0.22 0  7.177124417485989 0.22 0  7.167210253841413 0.22 0  7.15729609019669 0.22 0  7.147381926551869 0.22 0  7.137467762907166 0.22 0  7.127609887754289 0.22 0  7.119267423713023 0.22 0  7.112902479254871 0.22 0  7.108462887920409 0.22 0  7.105141639945627 0.22 0  7.101184123304556 0.22 0  7.09900000000009 0.22 0  7.097999999999909 0.22 0  7.09699999999975 0.22 0  7.095999999999861 0.22 0  7.09499999999993 0.22 0  7.093999999999729 0.22 0  7.092999999999591 0.22 0  7.091999999999723 0.22 0  7.090999999999771 0.22 0  7.089999999999549 0.22 0  7.088999999999444 0.22 0  7.087999999999584 0.22 0  7.086999999999611 0.22 0  7.085999999999368 0.22 0  7.084999999999305 0.22 0  7.083999999999445 0.22 0  7.082999999999451 0.22 0  7.081999999999375 0.22 0  7.080999999999514 0.22 0  7.079999999999653 0.22 0  7.078999999999639 0.22 0  7.077999999999584 0.22 0  7.076999999999722 0.22 0  7.075999999999861 0.22 0  7.074999999999826 0.22 0  7.073999999999792 0.22 0  7.07299999999993 0.22 0  7.072000000000069 0.22 0  7.071000000000014 0.22 0  7.069999999999999 0.22 0  7.069000000000139 0.22 0  7.068000000000278 0.22 0  7.067000000000201 0.22 0  7.066000000000208 0.22 0  7.065000000000347 0.22 0  7.064000000000472 0.22 0  7.063000000000389 0.22 0  7.062000000000416 0.22 0  7.061000000000555 0.22 0  7.060000000000451 0.22 0  7.059000000000228 0.22 0  7.058000000000278 0.22 0  7.057000000000409 0.22 0  7.05600000000027 0.22 0  7.055000000000069 0.22 0  7.054000000000139 0.22 0  7.05300000000025 0.22 0  7.05200000000009 0.22 0  7.05099999999991 0.22 0  7.05 0.22 0  7.04900000000009 0.22 0  7.047999999999909 0.22 0  7.04699999999975 0.22 0  7.045999999999861 0.22 0  7.044999999999931 0.22 0  7.04399999999973 0.22 0  7.042999999999591 0.22 0  7.041999999999723 0.22 0  7.040999999999771 0.22 0  7.039999999999549 0.22 0  7.038999999999445 0.22 0  7.037999999999584 0.22 0  7.036999999999612 0.22 0  7.035999999999528 0.22 0  7.034999999999653 0.22 0  7.033999999999792 0.22 0  7.032999999999799 0.22 0  7.031999999999723 0.22 0  7.030999999999861 0.22 0  7.03 0.22 0  7.028999999999987 0.22 0  7.02799999999993 0.22 0  7.027000000000069 0.22 0  7.026000000000209 0.22 0  7.025000000000174 0.22 0  7.024000000000139 0.22 0  7.023000000000278 0.22 0  7.022000000000416 0.22 0  7.021000000000361 0.22 0  7.020000000000347 0.22 0  7.019000000000486 0.22 0  7.018000000000624 0.22 0  7.017000000000548 0.22 0  7.016000000000555 0.22 0  7.015000000000694 0.22 0  7.014000000000632 0.22 0  7.013000000000389 0.22 0  7.012000000000416 0.22 0  7.011000000000555 0.22 0  7.010000000000451 0.22 0  7.009000000000229 0.22 0  7.008000000000278 0.22 0  7.007000000000409 0.22 0  7.00600000000027 0.22 0  7.005000000000069 0.22 0  7.004000000000139 0.22 0  7.00300000000025 0.22 0  7.00200000000009 0.22 0  7.00099999999991 0.22 0  6.994809698470582 0.22 0  6.991569006236496 0.22 0  6.987074728859082 0.22 0  6.980583540116057 0.22 0  6.972279556173985 0.22 0  6.962550869064059 0.22 0  6.952627664228347 0.22 0  6.942704459392635 0.22 0  6.932781254556923 0.22 0  6.922858049721211 0.22 0  6.912934844885499 0.22 0  6.903011640049788 0.22 0  6.893088435214075 0.22 0  6.883165230378363 0.22 0  6.873242025542651 0.22 0
[...]
<PointData  Scalars="pressure"> 
<DataArray  type="Float64"  Name="pressure"  format="ascii">5.7084113526697054e-08  -1.9639844024069533e+00  -1.9639844024069599e+00  -4.7684080837343599e+00  -2.3336286669850872e+00  6.5045573355666102e-08  -1.5050913132907870e-02  -3.0109727314889131e-02  -4.5176354079197865e-02  -6.0249736670123732e-02  -7.5331064317916557e-02  -9.0420737167734883e-02  -1.0551770777544543e-01  -1.2062377773420158e-01  -1.3573866886452343e-01  -1.5086177078708507e-01  -1.6599506243589693e-01  -1.8113835003750958e-01  -1.9629222135471047e-01  -2.1145692320106654e-01  -2.2663411425018171e-01  -2.4182345705062369e-01  -2.5702566429785162e-01  -2.7224284948632310e-01  -2.8747397376508915e-01  -3.0272141448456374e-01  -3.1798504301224173e-01  -3.3326809887708370e-01  -3.4856962358891169e-01  -3.6389104701639202e-01  -3.7923481556533067e-01  -3.9460064987196519e-01  -4.0999143453933268e-01  -4.2540710119270264e-01  -4.4085237209465311e-01  -4.5632598942031261e-01  -4.7183074208095338e-01  -4.8736835760288644e-01  -5.0294051876827661e-01  -5.1855019492272825e-01  -5.3419742870635845e-01  -5.4988881027907843e-01  -5.6562355131499642e-01  -5.8140352828802655e-01  -5.9723326763411422e-01  -6.1311381551791144e-01  -6.2904947137581890e-01  -6.4504315648675326e-01  -6.6109703307872048e-01  -6.7721400757042050e-01  -6.9339772011140755e-01  -7.0965332103207168e-01  -7.2598104911758454e-01  -7.4238763261851015e-01  -7.5887541979427042e-01  -7.7544847653694915e-01  -7.9210998623057338e-01  -8.0886535780746460e-01  -8.2571839373640077e-01  -8.4267372177766597e-01  -8.5973409574905002e-01  -8.7691010947301418e-01  -8.9419542522123296e-01  -9.1160656036016896e-01  -9.2913957604743780e-01  -9.4680861332731492e-01  -9.6460625790792509e-01  -9.8255064496967126e-01  -1.0006383962651266e+00  -1.0188786359743867e+00  -1.0372763380638568e+00  -1.0558346786633408e+00  -1.0745670468886337e+00  -1.0934657323195558e+00  -1.1125472979015816e+00  -1.1318152167394606e+00  -1.1512727111848207e+00  -1.1709269200261261e+00  -1.1907837352874830e+00  -1.2108512904386848e+00  -1.2311255484349344e+00  -1.2516236656880444e+00  -1.2723408321917415e+00  -1.2932921539088560e+00  -1.3144687339745267e+00  -1.3358839296253797e+00  -1.3575442937105111e+00  -1.3794437258035790e+00  -1.4015971430313829e+00  -1.4240042949692204e+00  -1.4466848958376863e+00  -1.4696514512959873e+00  -1.4929298416431278e+00  -1.5165589424486650e+00  -1.5406046690292310e+00  -1.5651691127985203e+00  -1.5903844282289819e+00  -1.6163418616392931e+00  -1.6433273546593901e+00  -1.6714668627597240e+00  -1.7009301525004363e+00  -1.7319592623016575e+00  -1.7641809332050922e+00  -1.7973943689590459e+00  -1.8313958593386093e+00  -1.8645002627940932e+00  -1.8962046198237501e+00  -1.9253380269031162e+00  -1.9511373781770820e+00  -1.9722344210520086e+00  -1.9888964752590419e+00  -2.0005112689605711e+00  -2.0070878583947187e+00  -2.0092922545006493e+00  -2.0077621650718642e+00  -2.0037770286773893e+00  -1.9976588202302470e+00  -1.9910907327674452e+00  -1.9846404866069616e+00  -1.9788928025668098e+00  -1.9741988499863603e+00  -1.9705901750149371e+00  -1.9679216117847349e+00  -1.9661035297156209e+00  -1.9649561227258385e+00  -1.9642154110817431e+00  -1.9638600421329333e+00  -1.9636937405004653e+00  -1.9636265632278385e+00  -1.9636503976821331e+00  -1.9636953488837656e+00  -1.9637516484708295e+00  -1.9638054473009439e+00  -1.9638530494576498e+00  -1.9638902384862371e+00  -1.9639202772970759e+00  -1.9639422851902841e+00  -1.9639577969550306e+00  -1.9639684140883586e+00  -1.9639754155320446e+00  -1.9639800701588825e+00  -1.9639827160517740e+00  -1.9639842339249540e+00  -1.9639850146857822e+00  -1.9639853033569938e+00  -1.9639853719419971e+00  -1.9639852639769237e+00  -1.9639851246578006e+00  -1.9639849780971810e+00  -1.9639848168426695e+00  -1.9639846975222193e+00  -1.9639846074209586e+00  -1.9639845329666858e+00  -1.9639844797175838e+00  -1.9639844432768154e+00  -1.9639844218554232e+00  -1.9639844095272092e+00  -1.9639844032988993e+00  -1.9639844007424330e+00  -1.9639843998598456e+00  -1.9639843999793367e+00  -1.9639844004245059e+00  -1.9639844009346612e+00  -1.9639844014133814e+00  -1.9639844018349046e+00  -1.9639844020767654e+00  -1.9639844021676243e+00  -1.9639844022549595e+00  -1.9639844023192254e+00  -1.9639844023585120e+00  -1.9639844023872366e+00  -1.9639844023955058e+00  -1.9639844024026905e+00  -1.9639844024054194e+00  -1.9639844024068274e+00  -1.9639844024075426e+00  -1.9639844024075825e+00  -1.9639844024076005e+00  -1.9639844024074464e+00  -1.9639844024073161e+00  -1.9639844024072055e+00  -1.9639844024071182e+00  -1.9639844024070674e+00  -1.9639844024070270e+00  -1.9639844024070230e+00  -1.9639844024069817e+00  -1.9639844024069777e+00  -1.9639844024069815e+00  -1.9639844024069693e+00  -1.9639844024069677e+00  -1.9639844024069646e+00  -1.9639844024069786e+00  -1.9639844024069690e+00  -1.9639844024069681e+00  -1.9639844024069708e+00  -1.9639844024069528e+00  -1.9639844024069577e+00  -1.9639844024069493e+00  -1.9639844024069604e+00  -1.9639844024069664e+00  -1.9639844024069721e+00  -1.9639844024069577e+00  -1.9639844024069573e+00  -1.9639844024069604e+00  -1.9639844024069699e+00  -1.9639844024069621e+00  -1.9639844024069533e+00  -1.9639844024069670e+00  -1.9639844024069668e+00  -1.9639844024069593e+00  -1.9639844024069621e+00  -1.9639844024069557e+00  -1.9639844024069637e+00  -1.9639844024069579e+00  -1.9639844024069602e+00  -1.9639844024069812e+00  -1.9639844024069666e+00  -1.9639844024069726e+00  -1.9639844024069859e+00  -1.9639844024069688e+00  -1.9639844024069906e+00  -1.9639844024069786e+00  -1.9639844024069788e+00  -1.9639844024069741e+00  -1.9639844024069848e+00  -1.9639844024069706e+00  -1.9639844024069708e+00  -1.9639844024069588e+00  -1.9639844024069499e+00  -1.9639844024069593e+00  -1.9639844024069666e+00  -1.9639844024069586e+00  -1.9639844024069566e+00  -1.9639844024069608e+00  -1.9639844024069424e+00  -1.9639844024069222e+00  -1.9639844024069104e+00  -1.9639844024068875e+00  -1.9639844024068427e+00  -1.9639844024067901e+00  -1.9639844024067135e+00  -1.9639844024065860e+00  -1.9639844024064474e+00  -1.9639844024063251e+00  -1.9639844024062783e+00  -1.9639844024064113e+00  -1.9639844024071800e+00  -1.9639844024089981e+00  -1.9639844024124458e+00  -1.9639844024198219e+00  -1.9639844024316253e+00  -1.9639844024507160e+00  -1.9639844024730664e+00  -1.9639844025166704e+00  -1.9639844026077966e+00  -1.9639844027066420e+00  -1.9639844028689264e+00  -1.9639844032444911e+00  -1.9639844036931902e+00  -1.9639844042109464e+00  -1.9639844046492707e+00  -1.9639844049627517e+00  -1.9639844045151060e+00  -1.9639844031316358e+00  -1.9639843982303016e+00  -1.9639843886502955e+00  -1.9639843718787995e+00  -1.9639843429143313e+00  -1.9639842974408543e+00  -1.9639842359094319e+00  -1.9639841554599573e+00  -1.9639840519726908e+00  -1.9639839072196525e+00  -1.9639837476166602e+00  -1.9639836124108980e+00  -1.9639834738779096e+00  -1.9639834295567813e+00  -1.9639835930357696e+00  -1.9639840423580539e+00  -1.9639851938863044e+00  -1.9639870547402352e+00  -1.9639904743310614e+00  -1.9639959860885634e+00  -1.9640043284079560e+00  -1.9640166088424043e+00  -1.9640343436449952e+00  -1.9640596011074867e+00  -1.9640915039610858e+00  -1.9641357530422119e+00  -1.9641857348364913e+00  -1.9642525427813020e+00  -1.9643092979587156e+00  -1.9643514494452912e+00  -1.9643862783118369e+00  -1.9643071808348314e+00  -1.9641167361097873e+00  -1.9637362102091378e+00  -1.9628306786157814e+00  -1.9616102693348099e+00  -1.9587896689747426e+00  -1.9547238016981701e+00  -1.9480270314175760e+00  -1.9346873322875182e+00  -1.9117960830989100e+00  -1.8695159182147740e+00  -1.8106936162801610e+00  -1.6644256537872182e+00  -1.6527085614460637e+00  1.2284487870831751e+00  -4.7451322902759960e+00  -3.0588052358201421e+00  -2.8420560642234451e+00  -2.6233766761988271e+00  -2.5058608485809883e+00  -2.4243480991041473e+00  -2.3649704685442545e+00  -2.3195383886005008e+00  -2.2852783323103729e+00  -2.2554898821006972e+00  -2.2336428037845888e+00  -2.2137750710860549e+00  -2.1973581007776741e+00  -2.1830091613968099e+00  -2.1705949938825571e+00  -2.1596841819628994e+00  -2.1499636698323625e+00  -2.1412164840109820e+00  -2.1333998233862395e+00  -2.1263452772159059e+00  -2.1198950562360031e+00  -2.1140052269355616e+00  -2.1085832744743431e+00  -2.1035635002628106e+00  -2.0988502709879318e+00  -2.0945761847645303e+00  -2.0905061679084960e+00  -2.0867051981348479e+00  -2.0831189777621950e+00  -2.0797376096064455e+00  -2.0765722750425484e+00  -2.0735211517308154e+00  -2.0706662854130866e+00  -2.0679244994385231e+00  -2.0653189434508725e+00  -2.0628200333717293e+00  -2.0604314787877591e+00  -2.0581403393658042e+00  -2.0559413772265751e+00  -2.0538283565173647e+00  -2.0517935906044635e+00  -2.0498329758054967e+00  -2.0479448811167869e+00  -2.0461253319111208e+00  -2.0443723954243112e+00  -2.0426820102629875e+00  -2.0410518132167184e+00  -2.0394783949389361e+00  -2.0379635112387695e+00  -2.0365078754099182e+00  -2.0351101369583877e+00  -2.0337665170934254e+00  -2.0324816199326512e+00  -2.0312554293269045e+00  -2.0300867880250095e+00  -2.0289843338802509e+00  -2.0279407621541603e+00  -2.0269613948907446e+00  -2.0260591500862315e+00  -2.0252236221861826e+00  -2.0244620970290144e+00  -2.0237785356901292e+00  -2.0232052405398688e+00  -2.0226974978151993e+00  -2.0223098782363707e+00  -2.0220239425221238e+00  -2.0218569427765978e+00  -2.0218221953619637e+00  -2.0219232176796260e+00  -2.0221837553391770e+00  -2.0226192412585653e+00  -2.0231907264200779e+00  -2.0240660255337857e+00  -2.0250986897293988e+00  -2.0264235071981243e+00  -2.0280638607742332e+00  -2.0299770226567664e+00  -2.0323712819559168e+00  -2.0349779650300444e+00  -2.0383507921510562e+00  -2.0421460837436172e+00  -2.0465650833823665e+00  -2.0518976840243637e+00  -2.0578482154269873e+00  -2.0652540488031148e+00  -2.0738326306863457e+00  -2.0839509290605411e+00  -2.0961232118867943e+00  -2.1108178882246817e+00  -2.1287836420234898e+00  -2.1507338299563044e+00  -2.1778524732625146e+00  -2.2124317673266272e+00  -2.2603280589099324e+00  -2.3203836696255009e+00  -2.4199262754782214e+00  -2.5480148159316989e+00  -2.7264522504831565e+00  -3.9052500232374365e+00  -4.9402350436815412e-01  -1.6838345585009251e+00  -1.6017341723831595e+00  -1.6763093412761123e+00  -1.6955854043411156e+00  -1.6923058596149900e+00  -1.6803162643110230e+00  -1.6620467095706348e+00  -1.6411661934851847e+00  -1.6186954992912768e+00  -1.5956366981820336e+00  -1.5720588267046873e+00  -1.5484140101278816e+00  -1.5248603885019343e+00  -1.5013984550022921e+00  -1.4781586765022232e+00  -1.4551623967896061e+00  -1.4324391800394773e+00  -1.4099780012855350e+00  -1.3877836550212792e+00  -1.3658716567679843e+00  -1.3442143989318527e+00  -1.3228239554946015e+00  -1.3016683594555645e+00  -1.2807676812604454e+00  -1.2600936339411668e+00  -1.2396528578756967e+00  -1.2194282157129952e+00  -1.1994275846210050e+00  -1.1796295373908454e+00  -1.1600374113268963e+00  -1.1406387771540625e+00  -1.1214325457684142e+00  -1.1024132369919273e+00  -1.0835719088116440e+00  -1.0649063432170063e+00  -1.0464089908476217e+00  -1.0280734633138244e+00  -1.0098938749775985e+00  -9.9187037915687792e-01  -9.7398610640200400e-01  -9.5625322134399571e-01  -9.3865015541213637e-01  -9.2118128731854398e-01  -9.0383847394249150e-01  -8.8661346601919011e-01  -8.6951067644028524e-01  -8.5251493461044670e-01  -8.3562838215549839e-01  -8.1884830248854101e-01  -8.0216203176925727e-01  -7.8557363652964285e-01  -7.6907416333727219e-01  -7.5266145410050445e-01  -7.3633022200294029e-01  -7.2007975419984438e-01  -7.0390265021945708e-01  -6.8779836979342146e-01  -6.7176034438994492e-01  -6.5578839537899625e-01  -6.3987807815395226e-01  -6.2402441598430969e-01  -6.0822956719940147e-01  -5.9248700927353659e-01  -5.7679352204965395e-01  -5.6114824633228222e-01  -5.4554686041108003e-01  -5.2998745948730108e-01  -5.1447065397498082e-01  -4.9899070513647953e-01  -4.8354721554893682e-01  -4.6813654189751885e-01  -4.5275902548962177e-01  -4.3741035707415199e-01  -4.2209088265604100e-01  -4.0679821556836099e-01  -3.9153070229153591e-01  -3.7628744623804056e-01  -3.6106556604058804e-01  -3.4586586654385992e-01  -3.3068473540689619e-01  -3.1552292307449636e-01  -3.0037848756199553e-01  -2.8525065270372091e-01  -2.7013861023402735e-01  -2.5504022372819068e-01  -2.3995677094982848e-01  -2.2488512081534640e-01  -2.0982609176640912e-01  -1.9477892343607378e-01  -1.7974266435503347e-01  -1.6471634551323133e-01  -1.4970017713881439e-01  -1.3469381614989553e-01  -1.1969512252359885e-01  -1.0470620150931619e-01  -8.9725010525214394e-02  -7.4752322231176116e-02  -5.9786495694542190e-02  -4.4828940704407787e-02  -2.9878495971000039e-02  -1.4935316200180692e-02  1.9065944135516975e-07  4.9415394763954459e-07  6.1482955818941551e-07  4.4843699039563813e-07  8.6520821591854491e-07  5.4729745131241794e-07  5.0418423352027331e-08  2.7747817331603478e-07  7.3297355749012536e-07  5.5357945598203040e-07  1.9779311967306142e-07  -1.9299194565636948e+00  -1.9805497597784498e+00  -1.8468091434513028e+00  -1.9933601612491216e+00  -1.9678791528813553e+00  -2.0017021267194104e+00  -1.9422177801515319e+00  -2.0110941001725449e+00  -2.0412371290804470e+00  -2.0710518792824519e+00  -2.0006107627106351e+00  -1.9865143387114612e+00  -1.9947438230360850e+00  -1.8685141228697977e+00  -2.0394108749194002e+00  -2.0840437817871287e+00  -2.0201102654486949e+00  -1.9537440547895932e+00  -2.0074334768847240e+00  -1.6782777670109841e+00  -2.0653956049544959e+00  -1.9639592143419471e+00  -2.1349594337277975e+00  -2.0070659742676669e+00  -1.9688159481187404e+00  -1.5318589632509616e+00  -1.9639844024069453e+00  -1.9639844024069488e+00  -9.7214715151725709e-02  -1.9639844024069391e+00  -2.0478568617243206e-01  -1.9639844024069177e+00  -1.9639844024025992e+00  -3.1047096488380227e-01  -1.9639835531700580e+00  -1.9639844023885062e+00  -1.9639828262330368e+00  -1.9639844026794486e+00  -1.9639843333721361e+00  -4.1681099661054738e-01  -5.2406670359501728e-01  -6.2958225060982853e-01  -1.3791318618242503e+00  -7.4313055357808488e-01  -1.2254883058662227e+00  -8.6502563313525638e-01  -1.0899104772606993e+00  -1.9639844030450453e+00  -2.0097442259170961e+00  -9.6502720662951536e-01  -2.1291153167759846e+00  -2.0341816401786388e+00  -2.0165840343383561e+00  -1.9742501917905666e+00  -1.8407027162971703e+00  -2.0123393165212669e+00  -2.0203017705099366e+00  -2.0961181331960304e+00  -2.0241436908100008e+00  -2.0537646302185588e+00  -1.9896050127728673e+00  -1.9827109109970944e+00  -2.0867154870034286e+00  -2.1122514484192005e+00  -2.0221602698160375e+00  -1.9832465923506766e+00  -1.9437628903672419e+00  -2.0298430184096259e+00  -1.9655742000300087e+00  -1.7364613739680059e+00  -1.9381001827041791e+00  -2.0402505309596624e+00  -2.0685633678694826e+00  -2.0450834478300353e+00  -1.1589829454796887e+00  -1.9639806981929484e+00  -8.0245610659849365e-01  -1.9639844024069568e+00  -1.2975965415399007e+00  -1.4899411955553907e-01  -1.9639844024069311e+00  -1.9639844026087616e+00  -2.5864524247860726e-01  -1.9639844024068924e+00  -1.9639550499940046e+00  -1.9127773684931153e+00  -3.6464850518877756e-01  -1.9639844024088577e+00  -6.9145346145509279e-01  -1.9639844024298934e+00  -4.7163381784984837e-01  -1.9640128178192358e+00  -1.9639844021013109e+00  -1.9639878407339624e+00  -5.7704535577673788e-01  -1.3024637096491278e+00  -8.0146129601311156e-01  -1.1556263853212509e+00  -1.9639844023239630e+00  -6.8396068942126054e-01  -1.9639844024054525e+00  -5.7695580864565310e-01  -1.9639844024069573e+00  -4.6926828950544253e-01  -1.9639844024069397e+00  -3.6176276787600742e-01  -1.9639844024069404e+00  -1.0285300716430772e+00  -2.5648349842538748e-01  -1.5305007315147170e-01  -1.9639844700304081e+00  -1.0243276716121956e+00  -1.9639843270114334e+00  -2.1875853081763754e+00  -1.9635962090873114e+00  -2.0169729732835626e+00  -2.0240969209897002e+00  -1.9642980506707886e+00  -1.4577345940738429e+00  -1.4490225244588288e+00  -1.9581286859000633e+00  -1.7670528333060369e+00  -1.9919992686640031e+00  -2.0666190596988150e+00  -1.5963829252119164e+00  -1.9797267200065305e+00  -1.6040040783095639e+00  -1.9639843741923759e+00  -9.1572482634554964e-01  -1.9778217357117591e+00  -1.9639844305053098e+00  -9.1593952697341618e-01  -1.9518493443167804e+00  -5.1858310916630561e-02  -1.9639844024069579e+00  -5.4858786916054336e-02  -1.9639844024069497e+00  -1.9585249597639796e+00  -2.0536256322936945e+00  -2.0171086800150353e+00  -1.9813461309773273e+00  -2.2576663216886592e+00  -1.9686269817907185e+00  -1.8762964510846896e+00  -2.0151774890163527e+00  -1.7278449600559795e+00  -1.7050171043750606e+00  -1.9152777275145865e+00  -1.9732093649759526e+00  -2.0258780063187452e+00  -2.1207975876571350e+00  -2.0385025017326757e+00  -2.0202472267439493e+00  -2.0062086387262030e+00  -2.0460001118461051e+00  -1.6683407459068955e+00  -1.9950672686409612e+00  -2.0804547841172107e+00  -2.1470023654341950e+00  -1.9038377838467579e+00  -1.9734848189376146e+00  -1.9644235623474684e+00  -2.0004013808642060e+00  -1.9639844068550862e+00  -1.2420108386368094e+00  -1.9639591520999558e+00  -8.4952375135457947e-01  -7.3443834698567712e-01  -1.9639844021816160e+00  -1.9639834384791088e+00  -1.1045992173632100e+00  -6.2200506764085961e-01  -1.9639844023970947e+00  -5.1239454656447070e-01  -1.9639844024069772e+00  -1.9639844024069639e+00  -4.0474142593465590e-01  -1.9639844024069475e+00  -1.0512100568661288e-01  -1.9639844024069191e+00  -2.0214274392153300e+00  -9.7516028213398320e-01  -1.9639845230522193e+00  -1.9639844024068975e+00  -1.9004102598650238e-01  -1.3601751577421324e+00  -1.9639251253769059e+00  -1.9639844024069553e+00  -1.9639844024174029e+00  -2.9570689775029452e-01  -1.9639844026022166e+00  -1.9640406684871194e+00  -2.9828981879165350e-01  -1.9640096746721578e+00  -1.9639843981703926e+00  -1.9639855048863839e+00  -4.0269033084656697e-01  -5.0998106317956249e-01  -6.4483270778750390e-01  -1.3614699696500185e+00  -7.5631862670188166e-01  -1.9639842800743281e+00  -1.2465336633013908e+00  -8.4715808882853449e-01  -1.1078941143191376e+00  -1.9639844024069433e+00  -1.9267497003786860e-01  -9.7884203762308364e-01  -1.5150961920522663e+00  -1.9639844024069466e+00  -1.0576247193668369e-01  -1.5287520486428110e+00  -2.0215965026932174e+00  -2.0530554741588443e+00  -2.0612219855257417e+00  -1.8471431650106638e+00  -1.9804382467904669e+00  -1.9621145928762855e+00  -1.9446950198956481e+00  -1.9502240288922077e+00  -1.9655963923099780e+00  -2.0037197521251633e+00  -2.0114942190334357e+00  -1.9792984841214314e+00  -2.0185189753240542e+00  -2.0874498993217077e+00  -2.0604664307783196e+00  -2.1003139102733588e+00  -2.3563402087955327e+00  -2.0329818346117348e+00  -2.1710441346935121e+00  -1.9579497248194941e+00  -1.8839765354608693e+00  -2.0297229888541417e+00  -1.9414826867360009e+00  -2.0515686263525907e+00  -2.0333793970763114e+00  -2.3913315884755901e+00  -2.0388817106191115e+00  -1.9831706835032141e+00  -1.9660132942988602e+00  -2.0162232880128590e+00  -2.0085297969221276e+00  -1.9639844024069528e+00  -4.1008498199243668e-02  -1.6614308593330829e+00  -1.9792301244436479e+00  -1.8910921409828854e+00  -2.0546014385906850e+00  -2.0438021830155839e+00  -2.0085024579109185e+00  -2.1091051036885520e+00  -1.9894189070941983e+00  -1.7986464705866754e+00  -1.9805323441642131e+00  -1.9855680198464210e+00  -1.7270064823552105e+00  -2.0056246948019685e+00  -1.7966613117538626e+00  -2.1790404499888698e+00  -2.1409928679121446e+00  -2.0008515318318589e+00  -2.0607958995771338e+00  -2.0357123177222745e+00  -2.0267754257474859e+00  -2.0031075191286942e+00  -2.0339257776333861e+00  -1.9215073436513528e+00  -6.0188149330851171e-01  -1.1955778013123568e+00  -5.5019261635540129e-01  -4.4055135163327441e-01  -3.3384444660683588e-01  -2.2807474469314762e-01  -1.9639967372380722e+00  -1.9639844029483746e+