<?xml version="1.0"?>
<VTKFile type="UnstructuredGrid"  version="0.1"  >
<UnstructuredGrid>
<Piece  NumberOfPoints="4882" NumberOfCells="9241">
<Points>
<DataArray  type="Float64"  NumberOfComponents="3"  format="ascii">6 0.1 0  8 0.1 0  8 0.22 0  7.1 0.22 0  7 0.22 0  6 0.22 0  6.01 0.1 0  6.02 0.1 0  6.03 0.1 0  6.04 0.1 0  6.05 0.1 0  6.06 0.1 0  6.07 0.1 0  6.08 0.1 0  6.09 0.1 0  6.1 0.1 0  6.109999999999999 0.1 0  6.12 0.1 0  6.13 0.1 0  6.14 0.1 0  6.149999999999999 0.1 0  6.16 0.1 0  6.17 0.1 0  6.18 0.1 0  6.19 0.1 0  6.199999999999999 0.1 0  6.21 0.1 0  6.22 0.1 0  6.23 0.1 0  6.239999999999999 0.1 0  6.25 0.1 0  6.26 0.1 0  6.27 0.1 0  6.279999999999999 0.1 0  6.289999999999999 0.1 0  6.3 0.1 0  6.31 0.1 0  6.319999999999999 0.1 0  6.329999999999999 0.1 0  6.34 0.1 0  6.35 0.1 0  6.359999999999999 0.1 0  6.369999999999999 0.1 0  6.379999999999999 0.1 0  6.389999999999999 0.1 0  6.399999999999999 0.1 0  6.409999999999999 0.1 0  6.419999999999999 0.1 0  6.429999999999999 0.1 0  6.44 0.1 0  6.449999999999999 0.1 0  6.459999999999999 0.1 0  6.469999999999999 0.1 0  6.479999999999999 0.1 0  6.489999999999999 0.1 0  6.499999999999999 0.1 0  6.509999999999999 0.1 0  6.519999999999999 0.1 0  6.529999999999998 0.1 0  6.539999999999999 0.1 0  6.549999999999999 0.1 0  6.559999999999999 0.1 0  6.569999999999999 0.1 0  6.579999999999998 0.1 0  6.589999999999998 0.1 0  6.599999999999999 0.1 0  6.609999999999999 0.1 0  6.619999999999998 0.1 0  6.629999999999998 0.1 0  6.639999999999999 0.1 0  6.649999999999999 0.1 0  6.659999999999998 0.1 0  6.669999999999998 0.1 0  6.679999999999999 0.1 0  6.689999999999999 0.1 0  6.699999999999998 0.1 0  6.709999999999998 0.1 0  6.719999999999999 0.1 0  6.729999999999999 0.1 0  6.739999999999998 0.1 0  6.749999999999998 0.1 0  6.759999999999998 0.1 0  6.769999999999999 0.1 0  6.779999999999998 0.1 0  6.789999999999998 0.1 0  6.799999999999999 0.1 0  6.809999999999999 0.1 0  6.819999999999999 0.1 0  6.829999999999998 0.1 0  6.839999999999999 0.1 0  6.849999999999999 0.1 0  6.859999999999999 0.1 0  6.869999999999998 0.1 0  6.879999999999999 0.1 0  6.889999999999999 0.1 0  6.899999999999999 0.1 0  6.909999999999998 0.1 0  6.919999999999998 0.1 0  6.929999999999999 0.1 0  6.939999999999999 0.1 0  6.949999999999998 0.1 0  6.959999999999999 0.1 0  6.969999999999999 0.1 0  6.979999999999999 0.1 0  6.989999999999998 0.1 0  6.999999999999999 0.1 0  7.009999999999999 0.1 0  7.019999999999999 0.1 0  7.029999999999999 0.1 0  7.039999999999999 0.1 0  7.049999999999999 0.1 0  7.059999999999999 0.1 0  7.069999999999999 0.1 0  7.079999999999998 0.1 0  7.089999999999999 0.1 0  7.099999999999999 0.1 0  7.109999999999999 0.1 0  7.119999999999999 0.1 0  7.129999999999999 0.1 0  7.139999999999999 0.1 0  7.149999999999999 0.1 0  7.159999999999999 0.1 0  7.169999999999999 0.1 0  7.179999999999999 0.1 0  7.19 0.1 0  7.199999999999999 0.1 0  7.209999999999999 0.1 0  7.219999999999999 0.1 0  7.229999999999999 0.1 0  7.239999999999998 0.1 0  7.249999999999999 0.1 0  7.259999999999999 0.1 0  7.27 0.1 0  7.279999999999999 0.1 0  7.289999999999999 0.1 0  7.299999999999999 0.1 0  7.309999999999999 0.1 0  7.319999999999999 0.1 0  7.329999999999999 0.1 0  7.339999999999999 0.1 0  7.35 0.1 0  7.359999999999999 0.1 0  7.369999999999999 0.1 0  7.379999999999999 0.1 0  7.389999999999999 0.1 0  7.399999999999999 0.1 0  7.409999999999999 0.1 0  7.419999999999999 0.1 0  7.43 0.1 0  7.44 0.1 0  7.449999999999999 0.1 0  7.459999999999999 0.1 0  7.469999999999999 0.1 0  7.48 0.1 0  7.489999999999999 0.1 0  7.499999999999999 0.1 0  7.51 0.1 0  7.52 0.1 0  7.529999999999999 0.1 0  7.539999999999999 0.1 0  7.549999999999999 0.1 0  7.56 0.1 0  7.569999999999999 0.1 0  7.579999999999999 0.1 0  7.59 0.1 0  7.6 0.1 0  7.609999999999999 0.1 0  7.619999999999999 0.1 0  7.629999999999999 0.1 0  7.64 0.1 0  7.649999999999999 0.1 0  7.66 0.1 0  7.67 0.1 0  7.68 0.1 0  7.69 0.1 0  7.699999999999999 0.1 0  7.709999999999999 0.1 0  7.72 0.1 0  7.73 0.1 0  7.739999999999999 0.1 0  7.75 0.1 0  7.76 0.1 0  7.77 0.1 0  7.779999999999999 0.1 0  7.789999999999999 0.1 0  7.8 0.1 0  7.81 0.1 0  7.82 0.1 0  7.83 0.1 0  7.84 0.1 0  7.85 0.1 0  7.859999999999999 0.1 0  7.869999999999999 0.1 0  7.88 0.1 0  7.89 0.1 0  7.899999999999999 0.1 0  7.91 0.1 0  7.92 0.1 0  7.93 0.1 0  7.94 0.1 0  7.949999999999999 0.1 0  7.96 0.1 0  7.97 0.1 0  7.98 0.1 0  7.99 0.1 0  8 0.1099999999999788 0  8 0.1199999999999512 0  8 0.1299999999999173 0  8 0.1399999999998952 0  8 0.1499999999998641 0  8 0.1599999999998293 0  8 0.1699999999998686 0  8 0.1799999999998971 0  8 0.1899999999999147 0  8 0.1999999999999323 0  8 0.2099999999999607 0  7.990085836355354 0.22 0  7.980171672710533 0.22 0  7.970257509065752 0.22 0  7.960343345421177 0.22 0  7.950429181776419 0.22 0  7.940515018131598 0.22 0  7.930600854486929 0.22 0  7.920686690842305 0.22 0  7.910772527197484 0.22 0  7.900858363552682 0.22 0  7.890944199908105 0.22 0  7.88103003626337 0.22 0  7.87111587261855 0.22 0  7.861201708973858 0.22 0  7.851287545329257 0.22 0  7.841373381684436 0.22 0  7.831459218039615 0.22 0  7.821545054395035 0.22 0  7.811630890750322 0.22 0  7.801716727105502 0.22 0  7.791802563460787 0.22 0  7.781888399816208 0.22 0  7.771974236171387 0.22 0  7.762060072526567 0.22 0  7.752145908881964 0.22 0  7.742231745237274 0.22 0  7.732317581592453 0.22 0  7.722403417947716 0.22 0  7.712489254303141 0.22 0  7.702575090658339 0.22 0  7.692660927013642 0.22 0  7.682746763369046 0.22 0  7.672832599724225 0.22 0  7.662918436079405 0.22 0  7.653004272434819 0.22 0  7.643090108790111 0.22 0  7.633175945145291 0.22 0  7.623261781500571 0.22 0  7.613347617855996 0.22 0  7.603433454211177 0.22 0  7.593519290566356 0.22 0  7.583605126921748 0.22 0  7.573690963277063 0.22 0  7.563776799632242 0.22 0  7.5538626359875 0.22 0  7.543948472342924 0.22 0  7.534034308698129 0.22 0  7.524120145053308 0.22 0  7.514205981408487 0.22 0  7.504291817763667 0.22 0  7.494377654118846 0.22 0  7.484463490474027 0.22 0  7.474549326829206 0.22 0  7.464635163184385 0.22 0  7.454720999539565 0.22 0  7.444806835894744 0.22 0  7.434892672249925 0.22 0  7.424978508605104 0.22 0  7.415064344960284 0.22 0  7.405150181315463 0.22 0  7.395236017670642 0.22 0  7.385321854025823 0.22 0  7.375407690381002 0.22 0  7.365493526736182 0.22 0  7.355579363091362 0.22 0  7.345665199446541 0.22 0  7.335751035801721 0.22 0  7.3258368721569 0.22 0  7.315922708512131 0.22 0  7.306008544867555 0.22 0  7.296094381222787 0.22 0  7.286180217577966 0.22 0  7.276266053933307 0.22 0  7.266351890288672 0.22 0  7.256437726643852 0.22 0  7.24652356299906 0.22 0  7.236609399354484 0.22 0  7.226695235709738 0.22 0  7.216781072064918 0.22 0  7.206866908420237 0.22 0  7.196952744775624 0.22 0  7.187038581130803 0.22 0  7.177124417485989 0.22 0  7.167210253841413 0.22 0  7.15729609019669 0.22 0  7.147381926551869 0.22 0  7.137467762907166 0.22 0  7.127609887754289 0.22 0  7.119267423713023 0.22 0  7.112902479254871 0.22 0  7.108462887920409 0.22 0  7.105141639945627 0.22 0  7.101184123304556 0.22 0  7.09900000000009 0.22 0  7.097999999999909 0.22 0  7.09699999999975 0.22 0  7.095999999999861 0.22 0  7.09499999999993 0.22 0  7.093999999999729 0.22 0  7.092999999999591 0.22 0  7.091999999999723 0.22 0  7.090999999999771 0.22 0  7.089999999999549 0.22 0  7.088999999999444 0.22 0  7.087999999999584 0.22 0  7.086999999999611 0.22 0  7.085999999999368 0.22 0  7.084999999999305 0.22 0  7.083999999999445 0.22 0  7.082999999999451 0.22 0  7.081999999999375 0.22 0  7.080999999999514 0.22 0  7.079999999999653 0.22 0  7.078999999999639 0.22 0  7.077999999999584 0.22 0  7.076999999999722 0.22 0  7.075999999999861 0.22 0  7.074999999999826 0.22 0  7.073999999999792 0.22 0  7.07299999999993 0.22 0  7.072000000000069 0.22 0  7.071000000000014 0.22 0  7.069999999999999 0.22 0  7.069000000000139 0.22 0  7.068000000000278 0.22 0  7.067000000000201 0.22 0  7.066000000000208 0.22 0  7.065000000000347 0.22 0  7.064000000000472 0.22 0  7.063000000000389 0.22 0  7.062000000000416 0.22 0  7.061000000000555 0.22 0  7.060000000000451 0.22 0  7.059000000000228 0.22 0  7.058000000000278 0.22 0  7.057000000000409 0.22 0  7.05600000000027 0.22 0  7.055000000000069 0.22 0  7.054000000000139 0.22 0  7.05300000000025 0.22 0  7.05200000000009 0.22 0  7.05099999999991 0.22 0  7.05 0.22 0  7.04900000000009 0.22 0  7.047999999999909 0.22 0  7.04699999999975 0.22 0  7.045999999999861 0.22 0  7.044999999999931 0.22 0  7.04399999999973 0.22 0  7.042999999999591 0.22 0  7.041999999999723 0.22 0  7.040999999999771 0.22 0  7.039999999999549 0.22 0  7.038999999999445 0.22 0  7.037999999999584 0.22 0  7.036999999999612 0.22 0  7.035999999999528 0.22 0  7.034999999999653 0.22 0  7.033999999999792 0.22 0  7.032999999999799 0.22 0  7.031999999999723 0.22 0  7.030999999999861 0.22 0  7.03 0.22 0  7.028999999999987 0.22 0  7.02799999999993 0.22 0  7.027000000000069 0.22 0  7.026000000000209 0.22 0  7.025000000000174 0.22 0  7.024000000000139 0.22 0  7.023000000000278 0.22 0  7.022000000000416 0.22 0  7.021000000000361 0.22 0  7.020000000000347 0.22 0  7.019000000000486 0.22 0  7.018000000000624 0.22 0  7.017000000000548 0.22 0  7.016000000000555 0.22 0  7.015000000000694 0.22 0  7.014000000000632 0.22 0  7.013000000000389 0.22 0  7.012000000000416 0.22 0  7.011000000000555 0.22 0  7.010000000000451 0.22 0  7.009000000000229 0.22 0  7.008000000000278 0.22 0  7.007000000000409 0.22 0  7.00600000000027 0.22 0  7.005000000000069 0.22 0  7.004000000000139 0.22 0  7.00300000000025 0.22 0  7.00200000000009 0.22 0  7.00099999999991 0.22 0  6.994809698470582 0.22 0  6.991569006236496 0.22 0  6.987074728859082 0.22 0  6.980583540116057 0.22 0  6.972279556173985 0.22 0  6.962550869064059 0.22 0  6.952627664228347 0.22 0  6.942704459392635 0.22 0  6.932781254556923 0.22 0  6.922858049721211 0.22 0  6.912934844885499 0.22 0  6.903011640049788 0.22 0  6.893088435214075 0.22 0  6.883165230378363 0.22 0  6.873242025542651 0.22 0
[...]
<PointData  Scalars="pressure"> 
<DataArray  type="Float64"  Name="pressure"  format="ascii">1.6720241517578574e-06  -2.0754277665218206e+00  -2.0754277665218286e+00  -4.8967027002206880e+00  -2.4528095260259679e+00  1.6543202746385640e-06  -1.5061945916887811e-02  -3.0157898788863550e-02  -4.5286655649897159e-02  -6.0446122354293440e-02  -7.5638888507890772e-02  -9.0864753681264052e-02  -1.0612247427525098e-01  -1.2141561306183651e-01  -1.3674215973904530e-01  -1.5210266070485767e-01  -1.6749945156183488e-01  -1.8293245334067637e-01  -1.9840160323298298e-01  -2.1390904483816223e-01  -2.2945649780778249e-01  -2.4504245075881173e-01  -2.6066981679069456e-01  -2.7633955023576878e-01  -2.9205138043494472e-01  -3.0780852129719705e-01  -3.2361022613803764e-01  -3.3946260521318633e-01  -3.5536200327966178e-01  -3.7131239140354078e-01  -3.8731474668377835e-01  -4.0337019596613094e-01  -4.1948209865044078e-01  -4.3564948260225861e-01  -4.5188021918946758e-01  -4.6817046541809915e-01  -4.8452523564708683e-01  -5.0094415636893574e-01  -5.1743119748957012e-01  -5.3398893614698850e-01  -5.5061637448075196e-01  -5.6732310194224000e-01  -5.8410643985507615e-01  -6.0096796728873803e-01  -6.1791287129339412e-01  -6.3494170024608954e-01  -6.5205927503236194e-01  -6.6926848269467465e-01  -6.8657005148795736e-01  -7.0396760064858788e-01  -7.2146393940274711e-01  -7.3906447329170866e-01  -7.5676792459489461e-01  -7.7458142319102230e-01  -7.9250636705394095e-01  -8.1054562771254490e-01  -8.2870214137748555e-01  -8.4698031782467409e-01  -8.6538300103967336e-01  -8.8391375583149978e-01  -9.0257412071142418e-01  -9.2137429218866362e-01  -9.4030497903577348e-01  -9.5938311427905676e-01  -9.7860209262627107e-01  -9.9797562108511950e-01  -1.0174932176979141e+00  -1.0371728141525318e+00  -1.0570082731147452e+00  -1.0770073278484356e+00  -1.0971728455257366e+00  -1.1175061599873863e+00  -1.1380184886822149e+00  -1.1586997917177313e+00  -1.1795648598555286e+00  -1.2006146409743301e+00  -1.2218500526247782e+00  -1.2432759962802800e+00  -1.2648958338511682e+00  -1.2867150940390084e+00  -1.3087276646197070e+00  -1.3309476093497923e+00  -1.3533682555427182e+00  -1.3760011062411399e+00  -1.3988357701255696e+00  -1.4218825267561632e+00  -1.4451446219709765e+00  -1.4686148542552364e+00  -1.4923044652668791e+00  -1.5162115401678391e+00  -1.5403529509550948e+00  -1.5647397869173423e+00  -1.5893952007784498e+00  -1.6143584997541294e+00  -1.6396924864904667e+00  -1.6654987297249308e+00  -1.6919117474082959e+00  -1.7190188929553205e+00  -1.7471059427767910e+00  -1.7762990684019337e+00  -1.8067651828965618e+00  -1.8387440003741613e+00  -1.8718522046074406e+00  -1.9058783492477045e+00  -1.9406256637874997e+00  -1.9743865154470088e+00  -2.0066565140777630e+00  -2.0362667205782441e+00  -2.0624613083879044e+00  -2.0838666900373988e+00  -2.1007685106282588e+00  -2.1125546903534507e+00  -2.1192373826220638e+00  -2.1214926049335592e+00  -2.1199610001319273e+00  -2.1159392211039743e+00  -2.1097430162729855e+00  -2.1030822570658096e+00  -2.0965299399106554e+00  -2.0906810563985747e+00  -2.0858968743649284e+00  -2.0822116500678178e+00  -2.0794808090346448e+00  -2.0776163113137174e+00  -2.0764366239326044e+00  -2.0756729793896103e+00  -2.0753048548645205e+00  -2.0751313796159412e+00  -2.0750602938255378e+00  -2.0750836597484561e+00  -2.0751291454720864e+00  -2.0751867886960271e+00  -2.0752421226764737e+00  -2.0752912567298272e+00  -2.0753297278292564e+00  -2.0753608859206985e+00  -2.0753837621603819e+00  -2.0753999221241881e+00  -2.0754110107209218e+00  -2.0754183364224907e+00  -2.0754232135615647e+00  -2.0754259899206371e+00  -2.0754275838684904e+00  -2.0754284054547787e+00  -2.0754287102136395e+00  -2.0754287833031237e+00  -2.0754286701518248e+00  -2.0754285234601140e+00  -2.0754283681480969e+00  -2.0754281978770250e+00  -2.0754280720225444e+00  -2.0754279772271800e+00  -2.0754279010034056e+00  -2.0754278486549556e+00  -2.0754278134533202e+00  -2.0754277917377819e+00  -2.0754277782030228e+00  -2.0754277705683224e+00  -2.0754277668341063e+00  -2.0754277651770443e+00  -2.0754277647611086e+00  -2.0754277649298616e+00  -2.0754277653058044e+00  -2.0754277657704026e+00  -2.0754277660779059e+00  -2.0754277662294993e+00  -2.0754277663292697e+00  -2.0754277663922238e+00  -2.0754277664354177e+00  -2.0754277664722318e+00  -2.0754277664962859e+00  -2.0754277665082652e+00  -2.0754277665170284e+00  -2.0754277665204341e+00  -2.0754277665225320e+00  -2.0754277665236320e+00  -2.0754277665235343e+00  -2.0754277665233385e+00  -2.0754277665229597e+00  -2.0754277665226004e+00  -2.0754277665223397e+00  -2.0754277665221172e+00  -2.0754277665220258e+00  -2.0754277665219361e+00  -2.0754277665219187e+00  -2.0754277665218606e+00  -2.0754277665218561e+00  -2.0754277665218557e+00  -2.0754277665218419e+00  -2.0754277665218384e+00  -2.0754277665218344e+00  -2.0754277665218477e+00  -2.0754277665218384e+00  -2.0754277665218370e+00  -2.0754277665218406e+00  -2.0754277665218233e+00  -2.0754277665218259e+00  -2.0754277665218193e+00  -2.0754277665218295e+00  -2.0754277665218339e+00  -2.0754277665218428e+00  -2.0754277665218255e+00  -2.0754277665218264e+00  -2.0754277665218281e+00  -2.0754277665218379e+00  -2.0754277665218290e+00  -2.0754277665218206e+00  -2.0754277665218348e+00  -2.0754277665218348e+00  -2.0754277665218273e+00  -2.0754277665218308e+00  -2.0754277665218237e+00  -2.0754277665218321e+00  -2.0754277665218250e+00  -2.0754277665218277e+00  -2.0754277665218503e+00  -2.0754277665218357e+00  -2.0754277665218410e+00  -2.0754277665218552e+00  -2.0754277665218388e+00  -2.0754277665218619e+00  -2.0754277665218477e+00  -2.0754277665218486e+00  -2.0754277665218428e+00  -2.0754277665218543e+00  -2.0754277665218397e+00  -2.0754277665218388e+00  -2.0754277665218281e+00  -2.0754277665218170e+00  -2.0754277665218264e+00  -2.0754277665218326e+00  -2.0754277665218246e+00  -2.0754277665218210e+00  -2.0754277665218224e+00  -2.0754277665218002e+00  -2.0754277665217766e+00  -2.0754277665217566e+00  -2.0754277665217247e+00  -2.0754277665216492e+00  -2.0754277665215430e+00  -2.0754277665213632e+00  -2.0754277665211132e+00  -2.0754277665207894e+00  -2.0754277665204590e+00  -2.0754277665202974e+00  -2.0754277665203760e+00  -2.0754277665212735e+00  -2.0754277665234389e+00  -2.0754277665268392e+00  -2.0754277665336964e+00  -2.0754277665436902e+00  -2.0754277665588172e+00  -2.0754277665840535e+00  -2.0754277666218646e+00  -2.0754277666800052e+00  -2.0754277667740015e+00  -2.0754277669227572e+00  -2.0754277671155670e+00  -2.0754277675823301e+00  -2.0754277679898094e+00  -2.0754277682434141e+00  -2.0754277681418376e+00  -2.0754277670414676e+00  -2.0754277645713222e+00  -2.0754277585217316e+00  -2.0754277477533405e+00  -2.0754277302794550e+00  -2.0754277017925924e+00  -2.0754276575269262e+00  -2.0754275950416656e+00  -2.0754275117695205e+00  -2.0754274025460586e+00  -2.0754272497519497e+00  -2.0754270808463255e+00  -2.0754269380528809e+00  -2.0754267925036980e+00  -2.0754267466067438e+00  -2.0754269199231907e+00  -2.0754273938887917e+00  -2.0754286059082290e+00  -2.0754305621149873e+00  -2.0754341510853855e+00  -2.0754399260777756e+00  -2.0754486479828440e+00  -2.0754614520377213e+00  -2.0754799039705896e+00  -2.0755061364797380e+00  -2.0755391904282039e+00  -2.0755849359272607e+00  -2.0756364394361175e+00  -2.0757051082315776e+00  -2.0757630795041822e+00  -2.0758053485110812e+00  -2.0758396155175722e+00  -2.0757556339134871e+00  -2.0755564652964997e+00  -2.0751614457332361e+00  -2.0742264306530647e+00  -2.0729707139304341e+00  -2.0700799320487659e+00  -2.0659227819567234e+00  -2.0590976406112635e+00  -2.0455469259973955e+00  -2.0223639109831968e+00  -1.9796676475894550e+00  -1.9204579486875837e+00  -1.7733569981740331e+00  -1.7619265286565655e+00  1.1285930702463212e+00  -4.8662658871032480e+00  -3.1774536131185909e+00  -2.9595729265289337e+00  -2.7401081940721426e+00  -2.6220703832062955e+00  -2.5401587527328640e+00  -2.4804665687265359e+00  -2.4347755597655678e+00  -2.4003042903774885e+00  -2.3703244385017008e+00  -2.3483250056557412e+00  -2.3283129333689296e+00  -2.3117705129491668e+00  -2.2973076655613327e+00  -2.2847899556857025e+00  -2.2737849253786475e+00  -2.2639767305554854e+00  -2.2551481593527933e+00  -2.2472564400298745e+00  -2.2401315695638284e+00  -2.2336153117295177e+00  -2.2276632753201713e+00  -2.2221825755443643e+00  -2.2171068491007104e+00  -2.2123401838314596e+00  -2.2080161359794577e+00  -2.2038975701495587e+00  -2.2000503473004769e+00  -2.1964196712025474e+00  -2.1929956486196867e+00  -2.1897895684162760e+00  -2.1866985860298107e+00  -2.1838058291686120e+00  -2.1810271280570062e+00  -2.1783859685948368e+00  -2.1758525309528429e+00  -2.1734305202057338e+00  -2.1711069549084492e+00  -2.1688764970753001e+00  -2.1667329224097318e+00  -2.1646684134523619e+00  -2.1626788832340860e+00  -2.1607626737704666e+00  -2.1589158171748437e+00  -2.1571363109062305e+00  -2.1554201230886298e+00  -2.1537647774076056e+00  -2.1521669019622820e+00  -2.1506282561246461e+00  -2.1491495812625927e+00  -2.1477294777974967e+00  -2.1463641327209153e+00  -2.1450582336911515e+00  -2.1438117125960634e+00  -2.1426234342680948e+00  -2.1415021181757403e+00  -2.1404403426302059e+00  -2.1394435090915933e+00  -2.1385246825789817e+00  -2.1376733074769541e+00  -2.1368967179002634e+00  -2.1361989427111161e+00  -2.1356126464464524e+00  -2.1350925055433940e+00  -2.1346937378812401e+00  -2.1343976852552862e+00  -2.1342217245371176e+00  -2.1341793002873102e+00  -2.1342739368562653e+00  -2.1345295275558707e+00  -2.1349617344028906e+00  -2.1355311380650339e+00  -2.1364069225834768e+00  -2.1374415487462484e+00  -2.1387706663797128e+00  -2.1404179093606754e+00  -2.1423402343222357e+00  -2.1447474786815963e+00  -2.1473688031326543e+00  -2.1507616095441033e+00  -2.1545804665585133e+00  -2.1590270991287079e+00  -2.1643940379304767e+00  -2.1703829056658059e+00  -2.1778360855199810e+00  -2.1864700828252217e+00  -2.1966527900499080e+00  -2.2089014275750589e+00  -2.2236866925088066e+00  -2.2417600765845958e+00  -2.2638401024289561e+00  -2.2911115818118755e+00  -2.3258788542695421e+00  -2.3740152318027214e+00  -2.4343700719252905e+00  -2.5343193228633187e+00  -2.6629247207159521e+00  -2.8422464211178102e+00  -4.0223541843828698e+00  -5.9408089542591835e-01  -1.7921405908920098e+00  -1.7083946240034451e+00  -1.7832110815017468e+00  -1.8022124070819006e+00  -1.7984201258740005e+00  -1.7857705902731782e+00  -1.7667046488987719e+00  -1.7449340165520921e+00  -1.7214859785162129e+00  -1.6973787508809066e+00  -1.6726777413374669e+00  -1.6478483846785030e+00  -1.6230545041459852e+00  -1.5982945178194503e+00  -1.5737103291508576e+00  -1.5493210252900014e+00  -1.5251633835405072e+00  -1.5012263134725830e+00  -1.4775204593220013e+00  -1.4540610260863547e+00  -1.4308240356086612e+00  -1.4078240117301881e+00  -1.3850331592266387e+00  -1.3624717753067561e+00  -1.3401157564655009e+00  -1.3179735006681563e+00  -1.2960306519965210e+00  -1.2742967375388239e+00  -1.2527539282279376e+00  -1.2314073193744186e+00  -1.2102470104204393e+00  -1.1892741355641492e+00  -1.1684855818691415e+00  -1.1478746502989905e+00  -1.1274412142166987e+00  -1.1071799788894667e+00  -1.0870865094052100e+00  -1.0671567365454253e+00  -1.0473933164404787e+00  -1.0277800253098890e+00  -1.0083327541723945e+00  -9.8902960377977411e-01  -9.6987777448188861e-01  -9.5087046082334425e-01  -9.3199993206826470e-01  -9.1327377516637387e-01  -8.9467627495723667e-01  -8.7621166924096305e-01  -8.5787939319309059e-01  -8.3966538634521726e-01  -8.2157689992012661e-01  -8.0360481837507292e-01  -7.8574808798620099e-01  -7.6800175403410098e-01  -7.5036664065109038e-01  -7.3283523430931918e-01  -7.1540769116581171e-01  -6.9807761101643973e-01  -6.8084557278139390e-01  -6.6370751369144509e-01  -6.4665758680546503e-01  -6.2970114706054214e-01  -6.1282909261091101e-01  -5.9603885016668856e-01  -5.7932988868564028e-01  -5.6269738197710872e-01  -5.4613933637757917e-01  -5.2965860434578727e-01  -5.1324643020153971e-01  -4.9690348114691957e-01  -4.8062567009751000e-01  -4.6441303800422223e-01  -4.4826100375600120e-01  -4.3216969892398271e-01  -4.1613711921799462e-01  -4.0016005065135551e-01  -3.8423857185269505e-01  -3.6836873350970428e-01  -3.5255092688161876e-01  -3.3678126338309972e-01  -3.2106011690842917e-01  -3.0538583168464178e-01  -2.8975612133666329e-01  -2.7417102541636879e-01  -2.5862735610806126e-01  -2.4312597325705904e-01  -2.2766367493049902e-01  -2.1224029023672183e-01  -1.9685638876020620e-01  -1.8150882049251094e-01  -1.6619793274949435e-01  -1.5092196619690476e-01  -1.3568239662013862e-01  -1.2047464783599895e-01  -1.0530191755265231e-01  -9.0161731138104537e-02  -7.5055709838383527e-02  -5.9980018246005032e-02  -4.4937494451589559e-02  -2.9925936592714218e-02  -1.4946120216965984e-02  7.7613353902689984e-07  2.2802249667842216e-06  2.4405926882097657e-06  1.5266128218915280e-06  4.1352178044008418e-06  1.1928810176711846e-06  8.9508815482742236e-07  8.1755105363683359e-07  3.3470025664584605e-06  2.2351358576778622e-06  7.7800997462726525e-07  -2.0408049354273508e+00  -2.0922303720535163e+00  -1.9566171834041877e+00  -2.1053173026789627e+00  -2.0795365086708943e+00  -2.1138962560599666e+00  -2.0535700988165986e+00  -2.1234106576171414e+00  -2.1539968039839716e+00  -2.1842240170957901e+00  -2.1127594987484986e+00  -2.0988572393624865e+00  -2.1067565784799211e+00  -1.9791399140753121e+00  -2.1521475439992543e+00  -2.1973600586568667e+00  -2.1325496751232422e+00  -2.0650591679600216e+00  -2.1195056742727063e+00  -1.7834091047960423e+00  -2.1784837426278520e+00  -2.0754021110786405e+00  -2.2488101609543305e+00  -2.1191041469054808e+00  -2.0802391794116524e+00  -1.6304601240178158e+00  -2.0754277665218104e+00  -2.0754277665218162e+00  -9.7728962343636094e-02  -2.0754277665218028e+00  -2.0708441798698851e-01  -2.0754277665217975e+00  -2.0754277665229033e+00  -3.1582839016510605e-01  -2.0754269653666486e+00  -2.0754277664959120e+00  -2.0754260508162545e+00  -2.0754277666553476e+00  -2.0754276939469056e+00  -4.2663091279065291e-01  -5.3984804548052234e-01  -6.5263208067249623e-01  -1.4682714705793092e+00  -7.7538852139256997e-01  -1.3026095494709122e+00  -9.0836446281565519e-01  -1.1548102349779004e+00  -2.0754277686087788e+00  -2.1219802481759120e+00  -1.0179548578838589e+00  -2.2429032442891361e+00  -2.1468294750131602e+00  -2.1289425213341251e+00  -2.0858833028306498e+00  -1.9500132292931398e+00  -2.1245595790619634e+00  -2.1325480315250123e+00  -2.2098067505977452e+00  -2.1366457790503151e+00  -2.1666931540435463e+00  -2.1014681283739924e+00  -2.0945428108614506e+00  -2.2000638212382455e+00  -2.2258793346554833e+00  -2.1346390274033777e+00  -2.0949319607914307e+00  -2.0547985864892713e+00  -2.1424121436904664e+00  -2.0770175046613915e+00  -1.8440942519748384e+00  -2.0497791025498273e+00  -2.1526222465136668e+00  -2.1811007553631581e+00  -2.1578846597506041e+00  -1.2302573895103990e+00  -2.0754238842567516e+00  -8.3998666491135987e-01  -2.0754277665218259e+00  -1.3806418868905448e+00  -1.5020505584984198e-01  -2.0754277665217922e+00  -2.0754277671210555e+00  -2.6233669766505402e-01  -2.0754277665216709e+00  -2.0753973280488509e+00  -2.0235774090585128e+00  -3.7210208863473843e-01  -2.0754277665237488e+00  -7.1936151434996154e-01  -2.0754277665708507e+00  -4.8431762847453791e-01  -2.0754572105170492e+00  -2.0754277657676807e+00  -2.0754313691032911e+00  -5.9630902304630473e-01  -1.3858925300328488e+00  -8.3890147051309760e-01  -1.2265977963580246e+00  -2.0754277661737106e+00  -7.1125892791963485e-01  -2.0754277665202241e+00  -5.9621289745730111e-01  -2.0754277665219072e+00  -4.8182029088056627e-01  -2.0754277665218095e+00  -3.6909519655313938e-01  -2.0754277665218086e+00  -1.0875868980237795e+00  -2.6011219772435695e-01  -1.5432844684757410e-01  -2.0754278371204755e+00  -1.0829804946846613e+00  -2.0754276876931943e+00  -2.3018752397328521e+00  -2.0750255543009706e+00  -2.1293110630021110e+00  -2.1365663092487801e+00  -2.0757529761723728e+00  -1.5520787996695717e+00  -1.5428126436716998e+00  -2.0696657678358505e+00  -1.8748661745454152e+00  -2.1040256493767542e+00  -2.1797168412870165e+00  -1.6982571167399230e+00  -2.0915742292886339e+00  -1.7060703917737645e+00  -2.0754277324082531e+00  -9.6389694587134622e-01  -2.0895450656344097e+00  -2.0754277999962483e+00  -9.6413212629700462e-01  -2.0631671045208808e+00  -5.2003801822588624e-02  -2.0754277665218259e+00  -5.5020997392418378e-02  -2.0754277665218175e+00  -2.0698425215128866e+00  -2.1665604708180259e+00  -2.1294169792113662e+00  -2.0930338169691507e+00  -2.3724501424120432e+00  -2.0801855679845445e+00  -1.9863351644050808e+00  -2.1275217072402408e+00  -1.8344139233738967e+00  -1.8134751201689800e+00  -2.0263187745737730e+00  -2.0848063241659043e+00  -2.1384174949239267e+00  -2.2336550337589189e+00  -2.1511974947255204e+00  -2.1328032436683877e+00  -2.1184507543682365e+00  -2.1588309002180748e+00  -1.7733779485962893e+00  -2.1071179455961970e+00  -2.1937269555226782e+00  -2.2609655027989541e+00  -2.0142532128958526e+00  -2.0849851531820653e+00  -2.0758785285871371e+00  -2.1125309902310470e+00  -2.0754277728997401e+00  -1.3205305613541183e+00  -2.0754014442724484e+00  -8.9140467499420961e-01  -7.6594778179139000e-01  -2.0754277663727390e+00  -2.0754267540349396e+00  -1.1708756625770267e+00  -6.4448943037585138e-01  -2.0754277665105918e+00  -5.2745623190167068e-01  -2.0754277665221861e+00  -2.0754277665218313e+00  -4.1398325888666210e-01  -2.0754277665218126e+00  -1.0572136799643890e-01  -2.0754277665217766e+00  -2.1337118918981184e+00  -1.0290678278876122e+00  -2.0754278920714504e+00  -2.0754277665214831e+00  -1.9201791538855342e-01  -1.4479593276025671e+00  -2.0753668637222171e+00  -2.0754277665218321e+00  -2.0754277665343435e+00  -3.0055624382927659e-01  -2.0754277666598138e+00  -2.0754854883036971e+00  -3.0322641284858265e-01  -2.0754541310136809e+00  -2.0754277605156868e+00  -2.0754289244553661e+00  -4.1183512888438112e-01  -5.2489548590979496e-01  -6.6904169051190476e-01  -1.4493488953516727e+00  -7.8972503148558371e-01  -2.0754276390783244e+00  -1.3254321129976507e+00  -8.8881757700381303e-01  -1.1744784214522221e+00  -2.0754277665218117e+00  -1.9470734324092387e-01  -1.0331056146113244e+00  -1.6128089657948590e+00  -2.0754277665218148e+00  -1.0637011162118853e-01  -1.6271651581734652e+00  -2.1340123144562715e+00  -2.1659645681954682e+00  -2.1742576046205735e+00  -1.9581037455350596e+00  -2.0921117141482339e+00  -2.0735012481258877e+00  -2.0560343225012030e+00  -2.0613656809377603e+00  -2.0770894437785166e+00  -2.1158573754586461e+00  -2.1238017759357883e+00  -2.0909139881766357e+00  -2.1308195774645853e+00  -2.2008052093867736e+00  -2.1734773285944780e+00  -2.2138173444197382e+00  -2.4717063829672701e+00  -2.1453235915568216e+00  -2.2842205198430370e+00  -2.0695153171001062e+00  -1.9945473576720272e+00  -2.1422753350851376e+00  -2.0527024923587054e+00  -2.1644746821531404e+00  -2.1460528502096925e+00  -2.5069082890959495e+00  -2.1516050460509462e+00  -2.0949580541422055e+00  -2.0776702602045254e+00  -2.1286168787985549e+00  -2.1207745037256762e+00  -2.0754277665218206e+00  -4.1099253554941539e-02  -1.7658043486307793e+00  -2.0911663035302905e+00  -2.0013178232454019e+00  -2.1676245785307180e+00  -2.1565739695351436e+00  -2.1207469206991001e+00  -2.2226977878619425e+00  -2.1013265304894428e+00  -1.9070513907772833e+00  -2.0922781353502069e+00  -2.0975010435765613e+00  -1.8379576884126800e+00  -2.1178257043326636e+00  -1.9058270599783853e+00  -2.2932782220469665e+00  -2.2542397722554783e+00  -2.1129015404684730e+00  -2.1733119931294405e+00  -2.1483890625580297e+00  -2.1393288355568179e+00  -2.1152406998513467e+00  -2.1465453154166649e+00  -2.0323331540715710e+00  -6.2289460715311062e-01  -1.2701101601527502e+00  -5.6764809760582902e-01  -4.5156466022005515e-01  -3.4006175905370017e-01  -2.3093421291514288e-01  -2.0754406851695326e+00  -2.0754277667854879e+