<?xml version="1.0"?>
<VTKFile type="UnstructuredGrid"  version="0.1"  >
<UnstructuredGrid>
<Piece  NumberOfPoints="4882" NumberOfCells="9241">
<Points>
<DataArray  type="Float64"  NumberOfComponents="3"  format="ascii">6 0.1 0  8 0.1 0  8 0.22 0  7.1 0.22 0  7 0.22 0  6 0.22 0  6.01 0.1 0  6.02 0.1 0  6.03 0.1 0  6.04 0.1 0  6.05 0.1 0  6.06 0.1 0  6.07 0.1 0  6.08 0.1 0  6.09 0.1 0  6.1 0.1 0  6.109999999999999 0.1 0  6.12 0.1 0  6.13 0.1 0  6.14 0.1 0  6.149999999999999 0.1 0  6.16 0.1 0  6.17 0.1 0  6.18 0.1 0  6.19 0.1 0  6.199999999999999 0.1 0  6.21 0.1 0  6.22 0.1 0  6.23 0.1 0  6.239999999999999 0.1 0  6.25 0.1 0  6.26 0.1 0  6.27 0.1 0  6.279999999999999 0.1 0  6.289999999999999 0.1 0  6.3 0.1 0  6.31 0.1 0  6.319999999999999 0.1 0  6.329999999999999 0.1 0  6.34 0.1 0  6.35 0.1 0  6.359999999999999 0.1 0  6.369999999999999 0.1 0  6.379999999999999 0.1 0  6.389999999999999 0.1 0  6.399999999999999 0.1 0  6.409999999999999 0.1 0  6.419999999999999 0.1 0  6.429999999999999 0.1 0  6.44 0.1 0  6.449999999999999 0.1 0  6.459999999999999 0.1 0  6.469999999999999 0.1 0  6.479999999999999 0.1 0  6.489999999999999 0.1 0  6.499999999999999 0.1 0  6.509999999999999 0.1 0  6.519999999999999 0.1 0  6.529999999999998 0.1 0  6.539999999999999 0.1 0  6.549999999999999 0.1 0  6.559999999999999 0.1 0  6.569999999999999 0.1 0  6.579999999999998 0.1 0  6.589999999999998 0.1 0  6.599999999999999 0.1 0  6.609999999999999 0.1 0  6.619999999999998 0.1 0  6.629999999999998 0.1 0  6.639999999999999 0.1 0  6.649999999999999 0.1 0  6.659999999999998 0.1 0  6.669999999999998 0.1 0  6.679999999999999 0.1 0  6.689999999999999 0.1 0  6.699999999999998 0.1 0  6.709999999999998 0.1 0  6.719999999999999 0.1 0  6.729999999999999 0.1 0  6.739999999999998 0.1 0  6.749999999999998 0.1 0  6.759999999999998 0.1 0  6.769999999999999 0.1 0  6.779999999999998 0.1 0  6.789999999999998 0.1 0  6.799999999999999 0.1 0  6.809999999999999 0.1 0  6.819999999999999 0.1 0  6.829999999999998 0.1 0  6.839999999999999 0.1 0  6.849999999999999 0.1 0  6.859999999999999 0.1 0  6.869999999999998 0.1 0  6.879999999999999 0.1 0  6.889999999999999 0.1 0  6.899999999999999 0.1 0  6.909999999999998 0.1 0  6.919999999999998 0.1 0  6.929999999999999 0.1 0  6.939999999999999 0.1 0  6.949999999999998 0.1 0  6.959999999999999 0.1 0  6.969999999999999 0.1 0  6.979999999999999 0.1 0  6.989999999999998 0.1 0  6.999999999999999 0.1 0  7.009999999999999 0.1 0  7.019999999999999 0.1 0  7.029999999999999 0.1 0  7.039999999999999 0.1 0  7.049999999999999 0.1 0  7.059999999999999 0.1 0  7.069999999999999 0.1 0  7.079999999999998 0.1 0  7.089999999999999 0.1 0  7.099999999999999 0.1 0  7.109999999999999 0.1 0  7.119999999999999 0.1 0  7.129999999999999 0.1 0  7.139999999999999 0.1 0  7.149999999999999 0.1 0  7.159999999999999 0.1 0  7.169999999999999 0.1 0  7.179999999999999 0.1 0  7.19 0.1 0  7.199999999999999 0.1 0  7.209999999999999 0.1 0  7.219999999999999 0.1 0  7.229999999999999 0.1 0  7.239999999999998 0.1 0  7.249999999999999 0.1 0  7.259999999999999 0.1 0  7.27 0.1 0  7.279999999999999 0.1 0  7.289999999999999 0.1 0  7.299999999999999 0.1 0  7.309999999999999 0.1 0  7.319999999999999 0.1 0  7.329999999999999 0.1 0  7.339999999999999 0.1 0  7.35 0.1 0  7.359999999999999 0.1 0  7.369999999999999 0.1 0  7.379999999999999 0.1 0  7.389999999999999 0.1 0  7.399999999999999 0.1 0  7.409999999999999 0.1 0  7.419999999999999 0.1 0  7.43 0.1 0  7.44 0.1 0  7.449999999999999 0.1 0  7.459999999999999 0.1 0  7.469999999999999 0.1 0  7.48 0.1 0  7.489999999999999 0.1 0  7.499999999999999 0.1 0  7.51 0.1 0  7.52 0.1 0  7.529999999999999 0.1 0  7.539999999999999 0.1 0  7.549999999999999 0.1 0  7.56 0.1 0  7.569999999999999 0.1 0  7.579999999999999 0.1 0  7.59 0.1 0  7.6 0.1 0  7.609999999999999 0.1 0  7.619999999999999 0.1 0  7.629999999999999 0.1 0  7.64 0.1 0  7.649999999999999 0.1 0  7.66 0.1 0  7.67 0.1 0  7.68 0.1 0  7.69 0.1 0  7.699999999999999 0.1 0  7.709999999999999 0.1 0  7.72 0.1 0  7.73 0.1 0  7.739999999999999 0.1 0  7.75 0.1 0  7.76 0.1 0  7.77 0.1 0  7.779999999999999 0.1 0  7.789999999999999 0.1 0  7.8 0.1 0  7.81 0.1 0  7.82 0.1 0  7.83 0.1 0  7.84 0.1 0  7.85 0.1 0  7.859999999999999 0.1 0  7.869999999999999 0.1 0  7.88 0.1 0  7.89 0.1 0  7.899999999999999 0.1 0  7.91 0.1 0  7.92 0.1 0  7.93 0.1 0  7.94 0.1 0  7.949999999999999 0.1 0  7.96 0.1 0  7.97 0.1 0  7.98 0.1 0  7.99 0.1 0  8 0.1099999999999788 0  8 0.1199999999999512 0  8 0.1299999999999173 0  8 0.1399999999998952 0  8 0.1499999999998641 0  8 0.1599999999998293 0  8 0.1699999999998686 0  8 0.1799999999998971 0  8 0.1899999999999147 0  8 0.1999999999999323 0  8 0.2099999999999607 0  7.990085836355354 0.22 0  7.980171672710533 0.22 0  7.970257509065752 0.22 0  7.960343345421177 0.22 0  7.950429181776419 0.22 0  7.940515018131598 0.22 0  7.930600854486929 0.22 0  7.920686690842305 0.22 0  7.910772527197484 0.22 0  7.900858363552682 0.22 0  7.890944199908105 0.22 0  7.88103003626337 0.22 0  7.87111587261855 0.22 0  7.861201708973858 0.22 0  7.851287545329257 0.22 0  7.841373381684436 0.22 0  7.831459218039615 0.22 0  7.821545054395035 0.22 0  7.811630890750322 0.22 0  7.801716727105502 0.22 0  7.791802563460787 0.22 0  7.781888399816208 0.22 0  7.771974236171387 0.22 0  7.762060072526567 0.22 0  7.752145908881964 0.22 0  7.742231745237274 0.22 0  7.732317581592453 0.22 0  7.722403417947716 0.22 0  7.712489254303141 0.22 0  7.702575090658339 0.22 0  7.692660927013642 0.22 0  7.682746763369046 0.22 0  7.672832599724225 0.22 0  7.662918436079405 0.22 0  7.653004272434819 0.22 0  7.643090108790111 0.22 0  7.633175945145291 0.22 0  7.623261781500571 0.22 0  7.613347617855996 0.22 0  7.603433454211177 0.22 0  7.593519290566356 0.22 0  7.583605126921748 0.22 0  7.573690963277063 0.22 0  7.563776799632242 0.22 0  7.5538626359875 0.22 0  7.543948472342924 0.22 0  7.534034308698129 0.22 0  7.524120145053308 0.22 0  7.514205981408487 0.22 0  7.504291817763667 0.22 0  7.494377654118846 0.22 0  7.484463490474027 0.22 0  7.474549326829206 0.22 0  7.464635163184385 0.22 0  7.454720999539565 0.22 0  7.444806835894744 0.22 0  7.434892672249925 0.22 0  7.424978508605104 0.22 0  7.415064344960284 0.22 0  7.405150181315463 0.22 0  7.395236017670642 0.22 0  7.385321854025823 0.22 0  7.375407690381002 0.22 0  7.365493526736182 0.22 0  7.355579363091362 0.22 0  7.345665199446541 0.22 0  7.335751035801721 0.22 0  7.3258368721569 0.22 0  7.315922708512131 0.22 0  7.306008544867555 0.22 0  7.296094381222787 0.22 0  7.286180217577966 0.22 0  7.276266053933307 0.22 0  7.266351890288672 0.22 0  7.256437726643852 0.22 0  7.24652356299906 0.22 0  7.236609399354484 0.22 0  7.226695235709738 0.22 0  7.216781072064918 0.22 0  7.206866908420237 0.22 0  7.196952744775624 0.22 0  7.187038581130803 0.22 0  7.177124417485989 0.22 0  7.167210253841413 0.22 0  7.15729609019669 0.22 0  7.147381926551869 0.22 0  7.137467762907166 0.22 0  7.127609887754289 0.22 0  7.119267423713023 0.22 0  7.112902479254871 0.22 0  7.108462887920409 0.22 0  7.105141639945627 0.22 0  7.101184123304556 0.22 0  7.09900000000009 0.22 0  7.097999999999909 0.22 0  7.09699999999975 0.22 0  7.095999999999861 0.22 0  7.09499999999993 0.22 0  7.093999999999729 0.22 0  7.092999999999591 0.22 0  7.091999999999723 0.22 0  7.090999999999771 0.22 0  7.089999999999549 0.22 0  7.088999999999444 0.22 0  7.087999999999584 0.22 0  7.086999999999611 0.22 0  7.085999999999368 0.22 0  7.084999999999305 0.22 0  7.083999999999445 0.22 0  7.082999999999451 0.22 0  7.081999999999375 0.22 0  7.080999999999514 0.22 0  7.079999999999653 0.22 0  7.078999999999639 0.22 0  7.077999999999584 0.22 0  7.076999999999722 0.22 0  7.075999999999861 0.22 0  7.074999999999826 0.22 0  7.073999999999792 0.22 0  7.07299999999993 0.22 0  7.072000000000069 0.22 0  7.071000000000014 0.22 0  7.069999999999999 0.22 0  7.069000000000139 0.22 0  7.068000000000278 0.22 0  7.067000000000201 0.22 0  7.066000000000208 0.22 0  7.065000000000347 0.22 0  7.064000000000472 0.22 0  7.063000000000389 0.22 0  7.062000000000416 0.22 0  7.061000000000555 0.22 0  7.060000000000451 0.22 0  7.059000000000228 0.22 0  7.058000000000278 0.22 0  7.057000000000409 0.22 0  7.05600000000027 0.22 0  7.055000000000069 0.22 0  7.054000000000139 0.22 0  7.05300000000025 0.22 0  7.05200000000009 0.22 0  7.05099999999991 0.22 0  7.05 0.22 0  7.04900000000009 0.22 0  7.047999999999909 0.22 0  7.04699999999975 0.22 0  7.045999999999861 0.22 0  7.044999999999931 0.22 0  7.04399999999973 0.22 0  7.042999999999591 0.22 0  7.041999999999723 0.22 0  7.040999999999771 0.22 0  7.039999999999549 0.22 0  7.038999999999445 0.22 0  7.037999999999584 0.22 0  7.036999999999612 0.22 0  7.035999999999528 0.22 0  7.034999999999653 0.22 0  7.033999999999792 0.22 0  7.032999999999799 0.22 0  7.031999999999723 0.22 0  7.030999999999861 0.22 0  7.03 0.22 0  7.028999999999987 0.22 0  7.02799999999993 0.22 0  7.027000000000069 0.22 0  7.026000000000209 0.22 0  7.025000000000174 0.22 0  7.024000000000139 0.22 0  7.023000000000278 0.22 0  7.022000000000416 0.22 0  7.021000000000361 0.22 0  7.020000000000347 0.22 0  7.019000000000486 0.22 0  7.018000000000624 0.22 0  7.017000000000548 0.22 0  7.016000000000555 0.22 0  7.015000000000694 0.22 0  7.014000000000632 0.22 0  7.013000000000389 0.22 0  7.012000000000416 0.22 0  7.011000000000555 0.22 0  7.010000000000451 0.22 0  7.009000000000229 0.22 0  7.008000000000278 0.22 0  7.007000000000409 0.22 0  7.00600000000027 0.22 0  7.005000000000069 0.22 0  7.004000000000139 0.22 0  7.00300000000025 0.22 0  7.00200000000009 0.22 0  7.00099999999991 0.22 0  6.994809698470582 0.22 0  6.991569006236496 0.22 0  6.987074728859082 0.22 0  6.980583540116057 0.22 0  6.972279556173985 0.22 0  6.962550869064059 0.22 0  6.952627664228347 0.22 0  6.942704459392635 0.22 0  6.932781254556923 0.22 0  6.922858049721211 0.22 0  6.912934844885499 0.22 0  6.903011640049788 0.22 0  6.893088435214075 0.22 0  6.883165230378363 0.22 0  6.873242025542651 0.22 0
[...]
<PointData  Scalars="pressure"> 
<DataArray  type="Float64"  Name="pressure"  format="ascii">-4.2028286495853924e-07  -1.8186166528305459e+00  -1.8186166528305534e+00  -4.5850953052095065e+00  -2.1703197715829265e+00  -4.0589600443248122e-07  -1.5047452970798516e-02  -3.0095096162076635e-02  -4.5143113501563546e-02  -6.0190674186770973e-02  -7.5238421935367950e-02  -9.0286801560890001e-02  -1.0533463630533614e-01  -1.2038291324427859e-01  -1.3543171605481413e-01  -1.5047969428696190e-01  -1.6552844138671138e-01  -1.8057729481463264e-01  -1.9562677071523460e-01  -2.1067582637511684e-01  -2.2572561418055345e-01  -2.4077597578985604e-01  -2.5582587840233256e-01  -2.7087744292149890e-01  -2.8592871196978603e-01  -3.0098092695776679e-01  -3.1603352209708352e-01  -3.3108726216161238e-01  -3.4614231224988462e-01  -3.6119728285348118e-01  -3.7625484281955163e-01  -3.9131289288823967e-01  -4.0637288019064061e-01  -4.2143434220564779e-01  -4.3649824512523044e-01  -4.5156480504975821e-01  -4.6663296283343553e-01  -4.8170541302485476e-01  -4.9678038084740400e-01  -5.1185957966482110e-01  -5.2694271958065775e-01  -5.4203124506361811e-01  -5.5712559314277643e-01  -5.7222530101008973e-01  -5.8733276429318659e-01  -6.0244751096050164e-01  -6.1757121359273270e-01  -6.3270469970900611e-01  -6.4784986636202702e-01  -6.6300634060915065e-01  -6.7817658048874652e-01  -6.9336263003987375e-01  -7.0856481179734543e-01  -7.2378626045520089e-01  -7.3902795513746933e-01  -7.5429349901983767e-01  -7.6958341866410740e-01  -7.8490162827705690e-01  -8.0025070205376903e-01  -8.1563388896751643e-01  -8.3105355788633251e-01  -8.4651614115300489e-01  -8.6202074464833067e-01  -8.7757647833446206e-01  -8.9318400391568720e-01  -9.0885245987595353e-01  -9.2458102559263200e-01  -9.4038139391203546e-01  -9.5625526216632328e-01  -9.7221072782204376e-01  -9.8825434587770211e-01  -1.0043913308805237e+00  -1.0206349831488839e+00  -1.0369836738084151e+00  -1.0534529877567020e+00  -1.0700500652599063e+00  -1.0867827269428194e+00  -1.1036605957035617e+00  -1.1206939774522231e+00  -1.1378957050380087e+00  -1.1552674442880346e+00  -1.1728301810148256e+00  -1.1905855078629011e+00  -1.2085546532542335e+00  -1.2267358279408784e+00  -1.2451477723032141e+00  -1.2638052887582387e+00  -1.2827091602108287e+00  -1.3018818877886069e+00  -1.3213306565886840e+00  -1.3410832867956624e+00  -1.3611588442763427e+00  -1.3815914305034762e+00  -1.4024238037228154e+00  -1.4237301965507960e+00  -1.4456183590947707e+00  -1.4682180915500243e+00  -1.4916307241415347e+00  -1.5161474065616660e+00  -1.5418963432780486e+00  -1.5690562458652961e+00  -1.5978765698521862e+00  -1.6280114427490491e+00  -1.6592887029603289e+00  -1.6914920685203432e+00  -1.7229967638760224e+00  -1.7533076983930893e+00  -1.7812551576411380e+00  -1.8060644409739575e+00  -1.8263860954148474e+00  -1.8424450588303409e+00  -1.8536314470192186e+00  -1.8599474584992668e+00  -1.8620336867458500e+00  -1.8605181896381977e+00  -1.8566364653604126e+00  -1.8507223724356971e+00  -1.8443924381038050e+00  -1.8381995733505008e+00  -1.8327030425145567e+00  -1.8282302358282456e+00  -1.8248066607401534e+00  -1.8222866300849128e+00  -1.8205777401951235e+00  -1.8195052326173828e+00  -1.8188168111538732e+00  -1.8184899222031077e+00  -1.8183392633967781e+00  -1.8182802060544907e+00  -1.8183046750452676e+00  -1.8183480757493777e+00  -1.8184012121855977e+00  -1.8184515516637723e+00  -1.8184958025732165e+00  -1.8185302400363239e+00  -1.8185579363743558e+00  -1.8185781688383491e+00  -1.8185923944410032e+00  -1.8186021096706650e+00  -1.8186085003297534e+00  -1.8186127428591015e+00  -1.8186151492699081e+00  -1.8186165260432672e+00  -1.8186172323186378e+00  -1.8186174907020165e+00  -1.8186175500712081e+00  -1.8186174487970865e+00  -1.8186173198702131e+00  -1.8186171849954111e+00  -1.8186170367937349e+00  -1.8186169267873444e+00  -1.8186168434610701e+00  -1.8186167745943000e+00  -1.8186167251933738e+00  -1.8186166912080501e+00  -1.8186166711462373e+00  -1.8186166595593785e+00  -1.8186166536783512e+00  -1.8186166512494337e+00  -1.8186166504016332e+00  -1.8186166505071708e+00  -1.8186166509271628e+00  -1.8186166514107769e+00  -1.8186166518700593e+00  -1.8186166522743898e+00  -1.8186166524966032e+00  -1.8186166525838021e+00  -1.8186166526721066e+00  -1.8186166527287020e+00  -1.8186166527659209e+00  -1.8186166527967973e+00  -1.8186166528150507e+00  -1.8186166528244747e+00  -1.8186166528285668e+00  -1.8186166528302117e+00  -1.8186166528308638e+00  -1.8186166528309169e+00  -1.8186166528308052e+00  -1.8186166528306644e+00  -1.8186166528306942e+00  -1.8186166528306711e+00  -1.8186166528306333e+00  -1.8186166528306094e+00  -1.8186166528305909e+00  -1.8186166528305969e+00  -1.8186166528305674e+00  -1.8186166528305667e+00  -1.8186166528305716e+00  -1.8186166528305625e+00  -1.8186166528305603e+00  -1.8186166528305578e+00  -1.8186166528305718e+00  -1.8186166528305616e+00  -1.8186166528305603e+00  -1.8186166528305630e+00  -1.8186166528305472e+00  -1.8186166528305512e+00  -1.8186166528305439e+00  -1.8186166528305545e+00  -1.8186166528305585e+00  -1.8186166528305647e+00  -1.8186166528305503e+00  -1.8186166528305507e+00  -1.8186166528305525e+00  -1.8186166528305616e+00  -1.8186166528305545e+00  -1.8186166528305459e+00  -1.8186166528305578e+00  -1.8186166528305585e+00  -1.8186166528305512e+00  -1.8186166528305547e+00  -1.8186166528305496e+00  -1.8186166528305556e+00  -1.8186166528305510e+00  -1.8186166528305532e+00  -1.8186166528305727e+00  -1.8186166528305598e+00  -1.8186166528305643e+00  -1.8186166528305769e+00  -1.8186166528305625e+00  -1.8186166528305809e+00  -1.8186166528305701e+00  -1.8186166528305692e+00  -1.8186166528305647e+00  -1.8186166528305752e+00  -1.8186166528305612e+00  -1.8186166528305612e+00  -1.8186166528305501e+00  -1.8186166528305407e+00  -1.8186166528305514e+00  -1.8186166528305556e+00  -1.8186166528305499e+00  -1.8186166528305479e+00  -1.8186166528305518e+00  -1.8186166528305381e+00  -1.8186166528305237e+00  -1.8186166528305208e+00  -1.8186166528305139e+00  -1.8186166528304915e+00  -1.8186166528304715e+00  -1.8186166528304442e+00  -1.8186166528304109e+00  -1.8186166528303416e+00  -1.8186166528301984e+00  -1.8186166528300924e+00  -1.8186166528301397e+00  -1.8186166528304473e+00  -1.8186166528310590e+00  -1.8186166528322749e+00  -1.8186166528342793e+00  -1.8186166528378560e+00  -1.8186166528416843e+00  -1.8186166528331804e+00  -1.8186166528609711e+00  -1.8186166530224068e+00  -1.8186166531464099e+00  -1.8186166532999635e+00  -1.8186166536525368e+00  -1.8186166540741291e+00  -1.8186166545643765e+00  -1.8186166549779594e+00  -1.8186166552696739e+00  -1.8186166548345353e+00  -1.8186166535076065e+00  -1.8186166488661697e+00  -1.8186166398395915e+00  -1.8186166241026263e+00  -1.8186165970645907e+00  -1.8186165548129338e+00  -1.8186164978021526e+00  -1.8186164234191535e+00  -1.8186163278262613e+00  -1.8186161947006343e+00  -1.8186160479562845e+00  -1.8186159232368402e+00  -1.8186157945463388e+00  -1.8186157513673593e+00  -1.8186158966469725e+00  -1.8186163015654122e+00  -1.8186173457050567e+00  -1.8186190343742081e+00  -1.8186221467887005e+00  -1.8186271709986230e+00  -1.8186347897455870e+00  -1.8186460352723635e+00  -1.8186623209224304e+00  -1.8186855666337212e+00  -1.8187150407775610e+00  -1.8187560785925199e+00  -1.8188027052387368e+00  -1.8188653339647971e+00  -1.8189192012664332e+00  -1.8189607432063777e+00  -1.8189964138258388e+00  -1.8189277242668469e+00  -1.8187565410662803e+00  -1.8184086115626024e+00  -1.8175703945029493e+00  -1.8164318588023196e+00  -1.8137751390565002e+00  -1.8099245675583058e+00  -1.8035326378200183e+00  -1.7906952190285630e+00  -1.7685009423102354e+00  -1.7272116110300204e+00  -1.6693129062238177e+00  -1.5249978947349763e+00  -1.5126700398777733e+00  1.3478774564909701e+00  -4.5780513696750402e+00  -2.8965692953941238e+00  -2.6824163888530284e+00  -2.4655096255969067e+00  -2.3491892400365355e+00  -2.2685950062048272e+00  -2.2099436393002989e+00  -2.1651105751118953e+00  -2.1313401994571328e+00  -2.1019956332636132e+00  -2.0805023853675029e+00  -2.0609703622468381e+00  -2.0448452077038914e+00  -2.0307614449934470e+00  -2.0185885457041755e+00  -2.0078974346065235e+00  -1.9983815954387674e+00  -1.9898245082956703e+00  -1.9821833246327469e+00  -1.9752933837208790e+00  -1.9689978887628590e+00  -1.9632539846284747e+00  -1.9579700073620887e+00  -1.9530818147131428e+00  -1.9484943561633321e+00  -1.9443381063890979e+00  -1.9403827230400701e+00  -1.9366911285924173e+00  -1.9332101860815187e+00  -1.9299299917394972e+00  -1.9268615073081199e+00  -1.9239052291944105e+00  -1.9211407430755634e+00  -1.9184871444144398e+00  -1.9159668130622667e+00  -1.9135507077595366e+00  -1.9112425516055809e+00  -1.9090295011715719e+00  -1.9069065473717706e+00  -1.9048674311476341e+00  -1.9029047621713020e+00  -1.9010144036044097e+00  -1.8991947830584586e+00  -1.8974419151314030e+00  -1.8957540253242715e+00  -1.8941269867691484e+00  -1.8925586902109020e+00  -1.8910456469714330e+00  -1.8895895969798324e+00  -1.8881911995719132e+00  -1.8868492085189732e+00  -1.8855599235698004e+00  -1.8843277612709117e+00  -1.8831528180917423e+00  -1.8820338906862875e+00  -1.8809794280063967e+00  -1.8799823864991727e+00  -1.8790479150732058e+00  -1.8781885910622205e+00  -1.8773943396748580e+00  -1.8766723495079409e+00  -1.8760264225902978e+00  -1.8754880227949418e+00  -1.8750138327620174e+00  -1.8746569485620996e+00  -1.8743994161563355e+00  -1.8742582080636072e+00  -1.8742463404835923e+00  -1.8743673094237596e+00  -1.8746445307442099e+00  -1.8750928758796370e+00  -1.8756745308964675e+00  -1.8765541030446782e+00  -1.8775876580200854e+00  -1.8789080252280888e+00  -1.8805379766783532e+00  -1.8824355231116721e+00  -1.8848053264361009e+00  -1.8873838072774662e+00  -1.8907161078531691e+00  -1.8944625608993253e+00  -1.8988234066108085e+00  -1.9040822503120149e+00  -1.9099498775469226e+00  -1.9172519597884359e+00  -1.9257080317503990e+00  -1.9356830664963385e+00  -1.9476844034440228e+00  -1.9621751830863101e+00  -1.9798975692562704e+00  -2.0015528714214890e+00  -2.0283235889164999e+00  -2.0624737670246263e+00  -2.1098208798490834e+00  -2.1691908220079448e+00  -2.2678028780456780e+00  -2.3947098671725087e+00  -2.5711180113270937e+00  -3.7471355083994498e+00  -3.7576492678067808e-01  -1.5462375685736853e+00  -1.4680066989109815e+00  -1.5420085431011541e+00  -1.5619170301895207e+00  -1.5598194030240160e+00  -1.5493429150433120e+00  -1.5328882098897971e+00  -1.5140193256297956e+00  -1.4937348633728937e+00  -1.4729981611283780e+00  -1.4518788547941499e+00  -1.4307950084302135e+00  -1.4098903531437017e+00  -1.3891610355581772e+00  -1.3687138431844981e+00  -1.3485674747749283e+00  -1.3287360721519235e+00  -1.3092028223387620e+00  -1.2899600199705621e+00  -1.2710177983698496e+00  -1.2523412592288070e+00  -1.2339326720603536e+00  -1.2157550117374383e+00  -1.1978201736190806e+00  -1.1800945661518496e+00  -1.1625774963283353e+00  -1.1452483628346908e+00  -1.1281071704646151e+00  -1.1111292394114651e+00  -1.0943128474762729e+00  -1.0776418848243470e+00  -1.0611111785309413e+00  -1.0447109308428817e+00  -1.0284303829111090e+00  -1.0122636908319456e+00  -9.9620090872953215e-01  -9.8023503216788688e-01  -9.6435804720155616e-01  -9.4856645028836761e-01  -9.3284805150867722e-01  -9.1720556413873011e-01  -9.0162516705906226e-01  -8.8610615077897814e-01  -8.7064247672187378e-01  -8.5522770270213655e-01  -8.3986148563443130e-01  -8.2453590840588908e-01  -8.0924984438215875e-01  -7.9399996253635940e-01  -7.7878069474159295e-01  -7.6359191805999593e-01  -7.4842883274760375e-01  -7.3329026220227411e-01  -7.1817292578771863e-01  -7.0307607564124464e-01  -6.8799593341507537e-01  -6.7293302633934615e-01  -6.5788311001251687e-01  -6.4284720894327052e-01  -6.2782258640022948e-01  -6.1280815589789916e-01  -5.9780358127392363e-01  -5.8280729065488890e-01  -5.6781805843418431e-01  -5.5283620163238689e-01  -5.3785936339984297e-01  -5.2288817392017639e-01  -5.0792193975268707e-01  -4.9295958238840798e-01  -4.7800135518962655e-01  -4.6304539298076486e-01  -4.4809358955178963e-01  -4.3314317861641266e-01  -4.1819570370951609e-01  -4.0324985163798888e-01  -3.8830620806808192e-01  -3.7336403959664977e-01  -3.5842238114317260e-01  -3.4348314439823480e-01  -3.2854381433599195e-01  -3.1360606237740180e-01  -2.9866873160390001e-01  -2.8373258546279112e-01  -2.6879695847339341e-01  -2.5386103257186404e-01  -2.3892683472970344e-01  -2.2399187419154992e-01  -2.0905784975923974e-01  -1.9412401429324413e-01  -1.7919080082238306e-01  -1.6425706589977437e-01  -1.4932418786548712e-01  -1.3439151961792242e-01  -1.1945809344081969e-01  -1.0452590832848253e-01  -8.9593308132593377e-02  -7.4661021001365929e-02  -5.9728291263989208e-02  -4.4796217513055382e-02  -2.9864084167190295e-02  -1.4931926965931246e-02  1.8040935456410738e-08  -3.2482701961640225e-08  7.7009233163909792e-08  1.3078486845848743e-07  -9.9444219474810950e-08  3.5725819698234257e-07  -1.9862271396435147e-07  1.1890716652246336e-07  -3.7547742099012927e-08  5.9212275965416846e-08  2.7643184895605162e-08  -1.7859325486555084e+00  -1.8345894770526243e+00  -1.7055399811133494e+00  -1.8467254435629228e+00  -1.8220229546264917e+00  -1.8545164905791909e+00  -1.7971841857560251e+00  -1.8635982596289895e+00  -1.8926645772040758e+00  -1.9215167702121885e+00  -1.8535469931752409e+00  -1.8390095831070661e+00  -1.8480601686013876e+00  -1.7253374498938583e+00  -1.8908849754772079e+00  -1.9341388037781839e+00  -1.8723135358813290e+00  -1.8086842011951130e+00  -1.8606719086485586e+00  -1.5480296796441169e+00  -1.9160206640940733e+00  -1.8185927139884455e+00  -1.9838430066486727e+00  -1.8604784927871270e+00  -1.8234760688396541e+00  -1.4160240275366895e+00  -1.8186166528305383e+00  -1.8186166528305423e+00  -9.7059344898152863e-02  -1.8186166528305319e+00  -2.0405653069667395e-01  -1.8186166528305070e+00  -1.8186166528400209e+00  -3.0862492578567335e-01  -1.8186157315720370e+00  -1.8186166528108083e+00  -1.8186152517174359e+00  -1.8186166530866537e+00  -1.8186165897289395e+00  -4.1303830239236566e-01  -5.1718043788435752e-01  -6.1807611896529602e-01  -1.2824587238183021e+00  -7.2447436882596206e-01  -1.1504394300100758e+00  -8.3582490748753713e-01  -1.0339110908062303e+00  -1.8186166534182180e+00  -1.8624756525288721e+00  -9.2495142444506429e-01  -1.9781010122884508e+00  -1.8858658106206028e+00  -1.8689936894068868e+00  -1.8284253268239432e+00  -1.7005997775741104e+00  -1.8651321404983556e+00  -1.8730658611850861e+00  -1.9454389569819721e+00  -1.8761993804791111e+00  -1.9047650198856241e+00  -1.8431986001493064e+00  -1.8363964867767815e+00  -1.9367178417781636e+00  -1.9615960976081963e+00  -1.8742647094830678e+00  -1.8372654585874431e+00  -1.7993914921821794e+00  -1.8817182464328093e+00  -1.8201959298257420e+00  -1.6004253553012826e+00  -1.7924584240940251e+00  -1.8927510665692644e+00  -1.9207216640893927e+00  -1.8963886667024643e+00  -1.0934065612186150e+00  -1.8186132655345855e+00  -7.7904801540113000e-01  -1.8186166528305490e+00  -1.2122555895787896e+00  -1.4862155614877640e-01  -1.8186166528305263e+00  -1.8186166530225083e+00  -2.5742822881130673e-01  -1.8186166528305310e+00  -1.8185895020029359e+00  -1.7690463023963678e+00  -3.6194076347038318e-01  -1.8186166528321746e+00  -6.7635489726806897e-01  -1.8186166528682335e+00  -4.6644142933769422e-01  -1.8186429718734316e+00  -1.8186166525343956e+00  -1.8186197962985409e+00  -5.6805770407520761e-01  -1.2164315567707622e+00  -7.7813841773648140e-01  -1.0905226231278491e+00  -1.8186166528792311e+00  -6.6933543777438920e-01  -1.8186166528290308e+00  -5.6797253309964368e-01  -1.8186166528305014e+00  -4.6414451025364289e-01  -1.8186166528305314e+00  -3.5910702976042802e-01  -1.8186166528305352e+00  -9.8063251927111938e-01  -2.5528926932779061e-01  -1.5265600733632714e-01  -1.8186167160889266e+00  -9.7696591839833302e-01  -1.8186165825228677e+00  -2.0353961567616401e+00  -1.8182588945008986e+00  -1.8694387689132530e+00  -1.8762218519732758e+00  -1.8189053893789153e+00  -1.3507594708251138e+00  -1.3431763959764740e+00  -1.8125420942327182e+00  -1.6305582038594029e+00  -1.8452259851516497e+00  -1.9172091851091848e+00  -1.4734484126702569e+00  -1.8334210996583442e+00  -1.4806543497024192e+00  -1.8186166260982755e+00  -8.8124628424612639e-01  -1.8317719047004242e+00  -1.8186166794683158e+00  -8.8143867813792887e-01  -1.8068042867471223e+00  -5.1814521228567272e-02  -1.8186166528305499e+00  -5.4809984770218541e-02  -1.8186166528305434e+00  -1.8134492016247687e+00  -1.9046408210550541e+00  -1.8696602180358504e+00  -1.8353611255914180e+00  -2.1043380037942825e+00  -1.8229916909551993e+00  -1.7344165795035140e+00  -1.8676065354072993e+00  -1.5942701946795561e+00  -1.5670511665228604e+00  -1.7708787083746154e+00  -1.8274662271214481e+00  -1.8778340849732542e+00  -1.9722470398881162e+00  -1.8900632032873903e+00  -1.8722046953092621e+00  -1.8589031155176718e+00  -1.8972508986401528e+00  -1.5383118182666269e+00  -1.8482638638652349e+00  -1.9306280615460893e+00  -1.9955594722985273e+00  -1.7610139789865957e+00  -1.8279540854575631e+00  -1.8190286259546653e+00  -1.8533575587500175e+00  -1.8186166570685340e+00  -1.1645960928851586e+00  -1.8185934764773735e+00  -8.2183148884444035e-01  -7.1641718470512983e-01  -1.8186166526184686e+00  -1.8186157755920747e+00  -1.0465969697853736e+00  -6.1089018200169642e-01  -1.8186166528180188e+00  -5.0591641632792805e-01  -1.8186166528303875e+00  -1.8186166528305567e+00  -4.0123780779221169e-01  -1.8186166528305407e+00  -1.0493927571725074e-01  -1.8186166528305239e+00  -1.8740775597200934e+00  -9.3388167094659891e-01  -1.8186167652625951e+00  -1.8186166528305934e+00  -1.8941959324266761e-01  -1.2660897457795826e+00  -1.8185609496253405e+00  -1.8186166528305372e+00  -1.8186166528371996e+00  -2.9405798003905048e-01  -1.8186166530204049e+00  -1.8186697070187219e+00  -2.9660731695191889e-01  -1.8186398517750679e+00  -1.8186166487899682e+00  -1.8186176571038435e+00  -3.9923152143635104e-01  -5.0358570030900385e-01  -6.3250609215910536e-01  -1.2672032796597412e+00  -7.3666854203593524e-01  -1.8186165388946767e+00  -1.1684706678771886e+00  -8.1969174774141651e-01  -1.0494399978444287e+00  -1.8186166528305376e+00  -1.9203509995545426e-01  -9.3712052005551805e-01  -1.4011394550498328e+00  -1.8186166528305410e+00  -1.0557851470498686e-01  -1.4133232878893893e+00  -1.8738583388911014e+00  -1.9040947876153271e+00  -1.9119832003320745e+00  -1.7029358120518352e+00  -1.8344971146467626e+00  -1.8168743290463973e+00  -1.7996480110382282e+00  -1.8055873002818981e+00  -1.8201171300135865e+00  -1.8566489980647054e+00  -1.8640300409877035e+00  -1.8334876413660464e+00  -1.8711004951655972e+00  -1.9374646499477579e+00  -1.9112592823668604e+00  -1.9499415178270596e+00  -2.2016872219320014e+00  -1.8855282255180825e+00  -2.0218223908823467e+00  -1.8124480776378225e+00  -1.7408746038327061e+00  -1.8816363747443841e+00  -1.7967006760200741e+00  -1.9026323564171779e+00  -1.8850356133734043e+00  -2.2362772934102551e+00  -1.8903838729998121e+00  -1.8369643943312228e+00  -1.8202074762534501e+00  -1.8685400427810139e+00  -1.8612005293443605e+00  -1.8186166528305456e+00  -4.0981109261046846e-02  -1.5329095481964226e+00  -1.8326827590939019e+00  -1.7487422947388660e+00  -1.9054451743100769e+00  -1.8951731626151460e+00  -1.8612037931707470e+00  -1.9585753902833352e+00  -1.8429145854275375e+00  -1.6607290120107763e+00  -1.8344174021069728e+00  -1.8390372071995000e+00  -1.5828005889351155e+00  -1.8584094053001110e+00  -1.6569791819355959e+00  -2.0269543230829306e+00  -1.9916734421670956e+00  -1.8541006440992718e+00  -1.9129681593209662e+00  -1.8873437245111868e+00  -1.8786981466532162e+00  -1.8561090532104545e+00  -1.8856712562642699e+00  -1.7776839348451097e+00  -5.9176053090289049e-01  -1.1248048904596621e+00  -5.4232176350377947e-01  -4.3620411271162179e-01  -3.3165421791990879e-01  -2.2715333665336937e-01  -1.8186279235746241e+00  -1.818616653352