<?xml version="1.0"?>
<VTKFile type="UnstructuredGrid"  version="0.1"  >
<UnstructuredGrid>
<Piece  NumberOfPoints="4882" NumberOfCells="9241">
<Points>
<DataArray  type="Float64"  NumberOfComponents="3"  format="ascii">6 0.1 0  8 0.1 0  8 0.22 0  7.1 0.22 0  7 0.22 0  6 0.22 0  6.01 0.1 0  6.02 0.1 0  6.03 0.1 0  6.04 0.1 0  6.05 0.1 0  6.06 0.1 0  6.07 0.1 0  6.08 0.1 0  6.09 0.1 0  6.1 0.1 0  6.109999999999999 0.1 0  6.12 0.1 0  6.13 0.1 0  6.14 0.1 0  6.149999999999999 0.1 0  6.16 0.1 0  6.17 0.1 0  6.18 0.1 0  6.19 0.1 0  6.199999999999999 0.1 0  6.21 0.1 0  6.22 0.1 0  6.23 0.1 0  6.239999999999999 0.1 0  6.25 0.1 0  6.26 0.1 0  6.27 0.1 0  6.279999999999999 0.1 0  6.289999999999999 0.1 0  6.3 0.1 0  6.31 0.1 0  6.319999999999999 0.1 0  6.329999999999999 0.1 0  6.34 0.1 0  6.35 0.1 0  6.359999999999999 0.1 0  6.369999999999999 0.1 0  6.379999999999999 0.1 0  6.389999999999999 0.1 0  6.399999999999999 0.1 0  6.409999999999999 0.1 0  6.419999999999999 0.1 0  6.429999999999999 0.1 0  6.44 0.1 0  6.449999999999999 0.1 0  6.459999999999999 0.1 0  6.469999999999999 0.1 0  6.479999999999999 0.1 0  6.489999999999999 0.1 0  6.499999999999999 0.1 0  6.509999999999999 0.1 0  6.519999999999999 0.1 0  6.529999999999998 0.1 0  6.539999999999999 0.1 0  6.549999999999999 0.1 0  6.559999999999999 0.1 0  6.569999999999999 0.1 0  6.579999999999998 0.1 0  6.589999999999998 0.1 0  6.599999999999999 0.1 0  6.609999999999999 0.1 0  6.619999999999998 0.1 0  6.629999999999998 0.1 0  6.639999999999999 0.1 0  6.649999999999999 0.1 0  6.659999999999998 0.1 0  6.669999999999998 0.1 0  6.679999999999999 0.1 0  6.689999999999999 0.1 0  6.699999999999998 0.1 0  6.709999999999998 0.1 0  6.719999999999999 0.1 0  6.729999999999999 0.1 0  6.739999999999998 0.1 0  6.749999999999998 0.1 0  6.759999999999998 0.1 0  6.769999999999999 0.1 0  6.779999999999998 0.1 0  6.789999999999998 0.1 0  6.799999999999999 0.1 0  6.809999999999999 0.1 0  6.819999999999999 0.1 0  6.829999999999998 0.1 0  6.839999999999999 0.1 0  6.849999999999999 0.1 0  6.859999999999999 0.1 0  6.869999999999998 0.1 0  6.879999999999999 0.1 0  6.889999999999999 0.1 0  6.899999999999999 0.1 0  6.909999999999998 0.1 0  6.919999999999998 0.1 0  6.929999999999999 0.1 0  6.939999999999999 0.1 0  6.949999999999998 0.1 0  6.959999999999999 0.1 0  6.969999999999999 0.1 0  6.979999999999999 0.1 0  6.989999999999998 0.1 0  6.999999999999999 0.1 0  7.009999999999999 0.1 0  7.019999999999999 0.1 0  7.029999999999999 0.1 0  7.039999999999999 0.1 0  7.049999999999999 0.1 0  7.059999999999999 0.1 0  7.069999999999999 0.1 0  7.079999999999998 0.1 0  7.089999999999999 0.1 0  7.099999999999999 0.1 0  7.109999999999999 0.1 0  7.119999999999999 0.1 0  7.129999999999999 0.1 0  7.139999999999999 0.1 0  7.149999999999999 0.1 0  7.159999999999999 0.1 0  7.169999999999999 0.1 0  7.179999999999999 0.1 0  7.19 0.1 0  7.199999999999999 0.1 0  7.209999999999999 0.1 0  7.219999999999999 0.1 0  7.229999999999999 0.1 0  7.239999999999998 0.1 0  7.249999999999999 0.1 0  7.259999999999999 0.1 0  7.27 0.1 0  7.279999999999999 0.1 0  7.289999999999999 0.1 0  7.299999999999999 0.1 0  7.309999999999999 0.1 0  7.319999999999999 0.1 0  7.329999999999999 0.1 0  7.339999999999999 0.1 0  7.35 0.1 0  7.359999999999999 0.1 0  7.369999999999999 0.1 0  7.379999999999999 0.1 0  7.389999999999999 0.1 0  7.399999999999999 0.1 0  7.409999999999999 0.1 0  7.419999999999999 0.1 0  7.43 0.1 0  7.44 0.1 0  7.449999999999999 0.1 0  7.459999999999999 0.1 0  7.469999999999999 0.1 0  7.48 0.1 0  7.489999999999999 0.1 0  7.499999999999999 0.1 0  7.51 0.1 0  7.52 0.1 0  7.529999999999999 0.1 0  7.539999999999999 0.1 0  7.549999999999999 0.1 0  7.56 0.1 0  7.569999999999999 0.1 0  7.579999999999999 0.1 0  7.59 0.1 0  7.6 0.1 0  7.609999999999999 0.1 0  7.619999999999999 0.1 0  7.629999999999999 0.1 0  7.64 0.1 0  7.649999999999999 0.1 0  7.66 0.1 0  7.67 0.1 0  7.68 0.1 0  7.69 0.1 0  7.699999999999999 0.1 0  7.709999999999999 0.1 0  7.72 0.1 0  7.73 0.1 0  7.739999999999999 0.1 0  7.75 0.1 0  7.76 0.1 0  7.77 0.1 0  7.779999999999999 0.1 0  7.789999999999999 0.1 0  7.8 0.1 0  7.81 0.1 0  7.82 0.1 0  7.83 0.1 0  7.84 0.1 0  7.85 0.1 0  7.859999999999999 0.1 0  7.869999999999999 0.1 0  7.88 0.1 0  7.89 0.1 0  7.899999999999999 0.1 0  7.91 0.1 0  7.92 0.1 0  7.93 0.1 0  7.94 0.1 0  7.949999999999999 0.1 0  7.96 0.1 0  7.97 0.1 0  7.98 0.1 0  7.99 0.1 0  8 0.1099999999999788 0  8 0.1199999999999512 0  8 0.1299999999999173 0  8 0.1399999999998952 0  8 0.1499999999998641 0  8 0.1599999999998293 0  8 0.1699999999998686 0  8 0.1799999999998971 0  8 0.1899999999999147 0  8 0.1999999999999323 0  8 0.2099999999999607 0  7.990085836355354 0.22 0  7.980171672710533 0.22 0  7.970257509065752 0.22 0  7.960343345421177 0.22 0  7.950429181776419 0.22 0  7.940515018131598 0.22 0  7.930600854486929 0.22 0  7.920686690842305 0.22 0  7.910772527197484 0.22 0  7.900858363552682 0.22 0  7.890944199908105 0.22 0  7.88103003626337 0.22 0  7.87111587261855 0.22 0  7.861201708973858 0.22 0  7.851287545329257 0.22 0  7.841373381684436 0.22 0  7.831459218039615 0.22 0  7.821545054395035 0.22 0  7.811630890750322 0.22 0  7.801716727105502 0.22 0  7.791802563460787 0.22 0  7.781888399816208 0.22 0  7.771974236171387 0.22 0  7.762060072526567 0.22 0  7.752145908881964 0.22 0  7.742231745237274 0.22 0  7.732317581592453 0.22 0  7.722403417947716 0.22 0  7.712489254303141 0.22 0  7.702575090658339 0.22 0  7.692660927013642 0.22 0  7.682746763369046 0.22 0  7.672832599724225 0.22 0  7.662918436079405 0.22 0  7.653004272434819 0.22 0  7.643090108790111 0.22 0  7.633175945145291 0.22 0  7.623261781500571 0.22 0  7.613347617855996 0.22 0  7.603433454211177 0.22 0  7.593519290566356 0.22 0  7.583605126921748 0.22 0  7.573690963277063 0.22 0  7.563776799632242 0.22 0  7.5538626359875 0.22 0  7.543948472342924 0.22 0  7.534034308698129 0.22 0  7.524120145053308 0.22 0  7.514205981408487 0.22 0  7.504291817763667 0.22 0  7.494377654118846 0.22 0  7.484463490474027 0.22 0  7.474549326829206 0.22 0  7.464635163184385 0.22 0  7.454720999539565 0.22 0  7.444806835894744 0.22 0  7.434892672249925 0.22 0  7.424978508605104 0.22 0  7.415064344960284 0.22 0  7.405150181315463 0.22 0  7.395236017670642 0.22 0  7.385321854025823 0.22 0  7.375407690381002 0.22 0  7.365493526736182 0.22 0  7.355579363091362 0.22 0  7.345665199446541 0.22 0  7.335751035801721 0.22 0  7.3258368721569 0.22 0  7.315922708512131 0.22 0  7.306008544867555 0.22 0  7.296094381222787 0.22 0  7.286180217577966 0.22 0  7.276266053933307 0.22 0  7.266351890288672 0.22 0  7.256437726643852 0.22 0  7.24652356299906 0.22 0  7.236609399354484 0.22 0  7.226695235709738 0.22 0  7.216781072064918 0.22 0  7.206866908420237 0.22 0  7.196952744775624 0.22 0  7.187038581130803 0.22 0  7.177124417485989 0.22 0  7.167210253841413 0.22 0  7.15729609019669 0.22 0  7.147381926551869 0.22 0  7.137467762907166 0.22 0  7.127609887754289 0.22 0  7.119267423713023 0.22 0  7.112902479254871 0.22 0  7.108462887920409 0.22 0  7.105141639945627 0.22 0  7.101184123304556 0.22 0  7.09900000000009 0.22 0  7.097999999999909 0.22 0  7.09699999999975 0.22 0  7.095999999999861 0.22 0  7.09499999999993 0.22 0  7.093999999999729 0.22 0  7.092999999999591 0.22 0  7.091999999999723 0.22 0  7.090999999999771 0.22 0  7.089999999999549 0.22 0  7.088999999999444 0.22 0  7.087999999999584 0.22 0  7.086999999999611 0.22 0  7.085999999999368 0.22 0  7.084999999999305 0.22 0  7.083999999999445 0.22 0  7.082999999999451 0.22 0  7.081999999999375 0.22 0  7.080999999999514 0.22 0  7.079999999999653 0.22 0  7.078999999999639 0.22 0  7.077999999999584 0.22 0  7.076999999999722 0.22 0  7.075999999999861 0.22 0  7.074999999999826 0.22 0  7.073999999999792 0.22 0  7.07299999999993 0.22 0  7.072000000000069 0.22 0  7.071000000000014 0.22 0  7.069999999999999 0.22 0  7.069000000000139 0.22 0  7.068000000000278 0.22 0  7.067000000000201 0.22 0  7.066000000000208 0.22 0  7.065000000000347 0.22 0  7.064000000000472 0.22 0  7.063000000000389 0.22 0  7.062000000000416 0.22 0  7.061000000000555 0.22 0  7.060000000000451 0.22 0  7.059000000000228 0.22 0  7.058000000000278 0.22 0  7.057000000000409 0.22 0  7.05600000000027 0.22 0  7.055000000000069 0.22 0  7.054000000000139 0.22 0  7.05300000000025 0.22 0  7.05200000000009 0.22 0  7.05099999999991 0.22 0  7.05 0.22 0  7.04900000000009 0.22 0  7.047999999999909 0.22 0  7.04699999999975 0.22 0  7.045999999999861 0.22 0  7.044999999999931 0.22 0  7.04399999999973 0.22 0  7.042999999999591 0.22 0  7.041999999999723 0.22 0  7.040999999999771 0.22 0  7.039999999999549 0.22 0  7.038999999999445 0.22 0  7.037999999999584 0.22 0  7.036999999999612 0.22 0  7.035999999999528 0.22 0  7.034999999999653 0.22 0  7.033999999999792 0.22 0  7.032999999999799 0.22 0  7.031999999999723 0.22 0  7.030999999999861 0.22 0  7.03 0.22 0  7.028999999999987 0.22 0  7.02799999999993 0.22 0  7.027000000000069 0.22 0  7.026000000000209 0.22 0  7.025000000000174 0.22 0  7.024000000000139 0.22 0  7.023000000000278 0.22 0  7.022000000000416 0.22 0  7.021000000000361 0.22 0  7.020000000000347 0.22 0  7.019000000000486 0.22 0  7.018000000000624 0.22 0  7.017000000000548 0.22 0  7.016000000000555 0.22 0  7.015000000000694 0.22 0  7.014000000000632 0.22 0  7.013000000000389 0.22 0  7.012000000000416 0.22 0  7.011000000000555 0.22 0  7.010000000000451 0.22 0  7.009000000000229 0.22 0  7.008000000000278 0.22 0  7.007000000000409 0.22 0  7.00600000000027 0.22 0  7.005000000000069 0.22 0  7.004000000000139 0.22 0  7.00300000000025 0.22 0  7.00200000000009 0.22 0  7.00099999999991 0.22 0  6.994809698470582 0.22 0  6.991569006236496 0.22 0  6.987074728859082 0.22 0  6.980583540116057 0.22 0  6.972279556173985 0.22 0  6.962550869064059 0.22 0  6.952627664228347 0.22 0  6.942704459392635 0.22 0  6.932781254556923 0.22 0  6.922858049721211 0.22 0  6.912934844885499 0.22 0  6.903011640049788 0.22 0  6.893088435214075 0.22 0  6.883165230378363 0.22 0  6.873242025542651 0.22 0
[...]
<PointData  Vectors="velocity"> 
<DataArray  type="Float64"  Name="velocity"  NumberOfComponents="3" format="ascii">0.0000000000000000e+00 0.0000000000000000e+00 0.0000000000000000e+00  0.0000000000000000e+00 0.0000000000000000e+00 0.0000000000000000e+00  0.0000000000000000e+00 0.0000000000000000e+00 0.0000000000000000e+00  0.0000000000000000e+00 0.0000000000000000e+00 0.0000000000000000e+00  0.0000000000000000e+00 0.0000000000000000e+00 0.0000000000000000e+00  0.0000000000000000e+00 0.0000000000000000e+00 0.0000000000000000e+00  0.0000000000000000e+00 0.0000000000000000e+00 0.0000000000000000e+00  0.0000000000000000e+00 0.0000000000000000e+00 0.0000000000000000e+00  0.0000000000000000e+00 0.0000000000000000e+00 0.0000000000000000e+00  0.0000000000000000e+00 0.0000000000000000e+00 0.0000000000000000e+00  0.0000000000000000e+00 0.0000000000000000e+00 0.0000000000000000e+00  0.0000000000000000e+00 0.0000000000000000e+00 0.0000000000000000e+00  0.0000000000000000e+00 0.0000000000000000e+00 0.0000000000000000e+00  0.0000000000000000e+00 0.0000000000000000e+00 0.0000000000000000e+00  0.0000000000000000e+00 0.0000000000000000e+00 0.0000000000000000e+00  0.0000000000000000e+00 0.0000000000000000e+00 0.0000000000000000e+00  0.0000000000000000e+00 0.0000000000000000e+00 0.0000000000000000e+00  0.0000000000000000e+00 0.0000000000000000e+00 0.0000000000000000e+00  0.0000000000000000e+00 0.0000000000000000e+00 0.0000000000000000e+00  0.0000000000000000e+00 0.0000000000000000e+00 0.0000000000000000e+00  0.0000000000000000e+00 0.0000000000000000e+00 0.0000000000000000e+00  0.0000000000000000e+00 0.0000000000000000e+00 0.0000000000000000e+00  0.0000000000000000e+00 0.0000000000000000e+00 0.0000000000000000e+00  0.0000000000000000e+00 0.0000000000000000e+00 0.0000000000000000e+00  0.0000000000000000e+00 0.0000000000000000e+00 0.0000000000000000e+00  0.0000000000000000e+00 0.0000000000000000e+00 0.0000000000000000e+00  0.0000000000000000e+00 0.0000000000000000e+00 0.0000000000000000e+00  0.0000000000000000e+00 0.0000000000000000e+00 0.0000000000000000e+00  0.0000000000000000e+00 0.0000000000000000e+00 0.0000000000000000e+00  0.0000000000000000e+00 0.0000000000000000e+00 0.0000000000000000e+00  0.0000000000000000e+00 0.0000000000000000e+00 0.0000000000000000e+00  0.0000000000000000e+00 0.0000000000000000e+00 0.0000000000000000e+00  0.0000000000000000e+00 0.0000000000000000e+00 0.0000000000000000e+00  0.0000000000000000e+00 0.0000000000000000e+00 0.0000000000000000e+00  0.0000000000000000e+00 0.0000000000000000e+00 0.0000000000000000e+00  0.0000000000000000e+00 0.0000000000000000e+00 0.0000000000000000e+00  0.0000000000000000e+00 0.0000000000000000e+00 0.0000000000000000e+00  0.0000000000000000e+00 0.0000000000000000e+00 0.0000000000000000e+00  0.0000000000000000e+00 0.0000000000000000e+00 0.0000000000000000e+00  0.0000000000000000e+00 0.0000000000000000e+00 0.0000000000000000e+00  0.0000000000000000e+00 0.0000000000000000e+00 0.0000000000000000e+00  0.0000000000000000e+00 0.0000000000000000e+00 0.0000000000000000e+00  0.0000000000000000e+00 0.0000000000000000e+00 0.0000000000000000e+00  0.0000000000000000e+00 0.0000000000000000e+00 0.0000000000000000e+00  0.0000000000000000e+00 0.0000000000000000e+00 0.0000000000000000e+00  0.0000000000000000e+00 0.0000000000000000e+00 0.0000000000000000e+00  0.0000000000000000e+00 0.0000000000000000e+00 0.0000000000000000e+00  0.0000000000000000e+00 0.0000000000000000e+00 0.0000000000000000e+00  0.0000000000000000e+00 0.0000000000000000e+00 0.0000000000000000e+00  0.0000000000000000e+00 0.0000000000000000e+00 0.0000000000000000e+00  0.0000000000000000e+00 0.0000000000000000e+00 0.0000000000000000e+00  0.0000000000000000e+00 0.0000000000000000e+00 0.0000000000000000e+00  0.0000000000000000e+00 0.0000000000000000e+00 0.0000000000000000e+00  0.0000000000000000e+00 0.0000000000000000e+00 0.0000000000000000e+00  0.0000000000000000e+00 0.0000000000000000e+00 0.0000000000000000e+00  0.0000000000000000e+00 0.0000000000000000e+00 0.0000000000000000e+00  0.0000000000000000e+00 0.0000000000000000e+00 0.0000000000000000e+00  0.0000000000000000e+00 0.0000000000000000e+00 0.0000000000000000e+00  0.0000000000000000e+00 0.0000000000000000e+00 0.0000000000000000e+00  0.0000000000000000e+00 0.0000000000000000e+00 0.0000000000000000e+00  0.0000000000000000e+00 0.0000000000000000e+00 0.0000000000000000e+00  0.0000000000000000e+00 0.0000000000000000e+00 0.0000000000000000e+00  0.0000000000000000e+00 0.0000000000000000e+00 0.0000000000000000e+00  0.0000000000000000e+00 0.0000000000000000e+00 0.0000000000000000e+00  0.0000000000000000e+00 0.0000000000000000e+00 0.0000000000000000e+00  0.0000000000000000e+00 0.0000000000000000e+00 0.0000000000000000e+00  0.0000000000000000e+00 0.0000000000000000e+00 0.0000000000000000e+00  0.0000000000000000e+00 0.0000000000000000e+00 0.0000000000000000e+00  0.0000000000000000e+00 0.0000000000000000e+00 0.0000000000000000e+00  0.0000000000000000e+00 0.0000000000000000e+00 0.0000000000000000e+00  0.0000000000000000e+00 0.0000000000000000e+00 0.0000000000000000e+00  0.0000000000000000e+00 0.0000000000000000e+00 0.0000000000000000e+00  0.0000000000000000e+00 0.0000000000000000e+00 0.0000000000000000e+00  0.0000000000000000e+00 0.0000000000000000e+00 0.0000000000000000e+00  0.0000000000000000e+00 0.0000000000000000e+00 0.0000000000000000e+00  0.0000000000000000e+00 0.0000000000000000e+00 0.0000000000000000e+00  0.0000000000000000e+00 0.0000000000000000e+00 0.0000000000000000e+00  0.0000000000000000e+00 0.0000000000000000e+00 0.0000000000000000e+00  0.0000000000000000e+00 0.0000000000000000e+00 0.0000000000000000e+00  0.0000000000000000e+00 0.0000000000000000e+00 0.0000000000000000e+00  0.0000000000000000e+00 0.0000000000000000e+00 0.0000000000000000e+00  0.0000000000000000e+00 0.0000000000000000e+00 0.0000000000000000e+00  0.0000000000000000e+00 0.0000000000000000e+00 0.0000000000000000e+00  0.0000000000000000e+00 0.0000000000000000e+00 0.0000000000000000e+00  0.0000000000000000e+00 0.0000000000000000e+00 0.0000000000000000e+00  0.0000000000000000e+00 0.0000000000000000e+00 0.0000000000000000e+00  0.0000000000000000e+00 0.0000000000000000e+00 0.0000000000000000e+00  0.0000000000000000e+00 0.0000000000000000e+00 0.0000000000000000e+00  0.0000000000000000e+00 0.0000000000000000e+00 0.0000000000000000e+00  0.0000000000000000e+00 0.0000000000000000e+00 0.0000000000000000e+00  0.0000000000000000e+00 0.0000000000000000e+00 0.0000000000000000e+00  0.0000000000000000e+00 0.0000000000000000e+00 0.0000000000000000e+00  0.0000000000000000e+00 0.0000000000000000e+00 0.0000000000000000e+00  0.0000000000000000e+00 0.0000000000000000e+00 0.0000000000000000e+00  0.0000000000000000e+00 0.0000000000000000e+00 0.0000000000000000e+00  0.0000000000000000e+00 0.0000000000000000e+00 0.0000000000000000e+00  0.0000000000000000e+00 0.0000000000000000e+00 0.0000000000000000e+00  0.0000000000000000e+00 0.0000000000000000e+00 0.0000000000000000e+00  0.0000000000000000e+00 0.0000000000000000e+00 0.0000000000000000e+00  0.0000000000000000e+00 0.0000000000000000e+00 0.0000000000000000e+00  0.0000000000000000e+00 0.0000000000000000e+00 0.0000000000000000e+00  0.0000000000000000e+00 0.0000000000000000e+00 0.0000000000000000e+00  0.0000000000000000e+00 0.0000000000000000e+00 0.0000000000000000e+00  0.0000000000000000e+00 0.0000000000000000e+00 0.0000000000000000e+00  0.0000000000000000e+00 0.0000000000000000e+00 0.0000000000000000e+00  0.0000000000000000e+00 0.0000000000000000e+00 0.0000000000000000e+00  0.0000000000000000e+00 0.0000000000000000e+00 0.0000000000000000e+00  0.0000000000000000e+00 0.0000000000000000e+00 0.0000000000000000e+00  0.0000000000000000e+00 0.0000000000000000e+00 0.0000000000000000e+00  0.0000000000000000e+00 0.0000000000000000e+00 0.0000000000000000e+00  0.0000000000000000e+00 0.0000000000000000e+00 0.0000000000000000e+00  0.0000000000000000e+00 0.0000000000000000e+00 0.0000000000000000e+00  0.0000000000000000e+00 0.0000000000000000e+00 0.0000000000000000e+00  0.0000000000000000e+00 0.0000000000000000e+00 0.0000000000000000e+00  0.0000000000000000e+00 0.0000000000000000e+00 0.0000000000000000e+00  0.0000000000000000e+00 0.0000000000000000e+00 0.0000000000000000e+00  0.0000000000000000e+00 0.0000000000000000e+00 0.0000000000000000e+00  0.0000000000000000e+00 0.0000000000000000e+00 0.0000000000000000e+00  0.0000000000000000e+00 0.0000000000000000e+00 0.0000000000000000e+00  0.0000000000000000e+00 0.0000000000000000e+00 0.0000000000000000e+00  0.0000000000000000e+00 0.0000000000000000e+00 0.0000000000000000e+00  0.0000000000000000e+00 0.0000000000000000e+00 0.0000000000000000e+00  0.0000000000000000e+00 0.0000000000000000e+00 0.0000000000000000e+00  0.0000000000000000e+00 0.0000000000000000e+00 0.0000000000000000e+00  0.0000000000000000e+00 0.0000000000000000e+00 0.0000000000000000e+00  0.0000000000000000e+00 0.0000000000000000e+00 0.0000000000000000e+00  0.0000000000000000e+00 0.0000000000000000e+00 0.0000000000000000e+00  0.0000000000000000e+00 0.0000000000000000e+00 0.0000000000000000e+00  0.0000000000000000e+00 0.0000000000000000e+00 0.0000000000000000e+00  0.0000000000000000e+00 0.0000000000000000e+00 0.0000000000000000e+00  0.0000000000000000e+00 0.0000000000000000e+00 0.0000000000000000e+00  0.0000000000000000e+00 0.0000000000000000e+00 0.0000000000000000e+00  0.0000000000000000e+00 0.0000000000000000e+00 0.0000000000000000e+00  0.0000000000000000e+00 0.0000000000000000e+00 0.0000000000000000e+00  0.0000000000000000e+00 0.0000000000000000e+00 0.0000000000000000e+00  0.0000000000000000e+00 0.0000000000000000e+00 0.0000000000000000e+00  0.0000000000000000e+00 0.0000000000000000e+00 0.0000000000000000e+00  0.0000000000000000e+00 0.0000000000000000e+00 0.0000000000000000e+00  0.0000000000000000e+00 0.0000000000000000e+00 0.0000000000000000e+00  0.0000000000000000e+00 0.0000000000000000e+00 0.0000000000000000e+00  0.0000000000000000e+00 0.0000000000000000e+00 0.0000000000000000e+00  0.0000000000000000e+00 0.0000000000000000e+00 0.0000000000000000e+00  0.0000000000000000e+00 0.0000000000000000e+00 0.0000000000000000e+00  0.0000000000000000e+00 0.0000000000000000e+00 0.0000000000000000e+00  0.0000000000000000e+00 0.0000000000000000e+00 0.0000000000000000e+00  0.0000000000000000e+00 0.0000000000000000e+00 0.0000000000000000e+00  0.0000000000000000e+00 0.0000000000000000e+00 0.0000000000000000e+00  0.0000000000000000e+00 0.0000000000000000e+00 0.0000000000000000e+00  0.0000000000000000e+00 0.0000000000000000e+00 0.0000000000000000e+00  0.0000000000000000e+00 0.0000000000000000e+00 0.0000000000000000e+00  0.0000000000000000e+00 0.0000000000000000e+00 0.0000000000000000e+00  0.0000000000000000e+00 0.0000000000000000e+00 0.0000000000000000e+00  0.0000000000000000e+00 0.0000000000000000e+00 0.0000000000000000e+00  0.0000000000000000e+00 0.0000000000000000e+00 0.0000000000000000e+00  0.0000000000000000e+00 0.0000000000000000e+00 0.0000000000000000e+00  0.0000000000000000e+00 0.0000000000000000e+00 0.0000000000000000e+00  0.0000000000000000e+00 0.0000000000000000e+00 0.0000000000000000e+00  0.0000000000000000e+00 0.0000000000000000e+00 0.0000000000000000e+00  0.0000000000000000e+00 0.0000000000000000e+00 0.0000000000000000e+00  0.0000000000000000e+00 0.0000000000000000e+00 0.0000000000000000e+00  0.0000000000000000e+00 0.0000000000000000e+00 0.0000000000000000e+00  0.0000000000000000e+00 0.0000000000000000e+00 0.0000000000000000e+00  0.0000000000000000e+00 0.0000000000000000e+00 0.0000000000000000e+00  0.0000000000000000e+00 0.0000000000000000e+00 0.0000000000000000e+00  0.0000000000000000e+00 0.0000000000000000e+00 0.0000000000000000e+00  0.0000000000000000e+00 0.0000000000000000e+00 0.0000000000000000e+00  0.0000000000000000e+00 0.0000000000000000e+00 0.0000000000000000e+00  0.0000000000000000e+00 0.0000000000000000e+00 0.0000000000000000e+00  0.0000000000000000e+00 0.0000000000000000e+00 0.0000000000000000e+00  0.0000000000000000e+00 0.0000000000000000e+00 0.0000000000000000e+00  0.0000000000000000e+00 0.0000000000000000e+00 0.0000000000000000e+00  0.0000000000000000e+00 0.0000000000000000e+00 0.0000000000000000e+00  0.0000000000000000e+00 0.0000000000000000e+00 0.0000000000000000e+00  0.0000000000000000e+00 0.0000000000000000e+00 0.0000000000000000e+00  0.0000000000000000e+00 0.0000000000000000e+00 0.0000000000000000e+00  0.0000000000000000e+00 0.0000000000000000e+00 0.0000000000000000e+00  0.0000000000000000e+00 0.0000000000000000e+00 0.0000000000000000e+00  0.0000000000000000e+00 0.0000000000000000e+00 0.0000000000000000e+00  0.0000000000000000e+00 0.0000000000000000e+00 0.0000000000000000e+00  0.0000000000000000e+00 0.0000000000000000e+00 0.0000000000000000e+00  0.0000000000000000e+00 0.0000000000000000e+00 0.0000000000000000e+00  0.0000000000000000e+00 0.0000000000000000e+00 0.0000000000000000e+00  0.0000000000000000e+00 0.0000000000000000e+00 0.0000000000000000e+00  0.0000000000000000e+00 0.0000000000000000e+00 0.0000000000000000e+00  0.0000000000000000e+00 0.0000000000000000e+00 0.0000000000000000e+00  0.0000000000000000e+00 0.0000000000000000e+00 0.0000000000000000e+00  0.0000000000000000e+00 0.0000000000000000e+00 0.0000000000000000e+00  0.0000000000000000e+00 0.0000000000000000e+00 0.0000000000000000e+00  0.0000000000000000e+00 0.0000000000000000e+00 0.0000000000000000e+00  0.0000000000000000e+00 0.0000000000000000e+00 0.0000000000000000e+00  0.0000000000000000e+00 0.0000000000000000e+00 0.0000000000000000e+00  0.0000000000000000e+00 0.0000000000000000e+00 0.0000000000000000e+00  0.0000000000000000e+00 0.0000000000000000e+00 0.0000000000000000e+00  0.0000000000000000e+00 0.0000000000000000e+00 0.0000000000000000e+00  0.0000000000000000e+00 0.0000000000000000e+00 0.0000000000000000e+00  0.0000000000000000e+00 0.0000000000000000e+00 0.0000000000000000e+00  0.0000000000000000e+00 0.0000000000000000e+00 0.0000000000000000e+00  0.0000000000000000e+00 0.0000000000000000e+00 0.0000000000000000e+00  0.0000000000000000e+00 0.0000000000000000e+00 0.0000000000000000e+00  0.0000000000000000e+00 0.0000000000000000e+00 0.0000000000000000e+00  0.0000000000000000e+00 0.0000000000000000e+00 0.0000000000000000e+00  0.0000000000000000e+00 0.0000000000000000e+00 0.0000000000000000e+00  0.0000000000000000e+00 0.0000000000000000e+00 0.0000000000000000e+00  0.0000000000000000e+00 0.0000000000000000e+00 0.0000000000000000e+00  0.0000000000000000e+00 0.0000000000000000e+00 0.0000000000000000e+00  0.0000000000000000e+00 0.0000000000000000e+00 0.0000000000000000e+00  0.0000000000000000e+00 0.0000000000000000e+00 0.0000000000000000e+00  0.0000000000000000e+00 0.0000000000000000e+00 0.0000000000000000e+00  0.0000000000000000e+00 0.0000000000000000e+00 0.0000000000000000e+00  0.0000000000000000e+00 0.0000000000000000e+00 0.0000000000000000e+00  0.0000000000000000e+00 0.0000000000000000e+00 0.0000000000000000e+00  0.0000000000000000e+00 0.0000000000000000e+00 0.0000000000000000e+00  0.0000000000000000e+00 0.0000000000000000e+00 0.0000000000000000e+00  0.0000000000000000e+00 0.0000000000000000e+00 0.0000000000000000e+00  0.0000000000000000e+00 0.0000000000000000e+00 0.0000000000000000e+00  0.0000000000000000e+00 0.0000000000000000e+00 0.0000000000000000e+00  0.0000000000000000e+00 0.0000000000000000e+00 0.0000000000000000e+00  0.0000000000000000e+00 0.0000000000000000e+00 0.0000000000000000e+00  0.0000000000000000e+00 0.0000000000000000e+00 0.0000000000000000e+00  0.0000000000000000e+00 0.0000000000000000e+00 0.0000000000000000e+00  0.0000000000000000e+00 0.0000000000000000e+00 0.0000000000000000e+00  0.0000000000000000e+00 0.0000000000000000e+00 0.0000000000000000e+00  0.0000000000000000e+00 0.0000000000000000e+00 0.0000000000000000e+00  0.0000000000000000e+00 0.0000000000000000e+00 0.0000000000000000e+00  0.0000000000000000e+00 0.0000000000000000e+00 0.0000000000000000e+00  0.0000000000000000e+00 0.0000000000000000e+00 0.0000000000000000e+00  0.0000000000000000e+00 0.0000000000000000e+00 0.0000000000000000e+00  0.0000000000000000e+00 0.0000000000000000e+00 0.0000000000000000e+00  0.0000000000000000e+00 0.0000000000000000e+00 0.0000000000000000e+00  0.0000000000000000e+00 0.0000000000000000e+00 0.0000000000000000e+00  0.0000000000000000e+00 0.0000000000000000e+00 0.0000000000000000e+00  0.0000000000000000e+00 0.0000000000000000e+00 0.0000000000000000e+00  0.0000000000000000e+00 0.0000000000000000e+00 0.0000000000000000e+00  0.0000000000000000e+00 0.0000000000000000e+00 0.0000000000000000e+00  0.0000000000000000e+00 0.0000000000000000e+00 0.0000000000000000e+00  0.0000000000000000e+00 0.0000000000000000e+00 0.0000000000000000e+00  0.0000000000000000e+00 0.0000000000000000e+00 0.0000000000000000e+00  0.0000000000000000e+00 0.0000000000000000e+00 0.0000000000000000e+00  0.0000000000000000e+00 0.0000000000000000e+00 0.0000000000000000e+00  0.0000000000000000e+00 0.0000000000000000e+00 0.0000000000000000e+00  0.0000000000000000e+00 0.0000000000000000e+00 0.0000000000000000e+00  0.0000000000000000e+00 0.0000000000000000e+00 0.0000000000000000e+00  0.0000000000000000e+00 0.0000000000000000e+00 0.0000000000000000e+00  0.0000000000000000e+00 0.0000000000000000e+00 0.0000000000000000e+00  0.0000000000000000e+00 0.0000000000000000e+00 0.0000000000000000e+00  0.0000000000000000e+00 0.0000000000000000e+00 0.0000000000000000e+00  0.0000000000000000e+00 0.0000000000000000e+00 0.0000000000000000e+00  0.0000000000000000e+00 0.0000000000000000e+00 0.0000000000000000e+00  0.0000000000000000e+00 0.0000000000000000e+00 0.0000000000000000e+00  0.0000000000000000e+00 0.0000000000000000e+00 0.0000000000000000e+00  0.0000000000000000e+00 0.0000000000000000e+00 0.0000000000000000e+00  0.0000000000000000e+00 0.0000000000000000e+00 0.0000000000000000e+00  0.0000000000000000e+00 0.0000000000000000e+00 0.0000000000000000e+00  0.0000000000000000e+00 0.0000000000000000e+00 0.0000000000000000e+00  0.0000000000000000e+00 0.0000000000000000e+00 0.0000000000000000e+00  0.0000000000000000e+00 0.0000000000000000e+00 0.0000000000000000e+00  0.0000000000000000e+00 0.0000000000000000e+00 0.0000000000000000e+00  0.0000000000000000e+00 0.0000000000000000e+00 0.0000000000000000e+00  0.0000000000000000e+00 0.0000000000000000e+00 0.0000000000000000e+00  0.0000000000000000e+00 0.0000000000000000e+00 0.0000000000000000e+00  0.0000000000000000e+00 0.0000000000000000e+00 0.0000000000000000e+00  0.0000000000000000e+00 0.0000000000000000e+00 0.0000000000000000e+00  0.0000000000000000e+00 0.0000000000000000e+00 0.0000000000000000e+00  0.0000000000000000e+00 0.0000000000000000e+00 0.0000000000000000e+00  0.0000000000000000e+00 0.0000000000000000e+00 0.0000000000000000e+00  0.0000000000000000e+00 0.0000000000000000e+00 0.0000000000000000e+00  0.0000000000000000e+00 0.0000000000000000e+00 0.0000000000000000e+00  0.0000000000000000e+00 0.0000000000000000e+00 0.0000000000000000e+00  0.0000000000000000e+00 0.0000000000000000e+00 0.0000000000000000e+00  0.0000000000000000e+00 0.0000000000000000e+00 0.0000000000000000e+00  0.0000000000000000e+00 0.0000000000000000e+00 0.0000000000000000e+00  0.0000000000000000e+00 0.0000000000000000e+00 0.0000000000000000e+00  0.0000000000000000e+00 0.0000000000000000e+00 0.0000000000000000e+00  0.0000000000000000e+00 0.0000000000000000e+00 0.0000000000000000e+00  0.0000000000000000e+00 0.0000000000000000e+00 0.0000000000000000e+00  0.0000000000000000e+00 0.0000000000000000e+00 0.0000000000000000e+00  0.0000000000000000e+00 0.0000000000000000e+00 0.0000000000000000e+00  0.0000000000000000e+00 0.0000000000000000e+00 0.0000000000000000e+00  0.0000000000000000e+00 0.0000000000000000e+00 0.0000000000000000e+00  0.0000000000000000e+00 0.0000000000000000e+00 0.0000000000000000e+00  0.0000000000000000e+00 0.0000000000000000e+00 0.0000000000000000e+00  0.0000000000000000e+00 0.0000000000000000e+00 0.0000000000000000e+00  0.0000000000000000e+00 0.0000000000000000e+00 0.0000000000000000e+00  0.0000000000000000e+00 0.0000000000000000e+00 0.0000000000000000e+00  0.00