<?xml version="1.0"?>
<VTKFile type="UnstructuredGrid"  version="0.1"  >
<UnstructuredGrid>
<Piece  NumberOfPoints="21337" NumberOfCells="41988">
<Points>
<DataArray  type="Float64"  NumberOfComponents="3"  format="ascii">0 0 0  0.77 0 0  0.77 0.15 0  0 0.15 0  0.002692307692302917 0 0  0.005384615384605834 0 0  0.008076923076908835 0 0  0.01076923076921186 0 0  0.01346153846151489 0 0  0.01615384615381792 0 0  0.01884615384612085 0 0  0.02153846153842357 0 0  0.02423076923072626 0 0  0.02692307692302838 0 0  0.02961538461533049 0 0  0.03230769230763287 0 0  0.03499999999993529 0 0  0.03769230769223771 0 0  0.04038461538454013 0 0  0.04307692307684255 0 0  0.04576923076914497 0 0  0.04846153846144754 0 0  0.05115384615375117 0 0  0.0538461538460548 0 0  0.05653846153835843 0 0  0.05923076923066205 0 0  0.06192307692296529 0 0  0.06461538461526832 0 0  0.06730769230757135 0 0  0.06999999999987438 0 0  0.07269230769217741 0 0  0.07538461538448044 0 0  0.07807692307678345 0 0  0.08076923076908764 0 0  0.08346153846139188 0 0  0.08615384615369612 0 0  0.08884615384600036 0 0  0.0915384615383034 0 0  0.09423076923060524 0 0  0.09692307692290673 0 0  0.09961538461520734 0 0  0.1023076923075079 0 0  0.1049999999998086 0 0  0.1076923076921091 0 0  0.1103846153844097 0 0  0.1130769230767103 0 0  0.1157692307690103 0 0  0.1184615384613097 0 0  0.1211538461536087 0 0  0.1238461538459068 0 0  0.126538461538205 0 0  0.1292307692305032 0 0  0.1319230769228014 0 0  0.1346153846151016 0 0  0.1373076923074022 0 0  0.1399999999997043 0 0  0.1426923076920073 0 0  0.1453846153843103 0 0  0.1480769230766134 0 0  0.150769230768916 0 0  0.1534615384612166 0 0  0.1561538461535172 0 0  0.1588461538458156 0 0  0.1615384615381138 0 0  0.164230769230412 0 0  0.1669230769227102 0 0  0.1696153846150083 0 0  0.1723076923073065 0 0  0.1749999999996047 0 0  0.1776923076919029 0 0  0.180384615384201 0 0  0.1830769230765016 0 0  0.1857692307688022 0 0  0.1884615384611046 0 0  0.1911538461534076 0 0  0.1938461538457106 0 0  0.1965384615380136 0 0  0.199230769230316 0 0  0.2019230769226166 0 0  0.2046153846149171 0 0  0.2073076923072153 0 0  0.2099999999995135 0 0  0.2126923076918116 0 0  0.2153846153841098 0 0  0.218076923076408 0 0  0.2207692307687062 0 0  0.2234615384610044 0 0  0.2261538461533025 0 0  0.2288461538456009 0 0  0.2315384615379015 0 0  0.2342307692302022 0 0  0.2369230769225048 0 0  0.2396153846148079 0 0  0.2423076923071109 0 0  0.2449999999994139 0 0  0.247692307691715 0 0  0.2503846153840132 0 0  0.2530769230763114 0 0  0.2557692307686096 0 0  0.2584615384609077 0 0  0.2611538461532104 0 0  0.2638461538455134 0 0  0.2665384615378165 0 0  0.2692307692301195 0 0  0.2719230769224225 0 0  0.2746153846147255 0 0  0.2773076923070275 0 0  0.2799999999993256 0 0  0.2826923076916238 0 0  0.285384615383922 0 0  0.2880769230762202 0 0  0.2907692307685183 0 0  0.2934615384608165 0 0  0.2961538461531147 0 0  0.2988461538454129 0 0  0.3015384615377124 0 0  0.3042307692300155 0 0  0.3069230769223185 0 0  0.3096153846146215 0 0  0.3123076923069245 0 0  0.3149999999992276 0 0  0.3176923076915306 0 0  0.3203846153838307 0 0  0.323076923076129 0 0  0.3257692307684272 0 0  0.3284615384607253 0 0  0.3311538461530235 0 0  0.3338461538453217 0 0  0.3365384615376198 0 0  0.339230769229918 0 0  0.3419230769222162 0 0  0.3446153846145144 0 0  0.3473076923068126 0 0  0.3499999999991107 0 0  0.3526923076914089 0 0  0.3553846153837079 0 0  0.3580769230760109 0 0  0.360769230768314 0 0  0.363461538460617 0 0  0.3661538461529201 0 0  0.3688461538452231 0 0  0.3715384615375261 0 0  0.3742307692298269 0 0  0.3769230769221251 0 0  0.3796153846144243 0 0  0.3823076923067274 0 0  0.3849999999990304 0 0  0.3876923076913432 0 0  0.3903846153836559 0 0  0.3930769230759686 0 0  0.3957692307682814 0 0  0.3984615384605941 0 0  0.4011538461529068 0 0  0.4038461538452195 0 0  0.4065384615375321 0 0  0.409230769229845 0 0  0.4119230769221576 0 0  0.4146153846144704 0 0  0.4173076923067831 0 0  0.4199999999990959 0 0  0.4226923076914115 0 0  0.425384615383729 0 0  0.4280769230760466 0 0  0.4307692307683642 0 0  0.4334615384606818 0 0  0.4361538461529995 0 0  0.438846153845317 0 0  0.4415384615376347 0 0  0.4442307692299522 0 0  0.4469230769222666 0 0  0.4496153846145793 0 0  0.4523076923068921 0 0  0.4549999999992048 0 0  0.4576923076915175 0 0  0.4603846153838302 0 0  0.463076923076143 0 0  0.4657692307684557 0 0  0.4684615384607684 0 0  0.471153846153081 0 0  0.4738461538453938 0 0  0.4765384615377089 0 0  0.4792307692300266 0 0  0.4819230769223441 0 0  0.4846153846146617 0 0  0.4873076923069792 0 0  0.489999999999292 0 0  0.4926923076916048 0 0  0.4953846153839174 0 0  0.4980769230762301 0 0  0.5007692307685402 0 0  0.5034615384608481 0 0  0.5061538461531575 0 0  0.5088461538454702 0 0  0.5115384615377837 0 0  0.5142307692301061 0 0  0.5169230769224287 0 0  0.5196153846147429 0 0  0.5223076923070555 0 0  0.5249999999993683 0 0  0.527692307691681 0 0  0.5303846153839974 0 0  0.5330769230763198 0 0  0.5357692307686409 0 0  0.5384615384609537 0 0  0.5411538461532663 0 0  0.5438461538455703 0 0  0.5465384615378733 0 0  0.5492307692301829 0 0  0.5519230769224956 0 0  0.5546153846148125 0 0  0.5573076923071351 0 0  0.5599999999994555 0 0  0.5626923076917683 0 0  0.5653846153840809 0 0  0.5680769230763936 0 0  0.5707692307687064 0 0  0.5734615384610262 0 0  0.5761538461533487 0 0  0.5788461538456712 0 0  0.5815384615379936 0 0  0.5842307692303135 0 0  0.5869230769226261 0 0  0.5896153846149389 0 0  0.5923076923072516 0 0  0.5949999999995643 0 0  0.5976923076918849 0 0  0.6003846153842073 0 0  0.6030769230765242 0 0  0.605769230768837 0 0  0.6084615384611465 0 0  0.6111538461534496 0 0  0.6138461538457535 0 0  0.6165384615380662 0 0  0.6192307692303789 0 0  0.6219230769227 0 0  0.6246153846150224 0 0  0.6273076923073388 0 0  0.6299999999996516 0 0  0.6326923076919642 0 0  0.6353846153842769 0 0  0.6380769230765913 0 0  0.6407692307689137 0 0  0.6434615384612361 0 0  0.6461538461535496 0 0  0.6488461538458623 0 0  0.6515384615381684 0 0  0.6542307692304714 0 0  0.6569230769227788 0 0  0.6596153846150916 0 0  0.6623076923074064 0 0  0.6649999999997288 0 0  0.6676923076920513 0 0  0.6703846153843642 0 0  0.6730769230766769 0 0  0.6757692307689896 0 0  0.6784615384613023 0 0  0.6811538461536201 0 0  0.6838461538459425 0 0  0.6865384615382623 0 0  0.689230769230575 0 0  0.6919230769228872 0 0  0.6946153846151903 0 0  0.6973076923074933 0 0  0.6999999999998043 0 0  0.702692307692117 0 0  0.7053846153844354 0 0  0.7080769230767577 0 0  0.7107692307690769 0 0  0.7134615384613896 0 0  0.7161538461537023 0 0  0.718846153846015 0 0  0.7215384615383277 0 0  0.724230769230649 0 0  0.7269230769229713 0 0  0.7296153846152876 0 0  0.7323076923076003 0 0  0.7349999999999092 0 0  0.7376923076922122 0 0  0.7403846153845167 0 0  0.7430769230768295 0 0  0.7457692307691423 0 0  0.748461538461464 0 0  0.7511538461537864 0 0  0.7538461538461021 0 0  0.7565384615384148 0 0  0.7592307692307275 0 0  0.7619230769230403 0 0  0.7646153846153552 0 0  0.7673076923076777 0 0  0.77 0.002678571428566427 0  0.77 0.005357142857132536 0  0.77 0.008035714285698086 0  0.77 0.01071428571426477 0  0.77 0.01339285714283192 0  0.77 0.01607142857139917 0  0.77 0.01874999999996588 0  0.77 0.02142857142853017 0  0.77 0.02410714285709379 0  0.77 0.0267857142856574 0  0.77 0.02946428571422236 0  0.77 0.03214285714278598 0  0.77 0.03482142857134959 0  0.77 0.0374999999999132 0  0.77 0.04017857142847682 0  0.77 0.04285714285704043 0  0.77 0.04553571428560405 0  0.77 0.04821428571416767 0  0.77 0.05089285714273128 0  0.77 0.05357142857129488 0  0.77 0.05624999999985985 0  0.77 0.05892857142842482 0  0.77 0.06160714285698844 0  0.77 0.06428571428555205 0  0.77 0.06696428571411567 0  0.77 0.06964285714267927 0  0.77 0.07232142857124288 0  0.77 0.07499999999980922 0  0.77 0.07767857142838523 0  0.77 0.08035714285696278 0  0.77 0.08303571428554266 0  0.77 0.08571428571411904 0  0.77 0.08839285714270011 0  0.77 0.09107142857127612 0  0.77 0.09374999999985754 0  0.77 0.09642857142843357 0  0.77 0.09910714285701384 0  0.77 0.101785714285591 0  0.77 0.1044642857141701 0  0.77 0.1071428571427485 0  0.77 0.1098214285713264 0  0.77 0.1124999999999059 0  0.77 0.1151785714284854 0  0.77 0.1178571428570634 0  0.77 0.1205357142856417 0  0.77 0.1232142857142209 0  0.77 0.1258928571427942 0  0.77 0.1285714285713702 0  0.77 0.1312499999999516 0  0.77 0.1339285714285276 0  0.77 0.1366071428571091 0  0.77 0.1392857142856851 0  0.77 0.1419642857142665 0  0.77 0.1446428571428425 0  0.77 0.1473214285714224 0  0.7673076923077067 0.15 0  0.7646153846154133 0.15 0  0.7619230769231125 0.15 0  0.7592307692308095 0.15 0  0.7565384615385063 0.15 0  0.7538461538462033 0.15 0  0.7511538461539002 0.15 0  0.7484615384615971 0.15 0  0.7457692307692941 0.15 0  0.743076923076991 0.15 0  0.7403846153846879 0.15 0  0.7376923076923849 0.15 0  0.7350000000000818 0.15 0  0.7323076923077787 0.15 0  0.7296153846154757 0.15 0  0.7269230769231726 0.15 0  0.7242307692308696 0.15 0  0.7215384615385665 0.15 0  0.7188461538462634 0.15 0  0.7161538461539604 0.15 0  0.7134615384616573 0.15 0  0.7107692307693542 0.15 0  0.7080769230770512 0.15 0  0.7053846153847481 0.15 0  0.702692307692445 0.15 0  0.700000000000142 0.15 0  0.6973076923078388 0.15 0  0.6946153846155358 0.15 0  0.6919230769232327 0.15 0  0.6892307692309296 0.15 0  0.6865384615386265 0.15 0  0.6838461538463235 0.15 0  0.6811538461540204 0.15 0  0.6784615384617174 0.15 0  0.6757692307694143 0.15 0  0.6730769230771112 0.15 0  0.6703846153848081 0.15 0  0.6676923076925051 0.15 0  0.665000000000202 0.15 0  0.662307692307899 0.15 0  0.6596153846155959 0.15 0  0.6569230769232928 0.15 0  0.6542307692309897 0.15 0  0.6515384615386867 0.15 0  0.6488461538463836 0.15 0  0.6461538461540804 0.15 0  0.6434615384617781 0.15 0  0.6407692307694848 0.15 0  0.6380769230771914 0.15 0  0.6353846153848981 0.15 0  0.6326923076926048 0.
[...]
<PointData  Scalars="pressure"> 
<DataArray  type="Float64"  Name="pressure"  format="ascii">1.1145858012753546e+04  5.9835419143984492e-01  5.9835110996213714e-01  1.1145611934635794e+04  1.1047142801981545e+04  1.0957041268326577e+04  1.0866059897410434e+04  1.0776209976227035e+04  1.0685646361243173e+04  1.0598076891483555e+04  1.0507517978918813e+04  1.0418871907184508e+04  1.0330135152917308e+04  1.0240267812266058e+04  1.0153326083722086e+04  1.0065453598813761e+04  9.9750764192950355e+03  9.8858801533882724e+03  9.7975626484369895e+03  9.7095279328317501e+03  9.6196720080668983e+03  9.5324619291259005e+03  9.4419143834936149e+03  9.3525685386126715e+03  9.2648839824681927e+03  9.1763041729842153e+03  9.0878449319341471e+03  8.9983079940602820e+03  8.9119470505122044e+03  8.8215819134036265e+03  8.7334020029995572e+03  8.6439430041505166e+03  8.5556942812230027e+03  8.4658720101752588e+03  8.3795028230860007e+03  8.2890314877033488e+03  8.2010196171168081e+03  8.1113119813253943e+03  8.0226604429668350e+03  7.9352939946755923e+03  7.8485976338965374e+03  7.7589028465102438e+03  7.6686487330135424e+03  7.5809607353989977e+03  7.4918969213893643e+03  7.4044738409668889e+03  7.3148955104300740e+03  7.2271142994984421e+03  7.1370639071246032e+03  7.0483190483664985e+03  6.9609884940110869e+03  6.8717016776514056e+03  6.7845166791249458e+03  6.6933715604389317e+03  6.6047114215072515e+03  6.5180662440309925e+03  6.4278759127609901e+03  6.3390359184758227e+03  6.2512730325765715e+03  6.1643984415149780e+03  6.0744313608112816e+03  5.9836279563851431e+03  5.8958004629442394e+03  5.8081888326804337e+03  5.7196082020039676e+03  5.6295471955080984e+03  5.5404538270276535e+03  5.4503950343889992e+03  5.3627536729237545e+03  5.2719900085743629e+03  5.1811056673881521e+03  5.0845036000136806e+03  3.7746782167533092e+03  3.5916941382327386e+03  3.5723258602259571e+03  3.5541455249435744e+03  3.5371241073111428e+03  3.5202029810176236e+03  3.5031544807255682e+03  3.4866852392810802e+03  3.4697442515547500e+03  3.4531064219148311e+03  3.4365994584532341e+03  3.4199570041001630e+03  3.4033004895862823e+03  3.3866583620307474e+03  3.3700281044221215e+03  3.3533654038911600e+03  3.3367922837950250e+03  3.3202421704734338e+03  3.3033488235581362e+03  3.2869272797477411e+03  3.2706627800664492e+03  3.2538262154476606e+03  3.2372897093226516e+03  3.2208147641805549e+03  3.2041796994461984e+03  3.1873420384255219e+03  3.1707714088644443e+03  3.1542953070590002e+03  3.1376736223778703e+03  3.1208756842895823e+03  3.1045940776043017e+03  3.0877636979315221e+03  3.0712242830835121e+03  3.0547547030716282e+03  3.0379300967555432e+03  3.0214684379228552e+03  3.0049413164280140e+03  2.9883261010379838e+03  2.9714743989298536e+03  2.9548169353983808e+03  2.9383009161601080e+03  2.9216566951747695e+03  2.9052035296728591e+03  2.8883732268788121e+03  2.8719852978805420e+03  2.8556559870815358e+03  2.8390536863015386e+03  2.8220325955912053e+03  2.8057069735206101e+03  2.7890387898665358e+03  2.7723097098133089e+03  2.7558158529496991e+03  2.7392802391977634e+03  2.7226898285366169e+03  2.7061991637838028e+03  2.6897751207928472e+03  2.6728077591880815e+03  2.6559314117487834e+03  2.6398392348173425e+03  2.6230975102388088e+03  2.6064899042990878e+03  2.5896819908593388e+03  2.5731275455226973e+03  2.5564519108769177e+03  2.5401689874133376e+03  2.5231341922167444e+03  2.5068978659908707e+03  2.4900014777283109e+03  2.4736998028998596e+03  2.4568768339874855e+03  2.4403400256552959e+03  2.4238222495755836e+03  2.4072089802816236e+03  2.3904760652851669e+03  2.3740372569982387e+03  2.3575238377112319e+03  2.3406342844144006e+03  2.3239886028025426e+03  2.3076121900900630e+03  2.2912544151608558e+03  2.2744582001901272e+03  2.2579169802032047e+03  2.2414302294359522e+03  2.2248125801018500e+03  2.2079285831921034e+03  2.1913599850784904e+03  2.1746416280467811e+03  2.1583331118711726e+03  2.1415201438857221e+03  2.1251465257138902e+03  2.1084295161404198e+03  2.0917994009764752e+03  2.0751661350343097e+03  2.0583447926586377e+03  2.0421815721375112e+03  2.0254665469376737e+03  2.0087518684912352e+03  1.9922315350909648e+03  1.9752471565958331e+03  1.9588809211520679e+03  1.9424748122730882e+03  1.9258386511727481e+03  1.9088703222816171e+03  1.8925569964802485e+03  1.8758090178973907e+03  1.8595062661973375e+03  1.8426434968328786e+03  1.8261222256845642e+03  1.8095834698856490e+03  1.7929421360790168e+03  1.7762797150775446e+03  1.7596734209705419e+03  1.7429549036102424e+03  1.7265799988611398e+03  1.7101771797215890e+03  1.6934750528608604e+03  1.6769893011103859e+03  1.6603018978786695e+03  1.6433012152266542e+03  1.6269878136226391e+03  1.6104514228991125e+03  1.5936623739360948e+03  1.5771957360953440e+03  1.5605454124004880e+03  1.5438664635466364e+03  1.5273510073280017e+03  1.5106451607082358e+03  1.4943628798263030e+03  1.4776773880654837e+03  1.4609699411713725e+03  1.4440588531996962e+03  1.4277513904226623e+03  1.4112499424254772e+03  1.3948226607878830e+03  1.3778757541007387e+03  1.3610920254841442e+03  1.3448508503511030e+03  1.3280814265669858e+03  1.3115907255864622e+03  1.2947979811789533e+03  1.2785090072738294e+03  1.2615395924420709e+03  1.2449399950904981e+03  1.2285240559588067e+03  1.2121258907813096e+03  1.1953307696420704e+03  1.1784377794727109e+03  1.1622402741851461e+03  1.1456388741015282e+03  1.1285846980973652e+03  1.1122304856850863e+03  1.0956351026993309e+03  1.0791270395915928e+03  1.0623122161747710e+03  1.0459110692349677e+03  1.0293252615007993e+03  1.0127769918129734e+03  9.9594465263841926e+02  9.7972553181249202e+02  9.6276445040861506e+02  9.4611932609943494e+02  9.2966235382087609e+02  9.1317016591650508e+02  8.9653570541825832e+02  8.7972311435049653e+02  8.6319129156164854e+02  8.4667366564140286e+02  8.3015224417349395e+02  8.1332305459103520e+02  7.9697876414677273e+02  7.8019425054397550e+02  7.6376361983779861e+02  7.4685845133455416e+02  7.3048651518544057e+02  7.1368800909542676e+02  6.9701480816964215e+02  6.8062941636782909e+02  6.6432379640423937e+02  6.4747828349731287e+02  6.3079256115682369e+02  6.1430751241774669e+02  5.9777192547763320e+02  5.8096444307381842e+02  5.6474647711651198e+02  5.4794290294752614e+02  5.3104712352952447e+02  5.1449023550321658e+02  4.9805859971841187e+02  4.8167622444414917e+02  4.6476012777970016e+02  4.4823984637002377e+02  4.3151144926588205e+02  4.1500145128407053e+02  3.9836161411319500e+02  3.8197137461570236e+02  3.6518566076332888e+02  3.4875840426031584e+02  3.3213226375206818e+02  3.1563773295872102e+02  2.9877681269171535e+02  2.8214788718976712e+02  2.6577762307559010e+02  2.4921973015626372e+02  2.3223444464651769e+02  2.1572022614992429e+02  1.9929141948188581e+02  1.8267575219406638e+02  1.6609948370876393e+02  1.4920474717053210e+02  1.3307574659406080e+02  1.1639442899084867e+02  9.9702091864438671e+01  8.2721409149856811e+01  6.6086197116540689e+01  4.9495401126421015e+01  3.3147338998039224e+01  1.6787332928250944e+01  -9.6220545914307738e-03  1.6956262457278617e-02  2.5006887943699152e-02  -2.0452795639244077e-03  2.5262933635871198e-03  4.1539801737648234e-04  2.9842162509850157e-05  2.1112157528709980e-05  3.9930801547181651e-09  6.8171236037671888e-06  -7.3904653829754133e-06  5.5200565766858391e-07  -1.0551588881779381e-06  6.1662392244914061e-07  -2.8991410946522629e-07  -9.2053376505336996e-08  -1.2525881860666964e-07  -2.0946234667460744e-07  9.4908731213493711e-08  1.6455569394856076e-07  1.4408420089675224e-07  1.0583777932736586e-07  4.7658712804653875e-08  4.2208938903692428e-07  7.4562666648426350e-08  1.2930177753195272e-07  4.8934335071160872e-09  -1.8538146747465691e-08  1.0335508756389860e-08  -2.5653685069628876e-08  -3.1425074079960237e-08  1.0699601090905576e-08  8.7452466755782185e-08  -8.9204493696350733e-08  -3.4457941568122125e-08  8.7190748087518451e-08  -2.1591653049155014e-08  -1.7024253493911014e-07  -8.7649918106621650e-08  -9.7656427753030844e-08  -4.5461051211848061e-07  -6.8934976041137433e-08  -1.5316652819115989e-06  3.0890943266817239e-07  -7.5539146160488953e-06  6.7647848772120480e-06  3.7409661770715044e-08  2.1132621495680309e-05  2.9860117180706004e-05  4.1542767882849635e-04  2.5263080498667311e-03  -2.0452746449691876e-03  2.5006806692040636e-02  1.6956175138158031e-02  -9.6220138071741942e-03  1.6787245773024907e+01  3.3147166875833435e+01  4.9495143157711020e+01  6.6085851623794582e+01  8.2720974501597198e+01  9.9701564883198643e+01  1.1639380958611854e+02  1.3307503286486269e+02  1.4920393981817602e+02  1.6609857568542807e+02  1.8267474224684773e+02  1.9929030277235248e+02  2.1571900055294455e+02  2.3223310348720048e+02  2.4921826696379827e+02  2.6577603497183736e+02  2.8214617177283060e+02  2.9877496223428619e+02  3.1563574044717967e+02  3.3213012560168585e+02  3.4875611411375473e+02  3.6518321156020954e+02  3.8196875475013331e+02  3.9835881884720840e+02  4.1499846639217174e+02  4.3150826815845352e+02  4.4823645346304573e+02  4.6475651325337174e+02  4.8167236960785704e+02  4.9805449937120386e+02  5.1448587078789808e+02  5.3104247807820536e+02  5.4793795142869249e+02  5.6474120201829203e+02  5.8095883450474309e+02  5.9776594742796362e+02  6.1430114365819475e+02  6.3078577828244477e+02  6.4747104696595841e+02  6.6431606365207858e+02  6.8062117780364247e+02  6.9700600217608087e+02  7.1367859129669546e+02  7.3047642415496034e+02  7.4684764262070462e+02  7.6375200521740976e+02  7.8018177833464108e+02  7.9696537794084838e+02  8.1330816590464292e+02  8.3013596845043219e+02  8.4665579134366112e+02  8.6317260130096031e+02  8.7970112166115257e+02  8.9651128014614198e+02  9.1314358701489084e+02  9.2963177451029469e+02  9.4609456415567797e+02  9.6266309318631272e+02  9.7946380485888483e+02  9.9599623601607789e+02  1.0127628302544002e+03  1.0290589612429335e+03  1.0459800021499962e+03  1.0623963699670137e+03  1.0791349210007161e+03  1.0959177910534358e+03  1.1121371416743025e+03  1.1290516663063058e+03  1.1457177266690828e+03  1.1619706096293712e+03  1.1787589674940371e+03  1.1953587149318446e+03  1.2117904318319727e+03  1.2283652025247709e+03  1.2451655196669410e+03  1.2614551232612284e+03  1.2780677260234281e+03  1.2950924790503100e+03  1.3113779532043932e+03  1.3281523214214847e+03  1.3446590467942424e+03  1.3615921066972273e+03  1.3777910260837855e+03  1.3943163421870915e+03  1.4113328323023773e+03  1.4275998839914546e+03  1.4444566563877877e+03  1.4609538687125275e+03  1.4774655548943758e+03  1.4942942878577419e+03  1.5105368965640569e+03  1.5274385102528090e+03  1.5438494983089288e+03  1.5606850412143531e+03  1.5771977639511656e+03  1.5938747038037238e+03  1.6104781067019906e+03  1.6270183325568164e+03  1.6436653105947742e+03  1.6601088070064286e+03  1.6766415168172932e+03  1.6934479979043049e+03  1.7096827985598707e+03  1.7265467693120061e+03  1.7433700858292807e+03  1.7595084226478436e+03  1.7763788105764781e+03  1.7929834540814334e+03  1.8097227875511462e+03  1.8261551801480448e+03  1.8427889863938817e+03  1.8595464644579349e+03  1.8762162917470280e+03  1.8923760271092810e+03  1.9091750735423084e+03  1.9260895380728830e+03  1.9422721863912134e+03  1.9586534730517931e+03  1.9754701806090479e+03  1.9918973323948551e+03  2.0089205427807060e+03  2.0256321705439545e+03  2.0418040799256312e+03  2.0585110289882828e+03  2.0751051547701909e+03  2.0919220078498306e+03  2.1082487129270662e+03  2.1250716785891009e+03  2.1417961806938056e+03  2.1579719902180932e+03  2.1748961682811350e+03  2.1912599715495817e+03  2.2081430040416858e+03  2.2247150593644988e+03  2.2412352996047662e+03  2.2578118213860480e+03  2.2744791547828504e+03  2.2910038603095895e+03  2.3078041875375338e+03  2.3244385567257141e+03  2.3407817342320322e+03  2.3570632221994838e+03  2.3736144385208545e+03  2.3906645891944759e+03  2.4075445940260024e+03  2.4237751368013251e+03  2.4405165692497558e+03  2.4569540193590260e+03  2.4736910615452925e+03  2.4901118775317468e+03  2.5069808696772566e+03  2.5232427666689832e+03  2.5400985252312339e+03  2.5569400212634700e+03  2.5730321425905449e+03  2.5898909261446943e+03  2.6066039467531509e+03  2.6227928659431432e+03  2.6395630853106554e+03  2.6564280588683910e+03  2.6728686515827221e+03  2.6894083283946948e+03  2.7061472353925697e+03  2.7225041975669769e+03  2.7395669965759294e+03  2.7558612374446902e+03  2.7724767308599448e+03  2.7893083619616009e+03  2.8055813293209922e+03  2.8223622641320662e+03  2.8389683902887209e+03  2.8555816358695211e+03  2.8718933838779744e+03  2.8888271857169348e+03  2.9053698144456202e+03  2.9220509030549451e+03  2.9384740687713397e+03  2.9549655897801958e+03  2.9717418995912808e+03  2.9881132150878821e+03  3.0049752230736422e+03  3.0217701741134224e+03  3.0381915755618270e+03  3.0545484790879259e+03  3.0711896587931569e+03  3.0882092693133141e+03  3.1045099254160941e+03  3.1212971507750149e+03  3.1378100793218391e+03  3.1547418902538711e+03  3.1708991362526995e+03  3.1876669833204032e+03  3.2046372127707155e+03  3.2211997876275618e+03  3.2374041683793230e+03  3.2542075553799559e+03  3.2708677756096549e+03  3.2875711053500195e+03  3.3041892438388650e+03  3.3208675822174996e+03  3.3375969255713317e+03  3.3539699995597707e+03  3.3707132588932195e+03  3.3873872554537347e+03  3.4040989147093778e+03  3.4207936318629049e+03  3.4374571754760614e+03  3.4541426682746114e+03  3.4712153416361380e+03  3.4882482347222713e+03  3.5046633583756761e+03  3.5220128403471890e+03  3.5390483924060704e+03  3.5569254742323842e+03  3.5756495027716642e+03  3.5950274017091388e+03  3.7131120287460726e+03  5.0716901541528687e+03  5.1694458233649921e+03  5.2613524489152169e+03  5.3540340922132127e+03  5.4447995379294953e+03  5.5344806550094845e+03  5.6241155647255555e+03  5.7141666644169654e+03  5.8036450448472715e+03  5.8925095101600655e+03  5.9814205647757344e+03  6.0698383453078777e+03  6.1600135800132821e+03  6.2480065234132944e+03  6.3371328472406740e+03  6.4261412769014805e+03  6.5143565313926119e+03  6.6027809344164471e+03  6.6920973409062271e+03  6.7812410446986942e+03  6.8700717887562778e+03  6.9580951700505739e+03  7.0464839410995201e+03  7.1371662580067232e+03  7.2258036477446667e+03  7.3129771840248259e+03  7.4017221388518319e+03  7.4904045405887855e+03  7.5802008912445945e+03  7.6670812068925761e+03  7.7571912645256871e+03  7.8471334930383482e+03  7.9338839665447231e+03  8.0237592881010823e+03  8.1120320455633628e+03  8.2000865118550701e+03  8.2889179937799072e+03  8.3770055651449002e+03  8.4655184426505875e+03  8.5550909408959560e+03  8.6430584078067168e+03  8.7327851120818286e+03  8.8210051295720968e+03  8.9114056074293076e+03  8.9978052189947393e+03  9.0874055053094962e+03  9.1760565451797156e+03  9.2648902747914326e+03  9.3514049439074552e+03  9.4414736905647678e+03  9.5321728515215145e+03  9.6192720535660646e+03  9.7091521169372409e+03  9.7972126188885341e+03  9.8855462965566512e+03  9.9747561895145227e+03  1.0065145721562149e+04  1.0153028827711452e+04  1.0239979664123151e+04  1.0329855524901037e+04  1.0418599549746315e+04  1.0507251958177671e+04  1.0597816384166235e+04  1.0685390320005303e+04  1.0775957650280596e+04  1.0865810308030414e+04  1.0956793741030750e+04  1.1046896470646094e+04  1.1135185939770341e+04  1.1132422426586541e+04  1.1130778963193121e+04  1.1129329238140712e+04  1.1128271106532413e+04  1.1127397367692689e+04  1.1126676433456056e+04  1.1126065171259368e+04  1.1125542671280691e+04  1.1125088187412819e+04  1.1124682365155577e+04  1.1124318038944841e+04  1.1124002011497594e+04  1.1123712801254716e+04  1.1123460169711101e+04  1.1123232499059119e+04  1.1123035848278807e+04  1.1122856995972637e+04  1.1122699914445298e+04  1.1122566734713531e+04  1.1122448976467040e+04  1.1122353862884611e+04  1.1122270581301536e+04  1.1122204814097919e+04  1.1122156702956376e+04  1.1122126077678206e+04  1.1122109671118871e+04  1.1122107834293023e+04  1.1122122825505527e+04  1.1122153530456882e+04  1.1122197461800120e+04  1.1122258056885352e+04  1.1122337276381981e+04  1.1122433809812374e+04  1.1122543020901525e+04  1.1122669302369563e+04  1.1122819618440841e+04  1.1122985392987421e+04  1.1123176454434893e+04  1.1123385249992236e+04  1.1123625242472686e+04  1.1123887467327962e+04  1.1124185142160730e+04  1.1124509855616996e+04  1.1124882641405118e+04  1.1125296078894131e+04  1.1125757687126877e+04  1.1126286507684543e+04  1.1126903529746873e+04  1.1127629438845741e+04  1.1128507530718394e+04  1.1129569230616888e+04  1.1131021591217956e+04  1.1132667107336296e+04  1.1135431616167245e+04  4.6210569287339570e+02  8.6563833866911045e+03  1.4184186774379234e+03  9.3567275984308219e+02  5.8414468659473396e+03  3.2133139174894536e+03  2.7464286088458452e+03  2.0009201569960114e+03  2.3736583384291926e+03  1.7109108351883915e+03  3.4878742211999306e+03  3.4957359060986391e+03  7.2679546776416792e+03  7.2754877870055407e+03  1.6765394952328224e+03  1.1800901555404726e+03  1.1784290345684851e+03  6.9994173902162549e+02  7.0017397102236896e+02  2.2326339915633403e+03  2.9785252008863995e+03  2.9812073809029612e+03  2.5202072786776475e+03  2.7101665098337111e+02  9.6832625666800905e+03  9.6993107132179030e+03  2.6841352113974978e+02  2.5927728772705354e+03  2.1519220730093352e+03  1.9080412832613422e+03  1.4877546976622930e+03  1.9313479014189011e+03  3.2717283004280480e+03  5.5701290904489015e+03  3.2653344631772898e+03  5.6315699720441198e+03  8.4410317878393089e+03  8.4286798703870627e+03  1.4553460724276563e+03  9.5561067068070167e+02  9.5530473390492136e+02  2.7544933093598133e+03  4.8947953263950689e+02  4.9006322595052114e+02  2.7933960666244739e+03  2.0112450994069891e+02  1.0050357572185239e+04  2.4150686877126441e+03  2.5550762714572074e+03  2.1873091085834535e+03  1.8101438911911066e+03  6.5160673358280119e+03  3.3936593763120209e+03  6.5510637216262821e+03  3.0323082692999815e+03  1.3178405704352851e+03  2.3736773133114420e+03  6.4221616265731336e+02  1.2400265235584568e+03  1.5986497194466256e+03  3.6356187676176164e+03  7.7214305785700417e+03  2.0986255825200542e+03  3.1104119506187544e+03  6.7927185149874304e+03  3.1051814260927681e+03  1.2946558566115548e+03  1.7767335021830870e+03  2.3774167443644001e+03  8.0575171805955893e+02  8.0746879343228227e+02  3.4141891745652515e+03  1.7632731721993184e+03  3.4205364813276756e+03  7.6574585971848592e+03  7.6542994476545655e+03  1.5992621490099843e+03  1.0279117233242598e+04  1.0279358149273732e+04  1.5739394033667264e+02  1.5739320464054944e+02  2.6167708162468189e+03  3.5767858249252572e+03  1.0962875864653779e+03  1.0962874740564635e+03  6.3460626474449773e+03  1.3299437942895377e+03  2.8940130780827467e+03  3.1327477730645214e+03  3.5693699709547868e+03  3.1313890510827296e+03  1.0896181770657815e+03  1.3293566147206641e+03  1.6209400384717246e+03  2.0820842869578482e+03  6.2682359213172595e+02  6.2682909695621697e+02  7.9125104916578164e+02  9.1477156138713362e+03  9.1500164749344003e+03  2.0379593100606110e+03  6.2875110601900369e+03  8.4940223939635246e+02  2.2676379255369038e+03  2.8881501427969433e+03  1.0431366802837681e+03  3.5703673343982229e+02  3.5651417656968835e+02  2.6573706455776087e+03  2.9318997857348818e+03  2.8433200068151491e+03  9.3482183508359667e+03  3.3336439598620092e+02  8.9863726353991915e+03  2.2352600710167781e+03  5.5207942470815192e+02  5.5211946117365039e+02  3.9819878045658925e+02  1.4261368523453771e+02  1.0362927169796783e+04  1.4079656545603999e+02  1.0369774444922894e+04  2.0250771116207602e+03  2.7199864740349976e+03  1.8500913697341762e+03  2.6704974420442782e+03  1.5103225754806710e+03  3.3524845244987059e+03  8.1807508252958660e+03  8.1899803959418768e+03  5.3791712135152438e+03  2.5359246073501572e+03  5.3798067077400692e+03  2.2834175847674451e+03  8.3726460528082941e+02  3.3004129563902779e+03  1.5065051075414478e+03  2.4939034141227075e+03  1.8025896778803419e+03  2.4913462164696925e+03  5.9163973918445045e+03  1.4315372152512350e+03  5.9525677631125000e+03  9.0136990877345434e+03  1.9833339995